 Entering Gaussian System, Link 0=g16
 Initial command:
 /applis/site/cecic/gaussian16/B.01/nehalem/g16/l1.exe "/bettik/tinaccil/g16/12753905_N/Gau-130510.inp" -scrdir="/bettik/tinaccil/g16/12753905_N/"
 Entering Link 1 = /applis/site/cecic/gaussian16/B.01/nehalem/g16/l1.exe PID=    130513.
  
 Copyright (c) 1988-2017, Gaussian, Inc.  All Rights Reserved.
  
 This is part of the Gaussian(R) 16 program.  It is based on
 the Gaussian(R) 09 system (copyright 2009, Gaussian, Inc.),
 the Gaussian(R) 03 system (copyright 2003, Gaussian, Inc.),
 the Gaussian(R) 98 system (copyright 1998, Gaussian, Inc.),
 the Gaussian(R) 94 system (copyright 1995, Gaussian, Inc.),
 the Gaussian 92(TM) system (copyright 1992, Gaussian, Inc.),
 the Gaussian 90(TM) system (copyright 1990, Gaussian, Inc.),
 the Gaussian 88(TM) system (copyright 1988, Gaussian, Inc.),
 the Gaussian 86(TM) system (copyright 1986, Carnegie Mellon
 University), and the Gaussian 82(TM) system (copyright 1983,
 Carnegie Mellon University). Gaussian is a federally registered
 trademark of Gaussian, Inc.
  
 This software contains proprietary and confidential information,
 including trade secrets, belonging to Gaussian, Inc.
  
 This software is provided under written license and may be
 used, copied, transmitted, or stored only in accord with that
 written license.
  
 The following legend is applicable only to US Government
 contracts under FAR:
  
                    RESTRICTED RIGHTS LEGEND
  
 Use, reproduction and disclosure by the US Government is
 subject to restrictions as set forth in subparagraphs (a)
 and (c) of the Commercial Computer Software - Restricted
 Rights clause in FAR 52.227-19.
  
 Gaussian, Inc.
 340 Quinnipiac St., Bldg. 40, Wallingford CT 06492
  
  
 ---------------------------------------------------------------
 Warning -- This program may not be used in any manner that
 competes with the business of Gaussian, Inc. or will provide
 assistance to any competitor of Gaussian, Inc.  The licensee
 of this program is prohibited from giving any competitor of
 Gaussian, Inc. access to this program.  By using this program,
 the user acknowledges that Gaussian, Inc. is engaged in the
 business of creating and licensing software in the field of
 computational chemistry and represents and warrants to the
 licensee that it is not a competitor of Gaussian, Inc. and that
 it will not use this program in any manner prohibited above.
 ---------------------------------------------------------------
  

 Cite this work as:
 Gaussian 16, Revision B.01,
 M. J. Frisch, G. W. Trucks, H. B. Schlegel, G. E. Scuseria, 
 M. A. Robb, J. R. Cheeseman, G. Scalmani, V. Barone, 
 G. A. Petersson, H. Nakatsuji, X. Li, M. Caricato, A. V. Marenich, 
 J. Bloino, B. G. Janesko, R. Gomperts, B. Mennucci, H. P. Hratchian, 
 J. V. Ortiz, A. F. Izmaylov, J. L. Sonnenberg, D. Williams-Young, 
 F. Ding, F. Lipparini, F. Egidi, J. Goings, B. Peng, A. Petrone, 
 T. Henderson, D. Ranasinghe, V. G. Zakrzewski, J. Gao, N. Rega, 
 G. Zheng, W. Liang, M. Hada, M. Ehara, K. Toyota, R. Fukuda, 
 J. Hasegawa, M. Ishida, T. Nakajima, Y. Honda, O. Kitao, H. Nakai, 
 T. Vreven, K. Throssell, J. A. Montgomery, Jr., J. E. Peralta, 
 F. Ogliaro, M. J. Bearpark, J. J. Heyd, E. N. Brothers, K. N. Kudin, 
 V. N. Staroverov, T. A. Keith, R. Kobayashi, J. Normand, 
 K. Raghavachari, A. P. Rendell, J. C. Burant, S. S. Iyengar, 
 J. Tomasi, M. Cossi, J. M. Millam, M. Klene, C. Adamo, R. Cammi, 
 J. W. Ochterski, R. L. Martin, K. Morokuma, O. Farkas, 
 J. B. Foresman, and D. J. Fox, Gaussian, Inc., Wallingford CT, 2016.
 
 ******************************************
 Gaussian 16:  ES64L-G16RevB.01 20-Dec-2017
                 5-Oct-2020 
 ******************************************
 %nosave
 %nproc=8
 Will use up to    8 processors via shared memory.
 %mem=2gb
 %chk=input
 ------------------------
 #P ROCCSD(T)/aug-cc-pvtz
 ------------------------
 1/38=1,172=1/1;
 2/12=2,17=6,18=5,40=1/2;
 3/5=16,6=1,7=10,11=2,25=1,30=1,116=101/1,2,3;
 4//1;
 5/5=2,38=5/2;
 8/5=-1,6=4,9=120000,10=1/1,4;
 9/5=7,14=2/13;
 6/7=2,8=2,9=2,10=2/1;
 99/5=1,9=1/99;
 Leave Link    1 at Mon Oct  5 21:27:04 2020, MaxMem=   268435456 cpu:               0.7 elap:               0.2
 (Enter /applis/site/cecic/gaussian16/B.01/nehalem/g16/l101.exe)
 -----
 Title
 -----
 Symbolic Z-matrix:
 Charge =  0 Multiplicity = 4
 N
 
 ITRead=  0
 MicOpt= -1
 NAtoms=      1 NQM=        1 NQMF=       0 NMMI=      0 NMMIF=      0
                NMic=       0 NMicF=      0.
                    Isotopes and Nuclear Properties:
 (Nuclear quadrupole moments (NQMom) in fm**2, nuclear magnetic moments (NMagM)
  in nuclear magnetons)

  Atom         1
 IAtWgt=          14
 AtmWgt=  14.0030740
 NucSpn=           2
 AtZEff=  -0.0000000
 NQMom=    2.0440000
 NMagM=    0.4037610
 AtZNuc=   7.0000000
 Leave Link  101 at Mon Oct  5 21:27:05 2020, MaxMem=   268435456 cpu:               1.6 elap:               0.3
 (Enter /applis/site/cecic/gaussian16/B.01/nehalem/g16/l202.exe)
                          Input orientation:                          
 ---------------------------------------------------------------------
 Center     Atomic      Atomic             Coordinates (Angstroms)
 Number     Number       Type             X           Y           Z
 ---------------------------------------------------------------------
      1          7           0        0.000000    0.000000    0.000000
 ---------------------------------------------------------------------
 Stoichiometry    N(4)
 Framework group  OH[O(N)]
 Deg. of freedom     0
 Full point group                 OH      NOp  48
 Largest Abelian subgroup         D2H     NOp   8
 Largest concise Abelian subgroup C1      NOp   1
                         Standard orientation:                         
 ---------------------------------------------------------------------
 Center     Atomic      Atomic             Coordinates (Angstroms)
 Number     Number       Type             X           Y           Z
 ---------------------------------------------------------------------
      1          7           0        0.000000    0.000000    0.000000
 ---------------------------------------------------------------------
 Leave Link  202 at Mon Oct  5 21:27:05 2020, MaxMem=   268435456 cpu:               1.2 elap:               0.2
 (Enter /applis/site/cecic/gaussian16/B.01/nehalem/g16/l301.exe)
 Standard basis: Aug-CC-pVTZ (5D, 7F)
 Ernie: Thresh=  0.10000D-02 Tol=  0.10000D-05 Strict=F.
 Ernie:  3 primitive shells out of 30 were deleted.
 There are    14 symmetry adapted cartesian basis functions of AG  symmetry.
 There are     3 symmetry adapted cartesian basis functions of B1G symmetry.
 There are     3 symmetry adapted cartesian basis functions of B2G symmetry.
 There are     3 symmetry adapted cartesian basis functions of B3G symmetry.
 There are     2 symmetry adapted cartesian basis functions of AU  symmetry.
 There are    10 symmetry adapted cartesian basis functions of B1U symmetry.
 There are    10 symmetry adapted cartesian basis functions of B2U symmetry.
 There are    10 symmetry adapted cartesian basis functions of B3U symmetry.
 There are    11 symmetry adapted basis functions of AG  symmetry.
 There are     3 symmetry adapted basis functions of B1G symmetry.
 There are     3 symmetry adapted basis functions of B2G symmetry.
 There are     3 symmetry adapted basis functions of B3G symmetry.
 There are     2 symmetry adapted basis functions of AU  symmetry.
 There are     8 symmetry adapted basis functions of B1U symmetry.
 There are     8 symmetry adapted basis functions of B2U symmetry.
 There are     8 symmetry adapted basis functions of B3U symmetry.
    46 basis functions,    72 primitive gaussians,    55 cartesian basis functions
     5 alpha electrons        2 beta electrons
       nuclear repulsion energy         0.0000000000 Hartrees.
 IExCor=    0 DFT=F Ex=HF Corr=None ExCW=0 ScaHFX=  1.000000
 ScaDFX=  1.000000  1.000000  1.000000  1.000000 ScalE2=  1.000000  1.000000
 IRadAn=      5 IRanWt=     -1 IRanGd=            0 ICorTp=0 IEmpDi=  4
 NAtoms=    1 NActive=    1 NUniq=    1 SFac= 1.00D+00 NAtFMM=   60 NAOKFM=F Big=F
 Integral buffers will be    131072 words long.
 Raffenetti 2 integral format.
 Two-electron integral symmetry is turned on.
 Leave Link  301 at Mon Oct  5 21:27:05 2020, MaxMem=   268435456 cpu:               0.6 elap:               0.1
 (Enter /applis/site/cecic/gaussian16/B.01/nehalem/g16/l302.exe)
 NPDir=0 NMtPBC=     1 NCelOv=     1 NCel=       1 NClECP=     1 NCelD=      1
         NCelK=      1 NCelE2=     1 NClLst=     1 CellRange=     0.0.
 One-electron integrals computed using PRISM.
 One-electron integral symmetry used in STVInt
 NBasis=    46 RedAO= T EigKep=  3.23D-02  NBF=    11     3     3     3     2     8     8     8
 NBsUse=    46 1.00D-06 EigRej= -1.00D+00 NBFU=    11     3     3     3     2     8     8     8
 Leave Link  302 at Mon Oct  5 21:27:06 2020, MaxMem=   268435456 cpu:               2.1 elap:               0.4
 (Enter /applis/site/cecic/gaussian16/B.01/nehalem/g16/l303.exe)
 DipDrv:  MaxL=1.
 Leave Link  303 at Mon Oct  5 21:27:06 2020, MaxMem=   268435456 cpu:               0.6 elap:               0.2
 (Enter /applis/site/cecic/gaussian16/B.01/nehalem/g16/l401.exe)
 ExpMin= 4.91D-02 ExpMax= 1.14D+04 ExpMxC= 3.89D+02 IAcc=3 IRadAn=         5 AccDes= 0.00D+00
 Harris functional with IExCor=  205 and IRadAn=       5 diagonalized for initial guess.
 HarFok:  IExCor=  205 AccDes= 0.00D+00 IRadAn=         5 IDoV= 1 UseB2=F ITyADJ=14
 ICtDFT=  3500011 ScaDFX=  1.000000  1.000000  1.000000  1.000000
 FoFCou: FMM=F IPFlag=           0 FMFlag=      100000 FMFlg1=           0
         NFxFlg=           0 DoJE=T BraDBF=F KetDBF=T FulRan=T
         wScrn=  0.000000 ICntrl=       500 IOpCl=  0 I1Cent=   200000004 NGrid=           0
         NMat0=    1 NMatS0=      1 NMatT0=    0 NMatD0=    1 NMtDS0=    0 NMtDT0=    0
 Petite list used in FoFCou.
 Harris En= -54.1524210477248    
 JPrj=0 DoOrth=F DoCkMO=F.
 Initial guess orbital symmetries:
       Occupied  (A1G) (A1G) (T1U) (T1U) (T1U)
       Virtual   (A1G) (T1U) (T1U) (T1U) (T2G) (T2G) (T2G) (EG)
                 (EG) (T1U) (T1U) (T1U) (A1G) (T2U) (T2U) (T2U)
                 (A2U) (T1U) (T1U) (T1U) (T2G) (T2G) (T2G) (EG)
                 (EG) (T1U) (T1U) (T1U) (T2U) (T2U) (T2U) (A2U)
                 (T1U) (T1U) (T1U) (T2G) (T2G) (T2G) (EG) (EG)
                 (A1G)
 The electronic state of the initial guess is 4-A1G.
 Leave Link  401 at Mon Oct  5 21:27:06 2020, MaxMem=   268435456 cpu:               1.9 elap:               0.3
 (Enter /applis/site/cecic/gaussian16/B.01/nehalem/g16/l502.exe)
 Keep R1 and R2 ints in memory in symmetry-blocked form, NReq=4488473.
 FoFCou: FMM=F IPFlag=           0 FMFlag=           0 FMFlg1=           0
         NFxFlg=           0 DoJE=F BraDBF=F KetDBF=F FulRan=T
         wScrn=  0.000000 ICntrl=       600 IOpCl=  0 I1Cent=           0 NGrid=           0
         NMat0=    1 NMatS0=   1081 NMatT0=    0 NMatD0=    1 NMtDS0=    0 NMtDT0=    0
 Petite list used in FoFCou.
 Restricted open shell SCF:
 Using DIIS extrapolation, IDIIS=  1040.
 NGot=   268435456 LenX=   268267006 LenY=   268263540
 Requested convergence on RMS density matrix=1.00D-08 within 128 cycles.
 Requested convergence on MAX density matrix=1.00D-06.
 Requested convergence on             energy=1.00D-06.
 No special actions if energy rises.

 Cycle   1  Pass 1  IDiag  1:
 E= -54.3704915395616    
 DIIS: error= 6.89D-02 at cycle   1 NSaved=   1.
 NSaved= 1 IEnMin= 1 EnMin= -54.3704915395616     IErMin= 1 ErrMin= 6.89D-02
 ErrMax= 6.89D-02  0.00D+00 EMaxC= 1.00D-01 BMatC= 7.63D-02 BMatP= 7.63D-02
 IDIUse=3 WtCom= 3.11D-01 WtEn= 6.89D-01
 Coeff-Com:  0.100D+01
 Coeff-En:   0.100D+01
 Coeff:      0.100D+01
 Gap=     0.290 Goal=   None    Shift=    0.000
 GapD=    0.290 DampG=1.000 DampE=0.500 DampFc=0.5000 IDamp=-1.
 Damping current iteration by 5.00D-01
 RMSDP=4.46D-03 MaxDP=7.77D-02              OVMax= 1.50D-01

 Cycle   2  Pass 1  IDiag  1:
 E= -54.3779181173791     Delta-E=       -0.007426577817 Rises=F Damp=T
 DIIS: error= 3.23D-02 at cycle   2 NSaved=   2.
 NSaved= 2 IEnMin= 2 EnMin= -54.3779181173791     IErMin= 2 ErrMin= 3.23D-02
 ErrMax= 3.23D-02  0.00D+00 EMaxC= 1.00D-01 BMatC= 1.73D-02 BMatP= 7.63D-02
 IDIUse=3 WtCom= 6.77D-01 WtEn= 3.23D-01
 Coeff-Com: -0.229D+00 0.123D+01
 Coeff-En:   0.353D+00 0.647D+00
 Coeff:     -0.410D-01 0.104D+01
 Gap=     0.246 Goal=   None    Shift=    0.000
 RMSDP=4.00D-03 MaxDP=6.78D-02 DE=-7.43D-03 OVMax= 1.78D-01

 Cycle   3  Pass 1  IDiag  1:
 E= -54.3756804154611     Delta-E=        0.002237701918 Rises=F Damp=F
 DIIS: error= 3.10D-02 at cycle   3 NSaved=   3.
 NSaved= 3 IEnMin= 2 EnMin= -54.3779181173791     IErMin= 3 ErrMin= 3.10D-02
 ErrMax= 3.10D-02  0.00D+00 EMaxC= 1.00D-01 BMatC= 1.40D-02 BMatP= 1.73D-02
 IDIUse=3 WtCom= 6.90D-01 WtEn= 3.10D-01
 Coeff-Com: -0.373D+00 0.743D+00 0.629D+00
 Coeff-En:   0.000D+00 0.529D+00 0.471D+00
 Coeff:     -0.257D+00 0.677D+00 0.580D+00
 Gap=     0.260 Goal=   None    Shift=    0.000
 RMSDP=2.86D-03 MaxDP=4.91D-02 DE= 2.24D-03 OVMax= 8.92D-02

 Cycle   4  Pass 1  IDiag  1:
 E= -54.3964571167508     Delta-E=       -0.020776701290 Rises=F Damp=F
 DIIS: error= 6.59D-03 at cycle   4 NSaved=   4.
 NSaved= 4 IEnMin= 4 EnMin= -54.3964571167508     IErMin= 4 ErrMin= 6.59D-03
 ErrMax= 6.59D-03  0.00D+00 EMaxC= 1.00D-01 BMatC= 7.58D-04 BMatP= 1.40D-02
 IDIUse=3 WtCom= 9.34D-01 WtEn= 6.59D-02
 Coeff-Com: -0.173D+00 0.328D+00 0.151D+00 0.694D+00
 Coeff-En:   0.000D+00 0.000D+00 0.000D+00 0.100D+01
 Coeff:     -0.162D+00 0.306D+00 0.141D+00 0.715D+00
 Gap=     0.252 Goal=   None    Shift=    0.000
 RMSDP=3.70D-04 MaxDP=5.63D-03 DE=-2.08D-02 OVMax= 1.23D-02

 Cycle   5  Pass 1  IDiag  1:
 E= -54.3973015425508     Delta-E=       -0.000844425800 Rises=F Damp=F
 DIIS: error= 3.70D-03 at cycle   5 NSaved=   5.
 NSaved= 5 IEnMin= 5 EnMin= -54.3973015425508     IErMin= 5 ErrMin= 3.70D-03
 ErrMax= 3.70D-03  0.00D+00 EMaxC= 1.00D-01 BMatC= 1.94D-04 BMatP= 7.58D-04
 IDIUse=3 WtCom= 9.63D-01 WtEn= 3.70D-02
 Coeff-Com: -0.600D-01 0.119D+00 0.577D-01-0.574D+00 0.146D+01
 Coeff-En:   0.000D+00 0.000D+00 0.000D+00 0.000D+00 0.100D+01
 Coeff:     -0.577D-01 0.114D+00 0.555D-01-0.553D+00 0.144D+01
 Gap=     0.249 Goal=   None    Shift=    0.000
 RMSDP=2.09D-04 MaxDP=3.35D-03 DE=-8.44D-04 OVMax= 7.11D-03

 Cycle   6  Pass 1  IDiag  1:
 E= -54.3975480015428     Delta-E=       -0.000246458992 Rises=F Damp=F
 DIIS: error= 1.59D-03 at cycle   6 NSaved=   6.
 NSaved= 6 IEnMin= 6 EnMin= -54.3975480015428     IErMin= 6 ErrMin= 1.59D-03
 ErrMax= 1.59D-03  0.00D+00 EMaxC= 1.00D-01 BMatC= 3.55D-05 BMatP= 1.94D-04
 IDIUse=3 WtCom= 9.84D-01 WtEn= 1.59D-02
 Coeff-Com:  0.217D-01-0.367D-01-0.478D-01 0.394D-01-0.721D+00 0.174D+01
 Coeff-En:   0.000D+00 0.000D+00 0.000D+00 0.000D+00 0.000D+00 0.100D+01
 Coeff:      0.214D-01-0.361D-01-0.470D-01 0.388D-01-0.710D+00 0.173D+01
 Gap=     0.247 Goal=   None    Shift=    0.000
 RMSDP=2.58D-04 MaxDP=4.43D-03 DE=-2.46D-04 OVMax= 8.69D-03

 Cycle   7  Pass 1  IDiag  1:
 E= -54.3975984537408     Delta-E=       -0.000050452198 Rises=F Damp=F
 DIIS: error= 6.27D-04 at cycle   7 NSaved=   7.
 NSaved= 7 IEnMin= 7 EnMin= -54.3975984537408     IErMin= 7 ErrMin= 6.27D-04
 ErrMax= 6.27D-04  0.00D+00 EMaxC= 1.00D-01 BMatC= 5.99D-06 BMatP= 3.55D-05
 IDIUse=3 WtCom= 9.94D-01 WtEn= 6.27D-03
 EnCoef did   100 forward-backward iterations
 Coeff-Com:  0.971D-03-0.143D-02 0.139D-03 0.136D-01-0.147D+00 0.503D+00
 Coeff-Com:  0.631D+00
 Coeff-En:   0.000D+00 0.000D+00 0.373D-01 0.000D+00 0.000D+00 0.951D-02
 Coeff-En:   0.953D+00
 Coeff:      0.965D-03-0.143D-02 0.372D-03 0.135D-01-0.146D+00 0.500D+00
 Coeff:      0.633D+00
 Gap=     0.247 Goal=   None    Shift=    0.000
 RMSDP=7.91D-05 MaxDP=1.39D-03 DE=-5.05D-05 OVMax= 2.56D-03

 Cycle   8  Pass 1  IDiag  1:
 E= -54.3976095173918     Delta-E=       -0.000011063651 Rises=F Damp=F
 DIIS: error= 2.32D-05 at cycle   8 NSaved=   8.
 NSaved= 8 IEnMin= 8 EnMin= -54.3976095173918     IErMin= 8 ErrMin= 2.32D-05
 ErrMax= 2.32D-05  0.00D+00 EMaxC= 1.00D-01 BMatC= 6.96D-09 BMatP= 5.99D-06
 IDIUse=1 WtCom= 1.00D+00 WtEn= 0.00D+00
 Coeff-Com:  0.178D-03-0.386D-03 0.159D-03 0.361D-03 0.643D-02-0.157D-01
 Coeff-Com: -0.117D-01 0.102D+01
 Coeff:      0.178D-03-0.386D-03 0.159D-03 0.361D-03 0.643D-02-0.157D-01
 Coeff:     -0.117D-01 0.102D+01
 Gap=     0.247 Goal=   None    Shift=    0.000
 RMSDP=1.77D-06 MaxDP=3.01D-05 DE=-1.11D-05 OVMax= 6.29D-05

 Cycle   9  Pass 1  IDiag  1:
 E= -54.3976095279905     Delta-E=       -0.000000010599 Rises=F Damp=F
 DIIS: error= 4.96D-06 at cycle   9 NSaved=   9.
 NSaved= 9 IEnMin= 9 EnMin= -54.3976095279905     IErMin= 9 ErrMin= 4.96D-06
 ErrMax= 4.96D-06  0.00D+00 EMaxC= 1.00D-01 BMatC= 3.40D-10 BMatP= 6.96D-09
 IDIUse=1 WtCom= 1.00D+00 WtEn= 0.00D+00
 Coeff-Com:  0.627D-05-0.999D-05 0.176D-04 0.599D-03-0.252D-02 0.768D-02
 Coeff-Com:  0.104D-01-0.201D+00 0.119D+01
 Coeff:      0.627D-05-0.999D-05 0.176D-04 0.599D-03-0.252D-02 0.768D-02
 Coeff:      0.104D-01-0.201D+00 0.119D+01
 Gap=     0.247 Goal=   None    Shift=    0.000
 RMSDP=5.14D-07 MaxDP=8.65D-06 DE=-1.06D-08 OVMax= 1.80D-05

 Cycle  10  Pass 1  IDiag  1:
 E= -54.3976095285436     Delta-E=       -0.000000000553 Rises=F Damp=F
 DIIS: error= 6.65D-08 at cycle  10 NSaved=  10.
 NSaved=10 IEnMin=10 EnMin= -54.3976095285436     IErMin=10 ErrMin= 6.65D-08
 ErrMax= 6.65D-08  0.00D+00 EMaxC= 1.00D-01 BMatC= 1.42D-13 BMatP= 3.40D-10
 IDIUse=1 WtCom= 1.00D+00 WtEn= 0.00D+00
 Coeff-Com: -0.339D-05 0.643D-05 0.531D-06-0.708D-04 0.241D-03-0.779D-03
 Coeff-Com: -0.387D-03 0.132D-01-0.227D+00 0.121D+01
 Coeff:     -0.339D-05 0.643D-05 0.531D-06-0.708D-04 0.241D-03-0.779D-03
 Coeff:     -0.387D-03 0.132D-01-0.227D+00 0.121D+01
 Gap=     0.247 Goal=   None    Shift=    0.000
 RMSDP=1.33D-08 MaxDP=2.76D-07 DE=-5.53D-10 OVMax= 4.35D-07

 Cycle  11  Pass 1  IDiag  1:
 E= -54.3976095285437     Delta-E=       -0.000000000000 Rises=F Damp=F
 DIIS: error= 8.65D-08 at cycle  11 NSaved=  11.
 NSaved=11 IEnMin=11 EnMin= -54.3976095285437     IErMin=10 ErrMin= 6.65D-08
 ErrMax= 8.65D-08  0.00D+00 EMaxC= 1.00D-01 BMatC= 1.04D-13 BMatP= 1.42D-13
 IDIUse=1 WtCom= 1.00D+00 WtEn= 0.00D+00
 Coeff-Com: -0.349D-07 0.571D-07-0.333D-07-0.558D-06 0.436D-05-0.116D-04
 Coeff-Com: -0.181D-04 0.302D-03 0.178D-01-0.493D-01 0.103D+01
 Coeff:     -0.349D-07 0.571D-07-0.333D-07-0.558D-06 0.436D-05-0.116D-04
 Coeff:     -0.181D-04 0.302D-03 0.178D-01-0.493D-01 0.103D+01
 Gap=     0.247 Goal=   None    Shift=    0.000
 RMSDP=9.16D-09 MaxDP=1.56D-07 DE=-6.39D-14 OVMax= 3.19D-07

 SCF Done:  E(ROHF) =  -54.3976095285     A.U. after   11 cycles
            NFock= 11  Conv=0.92D-08     -V/T= 2.0003
 <Sx>= 0.0000 <Sy>= 0.0000 <Sz>= 1.5000 <S**2>= 3.7500 S= 1.5000
 <L.S>= 0.000000000000E+00
 KE= 5.438314086755D+01 PE=-1.283211233263D+02 EE= 1.954037293017D+01
 Annihilation of the first spin contaminant:
 S**2 before annihilation     3.7500,   after     3.7500
 Leave Link  502 at Mon Oct  5 21:27:07 2020, MaxMem=   268435456 cpu:               5.0 elap:               0.7
 (Enter /applis/site/cecic/gaussian16/B.01/nehalem/g16/l801.exe)
 Windowed orbitals will be sorted by symmetry type.
 GenMOA:  NOpAll= 48 NOp2=8 NOpUse= 48 JSym2X=1
 FoFJK:  IHMeth= 1 ICntrl=       0 DoSepK=F KAlg= 0 I1Cent=           0 FoldK=F
 IRaf=         0 NMat=       1 IRICut=       1 DoRegI=T DoRafI=F ISym2E= 1 IDoP0=0 IntGTp=1.
 FoFCou: FMM=F IPFlag=           0 FMFlag=      100000 FMFlg1=           0
         NFxFlg=           0 DoJE=F BraDBF=F KetDBF=F FulRan=T
         wScrn=  0.000000 ICntrl=         0 IOpCl=  1 I1Cent=           0 NGrid=           0
         NMat0=    1 NMatS0=      1 NMatT0=    0 NMatD0=    1 NMtDS0=    0 NMtDT0=    0
 Petite list used in FoFCou.
 <Sx>= 0.0000 <Sy>= 0.0000 <Sz>= 1.5000 <S**2>= 3.7500 S= 1.5000
 ExpMin= 4.91D-02 ExpMax= 1.14D+04 ExpMxC= 3.89D+02 IAcc=3 IRadAn=         5 AccDes= 0.00D+00
 HarFok:  IExCor=  205 AccDes= 0.00D+00 IRadAn=         5 IDoV=-2 UseB2=F ITyADJ=14
 ICtDFT= 12500011 ScaDFX=  1.000000  1.000000  1.000000  1.000000
 Largest valence mixing into a core orbital is  1.57D-04
 Largest core mixing into a valence orbital is  2.02D-05
 Largest valence mixing into a core orbital is  2.54D-04
 Largest core mixing into a valence orbital is  1.17D-04
 Range of M.O.s used for correlation:     2    46
 NBasis=    46 NAE=     5 NBE=     2 NFC=     1 NFV=     0
 NROrb=     45 NOA=     4 NOB=     1 NVA=    41 NVB=    44
 Singles contribution to E2=   -0.2111628797D-02
 Leave Link  801 at Mon Oct  5 21:27:08 2020, MaxMem=   268435456 cpu:               5.1 elap:               0.8
 (Enter /applis/site/cecic/gaussian16/B.01/nehalem/g16/l804.exe)
 Open-shell transformation, MDV=   268435456 ITran=4 ISComp=2.
 Unit  1 TFree=         71197 TCopy=        252061.
 Semi-Direct transformation.
 ModeAB=           2 MOrb=             4 LenV=     268163413
 LASXX=        21445 LTotXX=       21445 LenRXX=       21445
 LTotAB=       23654 MaxLAS=      277200 LenRXY=      277200
 NonZer=      303660 LenScr=      786432 LnRSAI=           0
 LnScr1=           0 LExtra=           0 Total=      1085077
 MaxDsk=          -1 SrtSym=           F ITran=            4
 DoSDTr:  NPSUse=  8
 JobTyp=1 Pass  1:  I=   1 to   4.
 (rs|ai) integrals will be sorted in core.
 Complete sort for first half transformation.
 First half transformation complete.
 Complete sort for second half transformation.
 Second half transformation complete.
 ModeAB=           2 MOrb=             1 LenV=     268163413
 LASXX=         5722 LTotXX=        5722 LenRXX=       69300
 LTotAB=        5217 MaxLAS=       69300 LenRXY=        5217
 NonZer=       75915 LenScr=      720896 LnRSAI=           0
 LnScr1=           0 LExtra=           0 Total=       795413
 MaxDsk=          -1 SrtSym=           F ITran=            4
 DoSDTr:  NPSUse=  8
 JobTyp=2 Pass  1:  I=   1 to   1.
 (rs|ai) integrals will be sorted in core.
 Complete sort for first half transformation.
 First half transformation complete.
 Complete sort for second half transformation.
 Second half transformation complete.
 Spin components of T(2) and E(2):
     alpha-alpha T2 =       0.7311572116D-02 E2=     -0.2987327262D-01
     alpha-beta  T2 =       0.1834928451D-01 E2=     -0.6852281530D-01
     beta-beta   T2 =       0.0000000000D+00 E2=      0.0000000000D+00
 ANorm=    0.1013476816D+01
 E2 =    -0.1005077167D+00 EUMP2 =    -0.54498117245256D+02
 (S**2,0)=  0.37500D+01           (S**2,1)=  0.37500D+01
 E(PUHF)=      -0.54397609529D+02        E(PMP2)=      -0.54498117245D+02
 Leave Link  804 at Mon Oct  5 21:27:08 2020, MaxMem=   268435456 cpu:               3.1 elap:               0.5
 (Enter /applis/site/cecic/gaussian16/B.01/nehalem/g16/l913.exe)
 CIDS:  MDV=   268435456.
 Frozen-core window:  NFC=   1 NFV=   0.
 IFCWin=0 IBDFC=1 NFBD=     0     0 NFCmp=     0     0 NFFFC=     0     0
 Using original routines for 1st iteration.
 Using DD4UQ or CC4UQ for 2nd and later iterations.
 Keep R2 and R3 ints in memory in symmetry-blocked form, NReq=4492022.
 FoFCou: FMM=F IPFlag=           0 FMFlag=           0 FMFlg1=           0
         NFxFlg=           0 DoJE=F BraDBF=F KetDBF=F FulRan=T
         wScrn=  0.000000 ICntrl=       600 IOpCl=  0 I1Cent=           0 NGrid=           0
         NMat0=    1 NMatS0=   1081 NMatT0=    0 NMatD0=    1 NMtDS0=    0 NMtDT0=    0
 Petite list used in FoFCou.
 CIDS: In Core Option IDoMem=           1.
 CCSD(T)
 =======
 Iterations=  50 Convergence= 0.100D-06
 Produce multiple copies of IABC intergrals
 Iteration Nr.   1
 **********************
 DD1Dir will call FoFMem   1 times, MxPair=        14
 NAB=     4 NAA=     6 NBB=     0.
 DD1Dir will call FoFMem   1 times, MxPair=        14
 NAB=     4 NAA=     6 NBB=     0.
 MP4(R+Q)=  0.16615416D-01
 Maximum subspace dimension=  5
 A-vector RMS=  4.0298488D-04 Max=  1.8072466D-03 conv= 1.00D-05.
 RLE energy=       -0.0986040761
 E3=       -0.14701816D-01        EROMP3=      -0.54512819061D+02
 E4(SDQ)=  -0.14019130D-02        ROMP4(SDQ)=  -0.54514220974D+02
 VARIATIONAL ENERGIES WITH THE FIRST-ORDER WAVEFUNCTION:
 DE(Corr)= -0.98565465E-01 E(Corr)=     -54.496174994    
 NORM(A)=   0.10128248D+01
 Iteration Nr.   2
 **********************
 DD1Dir will call FoFMem   1 times, MxPair=        14
 NAB=     4 NAA=     6 NBB=     0.
 A-vector RMS=  2.2826374D-03 Max=  7.1436218D-03 conv= 1.00D-05.
 RLE energy=       -0.1007669891
 DE(Corr)= -0.11297702     E(CORR)=     -54.510586549     Delta=-1.44D-02
 NORM(A)=   0.10135202D+01
 Iteration Nr.   3
 **********************
 DD1Dir will call FoFMem   1 times, MxPair=        14
 NAB=     4 NAA=     6 NBB=     0.
 A-vector RMS=  2.0277834D-03 Max=  6.3933724D-03 conv= 1.00D-05.
 RLE energy=       -0.1112018013
 DE(Corr)= -0.11337375     E(CORR)=     -54.510983277     Delta=-3.97D-04
 NORM(A)=   0.10175120D+01
 Iteration Nr.   4
 **********************
 DD1Dir will call FoFMem   1 times, MxPair=        14
 NAB=     4 NAA=     6 NBB=     0.
 A-vector RMS=  6.5166026D-04 Max=  1.9735728D-03 conv= 1.00D-05.
 RLE energy=       -0.1178714503
 DE(Corr)= -0.11547558     E(CORR)=     -54.513085108     Delta=-2.10D-03
 NORM(A)=   0.10205407D+01
 Iteration Nr.   5
 **********************
 DD1Dir will call FoFMem   1 times, MxPair=        14
 NAB=     4 NAA=     6 NBB=     0.
 A-vector RMS=  2.1345403D-04 Max=  7.2148566D-04 conv= 1.00D-05.
 RLE energy=       -0.1185080069
 DE(Corr)= -0.11682332     E(CORR)=     -54.514432845     Delta=-1.35D-03
 NORM(A)=   0.10208481D+01
 Iteration Nr.   6
 **********************
 DD1Dir will call FoFMem   1 times, MxPair=        14
 NAB=     4 NAA=     6 NBB=     0.
 A-vector RMS=  2.5557690D-04 Max=  8.0980606D-04 conv= 1.00D-05.
 RLE energy=       -0.1165630434
 DE(Corr)= -0.11695105     E(CORR)=     -54.514560580     Delta=-1.28D-04
 NORM(A)=   0.10199383D+01
 Iteration Nr.   7
 **********************
 DD1Dir will call FoFMem   1 times, MxPair=        14
 NAB=     4 NAA=     6 NBB=     0.
 A-vector RMS=  6.8637505D-06 Max=  2.8881076D-05 conv= 1.00D-05.
 RLE energy=       -0.1165807683
 DE(Corr)= -0.11657173     E(CORR)=     -54.514181260     Delta= 3.79D-04
 NORM(A)=   0.10199487D+01
 Iteration Nr.   8
 **********************
 DD1Dir will call FoFMem   1 times, MxPair=        14
 NAB=     4 NAA=     6 NBB=     0.
 A-vector RMS=  1.1718686D-06 Max=  6.0231953D-06 conv= 1.00D-05.
 RLE energy=       -0.1165741663
 DE(Corr)= -0.11657571     E(CORR)=     -54.514185235     Delta=-3.98D-06
 NORM(A)=   0.10199453D+01
 Iteration Nr.   9
 **********************
 DD1Dir will call FoFMem   1 times, MxPair=        14
 NAB=     4 NAA=     6 NBB=     0.
 A-vector RMS=  4.0371616D-07 Max=  1.5231382D-06 conv= 1.00D-05.
 RLE energy=       -0.1165742682
 DE(Corr)= -0.11657427     E(CORR)=     -54.514183794     Delta= 1.44D-06
 NORM(A)=   0.10199453D+01
 Iteration Nr.  10
 **********************
 DD1Dir will call FoFMem   1 times, MxPair=        14
 NAB=     4 NAA=     6 NBB=     0.
 A-vector RMS=  6.4432912D-08 Max=  3.1666724D-07 conv= 1.00D-05.
 RLE energy=       -0.1165742656
 DE(Corr)= -0.11657427     E(CORR)=     -54.514183794     Delta= 1.53D-10
 NORM(A)=   0.10199453D+01
 CI/CC converged in   10 iterations to DelEn= 1.53D-10 Conv= 1.00D-07 ErrA1= 6.44D-08 Conv= 1.00D-05
 Wavefunction amplitudes converged. E(Corr)=     -54.514183794    
 Largest amplitude= 3.05D-02
 Time for triples=      351.91 seconds.
 T4(CCSD)= -0.25993527D-02
 T5(CCSD)= -0.37478883D-05
 CCSD(T)= -0.54516786894D+02
 Discarding MO integrals.
 Leave Link  913 at Mon Oct  5 21:28:01 2020, MaxMem=   268435456 cpu:             362.2 elap:              52.9
 (Enter /applis/site/cecic/gaussian16/B.01/nehalem/g16/l601.exe)
 Copying SCF densities to generalized density rwf, IOpCl= 0 IROHF=1.

 **********************************************************************

            Population analysis using the SCF Density.

 **********************************************************************

 Orbital symmetries:
       Occupied  (A1G) (A1G) (T1U) (T1U) (T1U)
       Virtual   (A1G) (T1U) (T1U) (T1U) (EG) (T2G) (T2G) (T2G)
                 (EG) (T1U) (T1U) (T1U) (A1G) (?A) (?A) (?A) (?A)
                 (A2U) (?A) (?A) (EG) (EG) (T2G) (T2G) (T2G) (T1U)
                 (T1U) (T1U) (?A) (?A) (?A) (?A) (?A) (?A) (A2U)
                 (EG) (EG) (T2G) (T2G) (T2G) (A1G)
 The electronic state is 4-A1G.
 Alpha  occ. eigenvalues --  -15.67431  -1.15187  -0.56755  -0.56755  -0.56755
 Alpha virt. eigenvalues --    0.12058   0.12987   0.12987   0.12987   0.44868
 Alpha virt. eigenvalues --    0.44868   0.44868   0.44868   0.44868   0.72775
 Alpha virt. eigenvalues --    0.72775   0.72775   0.96324   1.47810   1.47810
 Alpha virt. eigenvalues --    1.47810   1.47810   1.47810   1.47810   1.47810
 Alpha virt. eigenvalues --    1.49104   1.49104   1.49104   1.49104   1.49104
 Alpha virt. eigenvalues --    3.27577   3.27577   3.27577   4.82858   4.82858
 Alpha virt. eigenvalues --    4.82858   4.82858   4.82858   4.82858   4.82858
 Alpha virt. eigenvalues --    4.97739   4.97739   4.97739   4.97739   4.97739
 Alpha virt. eigenvalues --    6.28674
          Condensed to atoms (all electrons):
               1
     1  N    7.000000
          Atomic-Atomic Spin Densities.
               1
     1  N    3.000000
 Mulliken charges and spin densities:
               1          2
     1  N   -0.000000   3.000000
 Sum of Mulliken charges =  -0.00000   3.00000
 Mulliken charges and spin densities with hydrogens summed into heavy atoms:
               1          2
     1  N   -0.000000   3.000000
 Electronic spatial extent (au):  <R**2>=             12.1157
 Charge=             -0.0000 electrons
 Dipole moment (field-independent basis, Debye):
    X=              0.0000    Y=              0.0000    Z=              0.0000  Tot=              0.0000
 Quadrupole moment (field-independent basis, Debye-Ang):
   XX=             -5.4320   YY=             -5.4320   ZZ=             -5.4320
   XY=              0.0000   XZ=              0.0000   YZ=              0.0000
 Traceless Quadrupole moment (field-independent basis, Debye-Ang):
   XX=              0.0000   YY=              0.0000   ZZ=              0.0000
   XY=              0.0000   XZ=              0.0000   YZ=              0.0000
 Octapole moment (field-independent basis, Debye-Ang**2):
  XXX=              0.0000  YYY=              0.0000  ZZZ=              0.0000  XYY=              0.0000
  XXY=              0.0000  XXZ=              0.0000  XZZ=              0.0000  YZZ=              0.0000
  YYZ=              0.0000  XYZ=              0.0000
 Hexadecapole moment (field-independent basis, Debye-Ang**3):
 XXXX=             -4.8163 YYYY=             -4.8163 ZZZZ=             -4.8163 XXXY=              0.0000
 XXXZ=              0.0000 YYYX=              0.0000 YYYZ=              0.0000 ZZZX=              0.0000
 ZZZY=              0.0000 XXYY=             -1.6054 XXZZ=             -1.6054 YYZZ=             -1.6054
 XXYZ=              0.0000 YYXZ=              0.0000 ZZXY=              0.0000
 N-N= 0.000000000000D+00 E-N=-1.283211244727D+02  KE= 5.438314086755D+01
 Symmetry AG   KE= 4.876584820102D+01
 Symmetry B1G  KE= 3.797804755391D-61
 Symmetry B2G  KE= 4.086782496484D-61
 Symmetry B3G  KE= 4.371291552110D-61
 Symmetry AU   KE= 3.553578199079D-61
 Symmetry B1U  KE= 1.872430888845D+00
 Symmetry B2U  KE= 1.872430888845D+00
 Symmetry B3U  KE= 1.872430888845D+00
 Symmetry AG   SP=-1.014574494322D-15
 Symmetry B1G  SP=-1.909619508752D-77
 Symmetry B2G  SP=-9.505009606743D-78
 Symmetry B3G  SP=-1.802939045098D-77
 Symmetry AU   SP= 6.787896721835D-62
 Symmetry B1U  SP= 1.000000000000D+00
 Symmetry B2U  SP= 1.000000000000D+00
 Symmetry B3U  SP= 1.000000000000D+00
                          Isotropic Fermi Contact Couplings
        Atom                 a.u.       MegaHertz       Gauss      10(-4) cm-1
     1  N(14)             -0.00000      -0.00000      -0.00000      -0.00000
 --------------------------------------------------------
       Center         ----  Spin Dipole Couplings  ----
                      3XX-RR        3YY-RR        3ZZ-RR
 --------------------------------------------------------
     1   Atom        0.000000     -0.000000      0.000000
 --------------------------------------------------------
                        XY            XZ            YZ
 --------------------------------------------------------
     1   Atom        0.000000      0.000000      0.000000
 --------------------------------------------------------


 ---------------------------------------------------------------------------------
              Anisotropic Spin Dipole Couplings in Principal Axis System
 ---------------------------------------------------------------------------------

       Atom             a.u.   MegaHertz   Gauss  10(-4) cm-1        Axes

              Baa    -0.0000    -0.000    -0.000    -0.000 -0.0000  1.0000  0.0000
     1 N(14)  Bbb     0.0000     0.000     0.000     0.000  1.0000  0.0000  0.0000
              Bcc     0.0000     0.000     0.000     0.000  0.0000  0.0000  1.0000
 

 ---------------------------------------------------------------------------------

 No NMR shielding tensors so no spin-rotation constants.
 Leave Link  601 at Mon Oct  5 21:28:02 2020, MaxMem=   268435456 cpu:               2.3 elap:               0.4
 (Enter /applis/site/cecic/gaussian16/B.01/nehalem/g16/l9999.exe)
 1\1\GINC-DAHU117\SP\ROCCSD(T)-FC\Aug-CC-pVTZ\N1(4)\TINACCIL\05-Oct-202
 0\0\\#P ROCCSD(T)/aug-cc-pvtz\\Title\\0,4\N\\Version=ES64L-G16RevB.01\
 State=4-A1G\HF=-54.3976095\MP2=-54.4981172\MP3=-54.5128191\PUHF=-54.39
 76095\PMP2-0=-54.4981172\MP4SDQ=-54.514221\CCSD=-54.5141838\CCSD(T)=-5
 4.5167869\RMSD=9.157e-09\PG=OH [O(N1)]\\@


 EXPERIENCE IS A WONDERFUL THING.  IT ENABLES
 YOU TO RECOGNIZE A MISTAKE WHEN YOU MAKE IT AGAIN.
           - BACK OF A SUGAR PACKET
 Job cpu time:       0 days  0 hours  6 minutes 27.2 seconds.
 Elapsed time:       0 days  0 hours  0 minutes 57.1 seconds.
 File lengths (MBytes):  RWF=     21 Int=      0 D2E=      0 Chk=      2 Scr=      1
 Normal termination of Gaussian 16 at Mon Oct  5 21:28:02 2020.
