[Molden Format]
[Title]
[Atoms] AU
C      1     6  0.20717780271579E+01 -0.14078026396347E-02 -0.11007821964377E-01
C      2     6  0.19861537267150E-02  0.17680899380308E+01  0.22809851744998E+00
C      3     6 -0.10447579210496E+01  0.23005503601900E+00 -0.17733537948582E+01
C      4     6 -0.10261687189722E+01 -0.22865144753006E+00  0.17843557269244E+01
C      5     6 -0.28375408628110E-02 -0.17680857238801E+01 -0.22809262755180E+00
[GTO]
           1 0
 s           4   1.0000000000000000     
   51.049363095579913      -0.16312063210127389     
   8.7911227406887544      -0.19911024581000730     
  0.70640422258929825       0.31882047753655751     
  0.26922813413411617       0.12706504184240380     
 p           4   1.0000000000000000     
   5.8263656140800002       0.73716451545209605     
   1.5106896018720002       0.68216371614850257     
  0.53256483288000001       0.35783053929253711     
  0.21202323690600003        5.3983030275847881E-002

           2 0
 s           4   1.0000000000000000     
   51.049363095579913      -0.16312063210127389     
   8.7911227406887544      -0.19911024581000730     
  0.70640422258929825       0.31882047753655751     
  0.26922813413411617       0.12706504184240380     
 p           4   1.0000000000000000     
   5.8263656140800002       0.73716451545209605     
   1.5106896018720002       0.68216371614850257     
  0.53256483288000001       0.35783053929253711     
  0.21202323690600003        5.3983030275847881E-002

           3 0
 s           4   1.0000000000000000     
   51.049363095579913      -0.16312063210127389     
   8.7911227406887544      -0.19911024581000730     
  0.70640422258929825       0.31882047753655751     
  0.26922813413411617       0.12706504184240380     
 p           4   1.0000000000000000     
   5.8263656140800002       0.73716451545209605     
   1.5106896018720002       0.68216371614850257     
  0.53256483288000001       0.35783053929253711     
  0.21202323690600003        5.3983030275847881E-002

           4 0
 s           4   1.0000000000000000     
   51.049363095579913      -0.16312063210127389     
   8.7911227406887544      -0.19911024581000730     
  0.70640422258929825       0.31882047753655751     
  0.26922813413411617       0.12706504184240380     
 p           4   1.0000000000000000     
   5.8263656140800002       0.73716451545209605     
   1.5106896018720002       0.68216371614850257     
  0.53256483288000001       0.35783053929253711     
  0.21202323690600003        5.3983030275847881E-002

           5 0
 s           4   1.0000000000000000     
   51.049363095579913      -0.16312063210127389     
   8.7911227406887544      -0.19911024581000730     
  0.70640422258929825       0.31882047753655751     
  0.26922813413411617       0.12706504184240380     
 p           4   1.0000000000000000     
   5.8263656140800002       0.73716451545209605     
   1.5106896018720002       0.68216371614850257     
  0.53256483288000001       0.35783053929253711     
  0.21202323690600003        5.3983030275847881E-002

[MO]
Sym=     1a
Ene=  -0.77690391902241340     
Spin= Alpha
Occup=     2.00000000
           1  0.24910702242400790     
           2 -0.12434898444086796     
           3   8.4219558984355454E-005
           4   6.6066563356173590E-004
           5  0.27612830247779230     
           6  -2.1610341496439874E-004
           7 -0.14757016314993082     
           8  -1.9032082450385616E-002
           9  0.24925051345449320     
          10   6.2744257439055720E-002
          11  -1.3828061999616049E-002
          12  0.10655870560152772     
          13  0.24925058115240142     
          14   6.1627280790120087E-002
          15   1.3743257543263736E-002
          16 -0.10721953520245818     
          17  0.27613000499226970     
          18   1.8647290234076613E-004
          19  0.14757077608937061     
          20   1.9032278708990741E-002
Sym=     2a
Ene=  -0.65637211453104183     
Spin= Alpha
Occup=     2.00000000
           1 -0.51782788750729802     
           2   9.7631973501782904E-003
           3  -6.1060788200389358E-005
           4   3.8578098755334320E-004
           5   2.2774941914417688E-005
           6 -0.31603287822735904     
           7   1.0449889005345665E-004
           8   2.3677677184247743E-003
           9  0.25775388734329641     
          10 -0.14999293775797015     
          11  -1.1716893792468635E-002
          12   9.2384890812907017E-002
          13  0.25969983900162569     
          14 -0.15054876694893490     
          15   1.1898017114079932E-002
          16  -9.0600088843463433E-002
          17   1.8523637255888258E-005
          18 -0.31603608145938394     
          19   1.4940992004171028E-004
          20   2.3507778507611534E-003
Sym=     3a
Ene=  -0.65635887665272208     
Spin= Alpha
Occup=     2.00000000
           1   1.1235132474068509E-003
           2   1.0328544153053211E-003
           3  -2.5800037488137206E-002
           4  0.20166932034438612     
           5   4.1243446356848556E-004
           6   2.3124793731526022E-003
           7  -4.0404773537251873E-002
           8  0.31349161113292928     
           9 -0.44894710986563885     
          10  -9.1681163207262925E-002
          11  -5.2795646540701163E-003
          12   4.3645759995897558E-002
          13  0.44782423819872508     
          14   9.2786823869086307E-002
          15  -5.4575032967888225E-003
          16   4.3062727776831414E-002
          17  -4.1237285474333860E-004
          18   2.3353048096548500E-003
          19  -4.0405190094516895E-002
          20  0.31349457246260437     
Sym=     4a
Ene=  -0.64803167224952940     
Spin= Alpha
Occup=     2.00000000
           1  -1.5912123815686706E-006
           2  -3.5873602174309242E-004
           3 -0.26370487804510084     
           4  -3.3827983262098189E-002
           5 -0.48045054327721765     
           6   4.7055719947629808E-005
           7  -5.3634882551846598E-002
           8  -6.6355425509688881E-003
           9  -3.7681913212815875E-004
          10  -4.3428701044993687E-004
          11 -0.26408838103149390     
          12  -3.4005833270123721E-002
          13   3.7753003870174331E-004
          14  -2.8644440050651251E-004
          15 -0.26408860442557908     
          16  -3.4007031030101359E-002
          17  0.48045042992562698     
          18  -1.9203742048013201E-004
          19  -5.3637142048957698E-002
          20  -6.6345866008855137E-003
Sym=     5a
Ene=  -0.53768133000228124     
Spin= Alpha
Occup=     2.00000000
           1   3.4633078416690496E-006
           2  -1.0409382853897295E-005
           3   3.3547126302255393E-004
           4   4.3182030616905334E-005
           5  -6.8288397384456363E-005
           6  -1.9872026991994158E-003
           7   5.6279847321887774E-002
           8 -0.43695351167292723     
           9  -3.3613781230832621E-005
          10   5.3318979222609299E-004
          11  0.41424819376833505     
          12   5.3489426256550780E-002
          13  -3.7562504600682640E-005
          14  -5.9739536906371331E-004
          15 -0.41458284846558763     
          16  -5.3533804103519468E-002
          17  -6.8565914312836696E-005
          18   1.9620270702005427E-003
          19  -5.6279450537748181E-002
          20  0.43695218557816834     
Sym=     6a
Ene=  -0.53760794855585192     
Spin= Alpha
Occup=     2.00000000
           1   2.0629005873596958E-006
           2   6.5407594674177011E-004
           3  0.47873030016693741     
           4   6.1800971454320897E-002
           5   2.1630644765308847E-004
           6  0.44061310603891468     
           7  -2.2335464369238928E-004
           8  -2.0071705316743703E-003
           9   2.1455121592913598E-005
          10  -3.7261259249929158E-004
          11 -0.23940808834365282     
          12  -3.0868031189472699E-002
          13  -2.3625813039441224E-005
          14  -2.7815698804432338E-004
          15 -0.23882748756812486     
          16  -3.0793887979757916E-002
          17  -2.1667545888714735E-004
          18 -0.44061098363310180     
          19   4.5420213371046513E-004
          20   2.0623005563233966E-003
Sym=     7a
Ene=  -0.49914771254589602     
Spin= Alpha
Occup=     2.00000000
           1 -0.31872538495103064     
           2 -0.23203250669858941     
           3   1.5758984542099322E-004
           4   1.2333302612117067E-003
           5  0.42350739521065783     
           6   6.2794300306042144E-004
           7  0.32789681242995478     
           8   4.2236535469811064E-002
           9 -0.31815662685858004     
          10  0.11704845151476567     
          11  -2.5717143467612225E-002
          12  0.19824270436145228     
          13 -0.31815746620111840     
          14  0.11497116884288558     
          15   2.5559819695739148E-002
          16 -0.19947573663855417     
          17  0.42350529287037747     
          18  -2.6637860494656171E-004
          19 -0.32789770251125483     
          20  -4.2238410177036251E-002
Sym=     8a
Ene=  -0.47814124564721155     
Spin= Alpha
Occup=     2.00000000
           1 -0.29470739320078737     
           2 -0.30574158716033228     
           3   2.0672854691736886E-004
           4   1.6280535883237165E-003
           5 -0.27698521956006417     
           6   9.8158916069791846E-005
           7 -0.37479266855386717     
           8  -4.8259879326130760E-002
           9 -0.29169969590405487     
          10  0.15433294774761747     
          11  -3.3645761320294475E-002
          12  0.25871828487587117     
          13 -0.29170577460965258     
          14  0.15162712377160076     
          15   3.3438549609605808E-002
          16 -0.26034708852141680     
          17 -0.27698323031483207     
          18   1.1202337650590226E-003
          19  0.37479317619487290     
          20   4.8255359322178303E-002
Sym=     9a
Ene=  -0.47510469235136576     
Spin= Alpha
Occup=     2.00000000
           1 -0.45003053640335855     
           2 -0.44310708322723213     
           3   2.9571504887299446E-004
           4   2.3982013585231157E-003
           5   8.7761167380538750E-004
           6  0.11876060832001976     
           7   1.2362340651472161E-003
           8  -4.8226793229410735E-004
           9  0.22720253663814771     
          10  0.23856064987030054     
          11   5.0712654869072220E-002
          12 -0.39528961432159399     
          13  0.22712829721987884     
          14  0.24275304683062715     
          15  -5.1034763952039430E-002
          16  0.39269204934201007     
          17   8.7759274478208188E-004
          18  0.11875652707635879     
          19  -1.4002967041205014E-003
          20  -7.5712733263110844E-004
Sym=    10a
Ene=  -0.47502881177588069     
Spin= Alpha
Occup=     2.00000000
           1   4.5087769450297705E-005
           2   2.4817917659761906E-003
           3  -6.0222108717004438E-002
           4  0.46640060766769131     
           5  -4.3811677687957845E-008
           6   5.7174232021962119E-004
           7  -1.5189914805940572E-002
           8  0.11768909683580499     
           9  0.39063334773411168     
          10 -0.39735190010792115     
          11   2.7915287594021322E-002
          12 -0.21199840035845802     
          13 -0.39067100782139080     
          14  0.39506570954039133     
          15   2.7388120984281322E-002
          16 -0.21627817619082421     
          17   3.4262023953019116E-006
          18   6.3580349975077407E-004
          19  -1.5194656244931286E-002
          20  0.11768694931201035     
Sym=    11a
Ene=  -0.37310718336893078     
Spin= Alpha
Occup=     0.00000000
           1   1.9294875877715414E-007
           2  -3.5117348517690845E-004
           3 -0.25777073178117194     
           4  -3.3175143453121482E-002
           5  0.22372764095325157     
           6   8.4251405610252968E-004
           7  0.64198816920232826     
           8   8.2789246402768829E-002
           9   3.4961210128416249E-006
          10  -3.6125259548146601E-004
          11 -0.25768623266189589     
          12  -3.3181443169717030E-002
          13  -3.1594707721817100E-006
          14  -3.4174234256977807E-004
          15 -0.25768644870207608     
          16  -3.3181277378444951E-002
          17 -0.22372773479504462     
          18   9.0880870177414508E-004
          19  0.64198803093106860     
          20   8.2788863993799366E-002
Sym=    12a
Ene=  -0.32666593840694719     
Spin= Alpha
Occup=     0.00000000
           1  -3.7717145437493068E-005
           2   2.4784629518773186E-003
           3  -7.9665865904948438E-002
           4  0.61766967685580765     
           5  -1.6963027417425315E-005
           6  -1.2298253068630453E-003
           7   4.1475589972808223E-002
           8 -0.32201284697629812     
           9  -2.3019693339390215E-002
          10  -4.0862446051603718E-002
          11  -6.9826110116663620E-002
          12  0.54230709648812281     
          13   2.3057893403123895E-002
          14   4.4811973771513879E-002
          15  -6.9868307860550954E-002
          16  0.54172840211964490     
          17   1.6714310790482508E-005
          18  -1.2034214452198320E-003
          19   4.1475456572901234E-002
          20 -0.32201243644427030     
Sym=    13a
Ene=  -0.32659242815606127     
Spin= Alpha
Occup=     0.00000000
           1  -2.6145317860008056E-002
           2 -0.52176307117068266     
           3   4.6867904635619466E-004
           4   1.8874374342644318E-003
           5  -7.5399574107519541E-005
           6  0.32459229331638489     
           7  -2.5798575928508762E-004
           8  -1.2459094880019940E-003
           9   1.3248028294664354E-002
          10 -0.59684270703934295     
          11  -5.0902172653748802E-003
          12   4.5505785615366778E-002
          13   1.3182205799695952E-002
          14 -0.59742032696241931     
          15   6.1017518153672770E-003
          16  -4.0719910195535884E-002
          17  -7.5355363833214031E-005
          18  0.32459129407222442     
          19  -3.0214722630279438E-004
          20  -1.2782131493948659E-003
Sym=    14a
Ene=  -0.29685683789851375     
Spin= Alpha
Occup=     0.00000000
           1  -8.6928722191482380E-008
           2   3.3557103732041000E-003
           3  -8.2755792213968685E-002
           4  0.64184441942127646     
           5   4.3869466222249197E-009
           6   1.2730936111691939E-006
           7  -5.3685242021261666E-005
           8   4.1658916364657511E-004
           9  -2.1535633973406639E-005
          10  0.55939599237928705     
          11   4.1121748882589272E-002
          12 -0.32487102298269677     
          13   2.1610439026116075E-005
          14 -0.56275533290892132     
          15   4.1883579110949920E-002
          16 -0.31890883834429867     
          17  -5.6055388098471535E-009
          18   5.5774753779741666E-007
          19  -5.3685303650036849E-005
          20   4.1658318156760328E-004
Sym=    15a
Ene=    1.5031616832258831E-002
Spin= Alpha
Occup=     0.00000000
           1  -1.0874551461151381E-005
           2  -1.0951106717527457E-003
           3 -0.81082505599982424     
           4 -0.10462671672562843     
           5   1.9161321581628995E-003
           6  0.69364151382645112     
           7  -2.0595464706404370E-003
           8  -3.3438951287874268E-003
           9   2.3809699021941523E-004
          10   7.2131863454310587E-004
          11  0.40331985155426159     
          12   5.2207522951800318E-002
          13  -2.2740715230897592E-004
          14   3.8417367347283720E-004
          15  0.40279453078760885     
          16   5.2131384275392607E-002
          17  -1.9159627653327846E-003
          18 -0.69362056401919203     
          19  -1.0507266377082652E-003
          20   3.5093949188170861E-003
Sym=    16a
Ene=    1.5563279561832047E-002
Spin= Alpha
Occup=     0.00000000
           1  -2.5229497670583824E-004
           2   2.3456733742892327E-004
           3   3.0488470406513882E-004
           4   3.7705468752467484E-005
           5  -2.7547762426574801E-005
           6   3.6204615138489891E-003
           7  -8.8678349293238937E-002
           8  0.68816131833080607     
           9   1.6499550479074368E-004
          10   1.0054570602870472E-003
          11  0.70089933246353098     
          12   9.0604342161948570E-002
          13   1.4944711906158582E-004
          14  -9.1748213817756310E-004
          15 -0.70120368511689646     
          16  -9.0630618458809195E-002
          17  -2.5820413741115336E-005
          18  -3.0495552545960172E-003
          19   8.8676932245594323E-002
          20 -0.68814601259725983     
Sym=    17a
Ene=   0.10884642095012266     
Spin= Alpha
Occup=     0.00000000
           1 -0.69886868443388328     
           2  0.67103443574776356     
           3  -4.4337744977258816E-004
           4  -3.5769693648702154E-003
           5   6.9044966733447901E-004
           6  0.66465519973074860     
           7  -1.0100167591547472E-003
           8  -3.8317310256007777E-003
           9  0.34889915354404083     
          10  0.10319529973604395     
          11  -4.2298238559230580E-002
          12  0.32426398440607529     
          13  0.34871754871873051     
          14   9.9703385392653776E-002
          15   4.2120340799671543E-002
          16 -0.32520152221014237     
          17   6.8050340003211177E-004
          18  0.66468590588005694     
          19   7.4881359207208225E-005
          20  -3.0339840811587386E-003
Sym=    18a
Ene=   0.10930019738123424     
Spin= Alpha
Occup=     0.00000000
           1   1.0514847492861400E-004
           2  -5.5032698783677003E-004
           3   1.2868950010419877E-002
           4  -8.6234836203687992E-002
           5  -1.8027191288926311E-003
           6   3.0303091280493083E-003
           7  -8.3709101381680681E-002
           8  0.65939015709143056     
           9  0.60527360015021048     
          10  0.33047934009987445     
          11  -6.0565004943309346E-002
          12  0.47533861305672975     
          13 -0.60537805256105393     
          14 -0.32552201688889376     
          15  -6.0111685525576268E-002
          16  0.47892318222848990     
          17   1.8020599156219714E-003
          18   3.6627711282749354E-003
          19  -8.3712866604881725E-002
          20  0.65940812644783320     
Sym=    19a
Ene=   0.14063657089698475     
Spin= Alpha
Occup=     0.00000000
           1  -3.6073921848119319E-006
           2   7.1514357900607671E-004
           3  0.52095687238440114     
           4   6.7426520941971518E-002
           5 -0.71553339633945368     
           6   2.8529714200001494E-003
           7  0.52136649758620079     
           8   6.5497361133471280E-002
           9  -1.6050290868219689E-003
          10  -1.6094331830962151E-004
          11  0.52527806098755148     
          12   6.6469049563122551E-002
          13   1.6141750878927992E-003
          14   1.5837640688580773E-003
          15  0.52527855655783429     
          16   6.6451448419898654E-002
          17  0.71552837092286892     
          18  -1.4390027671066391E-003
          19  0.52136099073528042     
          20   6.5519277066233644E-002
Sym=    20a
Ene=   0.55072122328735607     
Spin= Alpha
Occup=     0.00000000
           1 -0.48084604587349983     
           2  0.53333063981738360     
           3  -3.5916621801805284E-004
           4  -2.8335519650329304E-003
           5  0.71626029879696140     
           6  -1.6705328358972622E-003
           7 -0.64612368096311068     
           8  -8.3240954461197794E-002
           9 -0.48286445845156134     
          10 -0.26979543247016352     
          11   5.9545706081688292E-002
          12 -0.45814217968986115     
          13 -0.48286530552139573     
          14 -0.26499367830617221     
          15  -5.9177986998800336E-002
          16  0.46098443741105610     
          17  0.71627118376197108     
          18   9.1706515786312050E-005
          19  0.64613135863234794     
          20   8.3250550028067527E-002
