      -----------------------------------------------------------      
     |                   =====================                   |     
     |                           x T B                           |     
     |                   =====================                   |     
     |                         S. Grimme                         |     
     |          Mulliken Center for Theoretical Chemistry        |     
     |                    University of Bonn                     |     
      -----------------------------------------------------------      

   * xtb version 6.2.2 (9d81278992624c895f80dd42a50cac0aa55982e2) compiled by '@Darwin' on 04/03/2020

   xtb is free software: you can redistribute it and/or modify it under
   the terms of the GNU Lesser General Public License as published by
   the Free Software Foundation, either version 3 of the License, or
   (at your option) any later version.
   
   xtb is distributed in the hope that it will be useful,
   but WITHOUT ANY WARRANTY; without even the implied warranty of
   MERCHANTABILITY or FITNESS FOR A PARTICULAR PURPOSE.  See the
   GNU Lesser General Public License for more details.
   
   Cite this work as:
   * S. Grimme, C. Bannwarth, P. Shushkov, J. Chem. Theory Comput., 2017,
     13, 1989-2009. DOI: 10.1021/acs.jctc.7b00118
   * C. Bannwarth, S. Ehlert and S. Grimme., J. Chem. Theory Comput., 2019,
     15, 1652-1671. DOI: 10.1021/acs.jctc.8b01176
   * P. Pracht, E. Caldeweyher, S. Ehlert, S. Grimme, ChemRxiv, 2019, preprint.
     DOI: 10.26434/chemrxiv.8326202.v1
   
   for DFT-D4:
   * E. Caldeweyher, C. Bannwarth and S. Grimme, J. Chem. Phys., 2017,
     147, 034112. DOI: 10.1063/1.4993215
   * E. Caldeweyher, S. Ehlert, A. Hansen, H. Neugebauer, S. Spicher,
     C. Bannwarth and S. Grimme, J. Chem. Phys., 2019, 150, 154122.
     DOI: 10.1063/1.5090222
   
   for sTDA-xTB:
   * S. Grimme and C. Bannwarth, J. Chem. Phys., 2016, 145, 054103.
     DOI: 10.1063/1.4959605
   
   in the mass-spec context:
   * V. Asgeirsson, C. Bauer and S. Grimme, Chem. Sci., 2017, 8, 4879.
     DOI: 10.1039/c7sc00601b
   
   for metadynamics refer to:
   * S. Grimme, J. Chem. Theory Comput., 2019, 155, 2847-2862
     DOI: 10.1021/acs.jctc.9b00143
   
   with help from (in alphabetical order)
   C. Bannwarth, F. Bohle, G. Brandenburg, E. Caldeweyher, M. Checinski,
   S. Dohm, S. Ehlert, S. Ehrlich, F. März, H. Neugebauer, J. Pisarek,
   P. Pracht, P. Shushkov, and S. Spicher.
   
 * started run on 2020/05/12 at 11:44:39.224     

           -------------------------------------------------
          |                Calculation Setup                |
           -------------------------------------------------

          program call               : xtb --input C5_18_S_0.input C5_18_S_0.xyz --ohess --molden --namespace C5_18_S_0 output.out
          calculation namespace      : C5_18_S_0
          coordinate file            : C5_18_S_0.xyz
          number of atoms            :                     5
          number of electrons        :                    20
          charge                     :                     0
          spin                       :                   0.0
          first test random number   :      0.36529280075012

   ID    Z sym.   atoms
    1    6 C      1-5

           -------------------------------------------------
          |                 G F N 2 - x T B                 |
           -------------------------------------------------

        Reference                      10.1021/acs.jctc.8b01176
      * Hamiltonian:
        H0-scaling (s, p, d)           1.850000    2.230000    2.230000
        zeta-weighting                 0.500000
      * Dispersion:
        s8                             2.700000
        a1                             0.520000
        a2                             5.000000
        s9                             5.000000
      * Repulsion:
        kExp                           1.500000    1.000000
        rExp                           1.000000
      * Coulomb:
        alpha                          2.000000
        third order                    shell-resolved
        anisotropic                    true
        a3                             3.000000
        a5                             4.000000
        cn-shift                       1.200000
        cn-exp                         4.000000
        max-rad                        5.000000


          ...................................................
          :                      SETUP                      :
          :.................................................:
          :  # basis functions                  20          :
          :  # atomic orbitals                  20          :
          :  # shells                           10          :
          :  # electrons                        20          :
          :  max. iterations                   250          :
          :  Hamiltonian                  GFN2-xTB          :
          :  restarted?                      false          :
          :  GBSA solvation                  false          :
          :  PC potential                    false          :
          :  electronic temp.          300.0000000     K    :
          :  accuracy                    1.0000000          :
          :  -> integral cutoff          0.2500000E+02      :
          :  -> integral neglect         0.1000000E-07      :
          :  -> SCF convergence          0.1000000E-05 Eh   :
          :  -> wf. convergence          0.1000000E-03 e    :
          :  Broyden damping             0.4000000          :
          ...................................................

 iter      E             dE          RMSdq      gap      omega  full diag
   1     -9.8524306 -0.985243E+01  0.108E+01    0.15       0.0  T
   2     -8.0961085  0.175632E+01  0.154E+01    0.93       1.0  T
   3     -9.7235075 -0.162740E+01  0.106E+01    0.21       1.0  T
   4     -9.5914767  0.132031E+00  0.863E+00    0.30       1.0  T
   5     -9.7540519 -0.162575E+00  0.715E+00    0.34       1.0  T
   6     -9.9927966 -0.238745E+00  0.556E+00    0.14       1.0  T
   7     -9.9916617  0.113493E-02  0.547E+00    0.13       1.0  T
   8     -9.9951985 -0.353680E-02  0.544E+00    0.13       1.0  T
   9    -10.0125518 -0.173533E-01  0.526E+00    0.13       1.0  T
  10     -9.8902243  0.122327E+00  0.930E+00    0.24       1.0  T
  11    -10.0331812 -0.142957E+00  0.683E+00    0.11       1.0  T
  12    -10.0294153  0.376595E-02  0.706E+00    0.12       1.0  T
  13    -10.1951295 -0.165714E+00  0.330E+00    0.06       1.0  T
  14    -10.1852716  0.985786E-02  0.374E+00    0.07       1.0  T
  15    -10.1471680  0.381036E-01  0.478E+00    0.08       1.0  T
  16    -10.1330822  0.140858E-01  0.518E+00    0.09       1.0  T
  17    -10.2223447 -0.892625E-01  0.346E+00    0.10       1.0  T
  18    -10.2271299 -0.478523E-02  0.287E+00    0.08       1.0  T
  19    -10.2401031 -0.129732E-01  0.212E+00    0.08       1.0  T
  20    -10.2400792  0.238675E-04  0.195E+00    0.08       1.0  T
  21    -10.2407265 -0.647335E-03  0.131E+00    0.07       1.0  T
  22    -10.2410771 -0.350537E-03  0.897E-01    0.07       1.0  T
  23    -10.2415030 -0.425947E-03  0.550E-01    0.07       1.0  T
  24    -10.2417967 -0.293695E-03  0.122E-01    0.06       1.0  T
  25    -10.2416310  0.165673E-03  0.246E-01    0.07       1.0  T
  26    -10.2418035 -0.172416E-03  0.104E-01    0.06       1.0  T
  27    -10.2418203 -0.168043E-04  0.423E-02    0.06       1.1  T
  28    -10.2418212 -0.907573E-06  0.198E-02    0.06       2.3  T
  29    -10.2418209  0.295469E-06  0.186E-02    0.06       2.4  T
  30    -10.2418222 -0.134145E-05  0.880E-03    0.06       5.1  T
  31    -10.2418223 -0.123131E-06  0.445E-03    0.06      10.0  T
  32    -10.2418223 -0.114841E-07  0.294E-03    0.06      15.2  T
  33    -10.2418224 -0.376744E-07  0.120E-03    0.06      37.3  T
  34    -10.2418224 -0.672297E-08  0.298E-04    0.06     150.0  T
  35    -10.2418224 -0.734310E-10  0.889E-05    0.06     502.9  T

   *** convergence criteria satisfied after 35 iterations ***

         #    Occupation            Energy/Eh            Energy/eV
      -------------------------------------------------------------
         1        2.0000           -0.7598419             -20.6763
       ...           ...                  ...                  ...
         4        2.0000           -0.6115002             -16.6398
         5        2.0000           -0.5400398             -14.6952
         6        2.0000           -0.5304006             -14.4329
         7        2.0000           -0.4733411             -12.8803
         8        1.9990           -0.4549307             -12.3793
         9        1.9937           -0.4532125             -12.3325
        10        1.5443           -0.4488977             -12.2151 (HOMO)
        11        0.4630           -0.4465982             -12.1526 (LUMO)
        12                         -0.3706495             -10.0859
        13                         -0.3048468              -8.2953
        14                         -0.1331970              -3.6245
        15                         -0.1176855              -3.2024
       ...                                ...                  ...
        20                          0.2063918               5.6162
      -------------------------------------------------------------
                  HL-Gap            0.0022995 Eh            0.0626 eV
             Fermi-level           -0.4477381 Eh          -12.1836 eV

 SCC (total)                   0 d,  0 h,  0 min,  0.008 sec
 SCC setup                      ...        0 min,  0.000 sec (  1.008%)
 Dispersion                     ...        0 min,  0.000 sec (  0.277%)
 integral evaluation            ...        0 min,  0.001 sec ( 18.423%)
 zeroth order Hamiltonian       ...        0 min,  0.000 sec (  0.264%)
 iterations                     ...        0 min,  0.004 sec ( 56.894%)
 molecular gradient             ...        0 min,  0.002 sec ( 20.763%)
 printout                       ...        0 min,  0.000 sec (  2.261%)

         :::::::::::::::::::::::::::::::::::::::::::::::::::::
         ::                     SUMMARY                     ::
         :::::::::::::::::::::::::::::::::::::::::::::::::::::
         :: total energy             -10.122253613189 Eh    ::
         :: gradient norm              0.137425739118 Eh/a0 ::
         :: HOMO-LUMO gap              0.062571497917 eV    ::
         ::.................................................::
         :: SCC energy               -10.241822391888 Eh    ::
         :: -> isotropic ES           -0.013079635084 Eh    ::
         :: -> anisotropic ES          0.002993704744 Eh    ::
         :: -> anisotropic XC          0.003075224108 Eh    ::
         :: -> dispersion             -0.002563348125 Eh    ::
         :: repulsion energy           0.119568755534 Eh    ::
         :: add. restraining           0.000000000000 Eh    ::
         :::::::::::::::::::::::::::::::::::::::::::::::::::::

      ----------------------------------------------------------- 
     |                   =====================                   |
     |                        A N C O P T                        |
     |                   =====================                   |
     |               Approximate Normal Coordinate               |
     |                Rational Function Optimizer                |
      ----------------------------------------------------------- 

          ...................................................
          :                      SETUP                      :
          :.................................................:
          :   optimization level            normal          :
          :   max. optcycles                   200          :
          :   ANC micro-cycles                  20          :
          :   degrees of freedom                 9          :
          :.................................................:
          :   RF solver                   davidson          :
          :   write xtbopt.log                true          :
          :   linear?                        false          :
          :   energy convergence         0.5000000E-05 Eh   :
          :   grad. convergence          0.1000000E-02 Eh/α :
          :   maximium RF displ.         1.0000000          :
          :   Hlow (freq-cutoff)         0.1000000E-01      :
          :   Hmax (freq-cutoff)         5.0000000          :
          :   S6 in model hess.         20.0000000          :
          ...................................................

generating ANC from model Hessian ...
Using Lindh-Hessian (1995)
 Shifting diagonal of input Hessian by    0.0000000000000000     
 Lowest  eigenvalues of input Hessian
   -0.000000   -0.000000   -0.000000    0.000000    0.000000    0.000000
    0.097985    0.435560    0.569493    0.685785    0.880873    0.964126
    1.090030    1.305244    1.667527
 Highest eigenvalues
    0.685785    0.880873    0.964126    1.090030    1.305244    1.667527


........................................................................
.............................. CYCLE    1 ..............................
........................................................................
   1    -10.2418224 -0.102418E+02  0.502E-05    0.06       0.0  T
   2    -10.2418224  0.169133E-08  0.515E-04    0.06      86.9  T
   3    -10.2418224 -0.169570E-08  0.381E-05    0.06    1172.6  T
     SCC iter.                  ...        0 min,  0.001 sec
     gradient                   ...        0 min,  0.002 sec
 * total energy  :   -10.1222536 Eh     change       -0.1692566E-09 Eh
   gradient norm :     0.1374258 Eh/α   predicted     0.0000000E+00 (-100.00%)
   displ. norm   :     0.1778276 α      lambda       -0.2260627E-01
   maximum displ.:     0.1248599 α      in ANC's #2, #5, #9, ...

........................................................................
.............................. CYCLE    2 ..............................
........................................................................
   1    -10.2136151 -0.102136E+02  0.410E+00    0.12       0.0  T
   2     -9.4388016  0.774813E+00  0.990E+00    0.46       1.0  T
   3    -10.1557149 -0.716913E+00  0.471E+00    0.07       1.0  T
   4    -10.1318732  0.238416E-01  0.452E+00    0.29       1.0  T
   5    -10.2615414 -0.129668E+00  0.190E+00    0.12       1.0  T
   6    -10.2524789  0.906250E-02  0.185E+00    0.11       1.0  T
   7    -10.2467984  0.568050E-02  0.193E+00    0.14       1.0  T
   8    -10.2495703 -0.277197E-02  0.181E+00    0.14       1.0  T
   9    -10.2638008 -0.142304E-01  0.106E+00    0.13       1.0  T
  10    -10.2634519  0.348923E-03  0.109E+00    0.13       1.0  T
  11    -10.2703720 -0.692012E-02  0.361E-01    0.11       1.0  T
  12    -10.2710486 -0.676664E-03  0.121E-01    0.11       1.0  T
  13    -10.2710419  0.677508E-05  0.109E-01    0.11       1.0  T
  14    -10.2710079  0.339946E-04  0.124E-01    0.11       1.0  T
  15    -10.2710214 -0.135010E-04  0.104E-01    0.11       1.0  T
  16    -10.2710675 -0.461139E-04  0.535E-02    0.11       1.0  T
  17    -10.2710744 -0.688764E-05  0.401E-02    0.11       1.1  T
  18    -10.2710813 -0.688107E-05  0.196E-02    0.11       2.3  T
  19    -10.2710834 -0.215092E-05  0.531E-03    0.11       8.4  T
  20    -10.2710836 -0.161358E-06  0.689E-04    0.11      64.9  T
  21    -10.2710836 -0.249376E-08  0.134E-04    0.11     334.4  T
     SCC iter.                  ...        0 min,  0.002 sec
     gradient                   ...        0 min,  0.001 sec
 * total energy  :   -10.1431725 Eh     change       -0.2091889E-01 Eh
   gradient norm :     0.1109553 Eh/α   predicted    -0.1166057E-01 ( -44.26%)
   displ. norm   :     0.8285284 α      lambda       -0.8990680E-01
   maximum displ.:     0.6854249 α      in ANC's #2, #5, #9, ...

........................................................................
.............................. CYCLE    3 ..............................
........................................................................
   1    -10.2960920 -0.102961E+02  0.681E+00    1.88       0.0  T
   2     -9.4194983  0.876594E+00  0.105E+01    0.00       1.0  T
   3    -10.2920770 -0.872579E+00  0.461E+00    1.90       1.0  T
   4    -10.3838348 -0.917579E-01  0.172E+00    1.27       1.0  T
   5    -10.3850551 -0.122031E-02  0.153E+00    1.28       1.0  T
   6    -10.3849136  0.141502E-03  0.154E+00    1.28       1.0  T
   7    -10.3927377 -0.782407E-02  0.226E-01    1.12       1.0  T
   8    -10.3928728 -0.135131E-03  0.354E-02    1.10       1.3  T
   9    -10.3928641  0.872170E-05  0.470E-02    1.10       1.0  T
  10    -10.3928790 -0.149213E-04  0.125E-02    1.10       3.6  T
  11    -10.3928796 -0.557563E-06  0.240E-03    1.10      18.6  T
  12    -10.3928796 -0.190382E-07  0.785E-04    1.10      57.0  T
  13    -10.3928796 -0.182806E-08  0.104E-04    1.10     431.6  T
     SCC iter.                  ...        0 min,  0.001 sec
     gradient                   ...        0 min,  0.002 sec
 * total energy  :   -10.1916806 Eh     change       -0.4850806E-01 Eh
   gradient norm :     0.1939998 Eh/α   predicted    -0.7581206E-01 (  56.29%)
   displ. norm   :     0.1073730 α      lambda       -0.1977861E-01
   maximum displ.:     0.0587396 α      in ANC's #8, #5, #2, ...

........................................................................
.............................. CYCLE    4 ..............................
........................................................................
   1    -10.3715674 -0.103716E+02  0.928E-01    1.06       0.0  T
   2    -10.3671112  0.445625E-02  0.101E+00    1.16       1.0  T
   3    -10.3714824 -0.437120E-02  0.547E-01    1.02       1.0  T
   4    -10.3726545 -0.117215E-02  0.123E-01    1.12       1.0  T
   5    -10.3727357 -0.811474E-04  0.264E-02    1.08       1.7  T
   6    -10.3727367 -0.987735E-06  0.395E-03    1.09      11.3  T
   7    -10.3727367 -0.818308E-08  0.251E-03    1.09      17.9  T
   8    -10.3727367 -0.204292E-07  0.177E-03    1.09      25.3  T
   9    -10.3727367 -0.139790E-07  0.111E-04    1.09     401.5  T
  10    -10.3727367  0.161755E-10  0.624E-05    1.09     717.0  T
     SCC iter.                  ...        0 min,  0.001 sec
     gradient                   ...        0 min,  0.002 sec
 * total energy  :   -10.2066816 Eh     change       -0.1500107E-01 Eh
   gradient norm :     0.1134051 Eh/α   predicted    -0.1000332E-01 ( -33.32%)
   displ. norm   :     0.1679847 α      lambda       -0.1706712E-01
   maximum displ.:     0.1217636 α      in ANC's #2, #5, #8, ...

........................................................................
.............................. CYCLE    5 ..............................
........................................................................
   1    -10.3559557 -0.103560E+02  0.156E+00    1.12       0.0  T
   2    -10.3478092  0.814658E-02  0.148E+00    1.21       1.0  T
   3    -10.3516261 -0.381699E-02  0.108E+00    1.00       1.0  T
   4    -10.3578951 -0.626893E-02  0.227E-01    1.20       1.0  T
   5    -10.3581951 -0.299975E-03  0.356E-02    1.13       1.3  T
   6    -10.3581962 -0.112608E-05  0.586E-03    1.13       7.6  T
   7    -10.3581962 -0.469213E-08  0.335E-03    1.13      13.3  T
   8    -10.3581961  0.395690E-07  0.366E-03    1.13      12.2  T
   9    -10.3581962 -0.803433E-07  0.317E-04    1.13     141.1  T
  10    -10.3581962 -0.346843E-09  0.180E-04    1.13     248.6  T
     SCC iter.                  ...        0 min,  0.001 sec
     gradient                   ...        0 min,  0.001 sec
 * total energy  :   -10.2186585 Eh     change       -0.1197685E-01 Eh
   gradient norm :     0.0796968 Eh/α   predicted    -0.8774363E-02 ( -26.74%)
   displ. norm   :     0.1828474 α      lambda       -0.1226480E-01
   maximum displ.:     0.1694219 α      in ANC's #5, #2, #8, ...

........................................................................
.............................. CYCLE    6 ..............................
........................................................................
   1    -10.3461305 -0.103461E+02  0.186E+00    1.48       0.0  T
   2    -10.3174726  0.286579E-01  0.237E+00    1.86       1.0  T
   3    -10.3488435 -0.313710E-01  0.987E-01    1.55       1.0  T
   4    -10.3514920 -0.264845E-02  0.984E-02    1.60       1.0  T
   5    -10.3515243 -0.323494E-04  0.428E-02    1.63       1.0  T
   6    -10.3515244 -0.101718E-06  0.790E-03    1.62       5.7  T
   7    -10.3515245 -0.976711E-07  0.271E-03    1.62      16.5  T
   8    -10.3515245  0.262633E-07  0.270E-03    1.62      16.6  T
   9    -10.3515246 -0.455012E-07  0.922E-04    1.62      48.5  T
  10    -10.3515246 -0.623505E-08  0.158E-04    1.62     283.4  T
     SCC iter.                  ...        0 min,  0.001 sec
     gradient                   ...        0 min,  0.001 sec
 * total energy  :   -10.2282419 Eh     change       -0.9583411E-02 Eh
   gradient norm :     0.0839600 Eh/α   predicted    -0.6337417E-02 ( -33.87%)
   displ. norm   :     0.3359433 α      lambda       -0.1753179E-01
   maximum displ.:     0.2574459 α      in ANC's #5, #2, #9, ...

........................................................................
.............................. CYCLE    7 ..............................
........................................................................
   1    -10.3502118 -0.103502E+02  0.280E+00    2.10       0.0  T
   2    -10.3101978  0.400140E-01  0.309E+00    2.35       1.0  T
   3    -10.3515257 -0.413279E-01  0.152E+00    2.15       1.0  T
   4    -10.3597429 -0.821727E-02  0.109E-01    2.24       1.0  T
   5    -10.3597594 -0.164482E-04  0.658E-02    2.26       1.0  T
   6    -10.3597593  0.113059E-06  0.167E-02    2.26       2.7  T
   7    -10.3597601 -0.882882E-06  0.363E-03    2.26      12.3  T
   8    -10.3597601  0.680612E-08  0.102E-03    2.26      43.7  T
   9    -10.3597601 -0.716511E-08  0.315E-04    2.26     142.2  T
  10    -10.3597601 -0.305310E-09  0.164E-04    2.26     272.4  T
     SCC iter.                  ...        0 min,  0.001 sec
     gradient                   ...        0 min,  0.001 sec
 * total energy  :   -10.2409035 Eh     change       -0.1266157E-01 Eh
   gradient norm :     0.0776382 Eh/α   predicted    -0.9755198E-02 ( -22.95%)
   displ. norm   :     0.2481018 α      lambda       -0.8614092E-02
   maximum displ.:     0.1951438 α      in ANC's #5, #2, #9, ...

........................................................................
.............................. CYCLE    8 ..............................
........................................................................
   1    -10.3680908 -0.103681E+02  0.176E+00    2.73       0.0  T
   2    -10.3563152  0.117756E-01  0.185E+00    2.76       1.0  T
   3    -10.3692713 -0.129561E-01  0.911E-01    2.81       1.0  T
   4    -10.3718248 -0.255355E-02  0.186E-01    2.80       1.0  T
   5    -10.3719966 -0.171774E-03  0.400E-02    2.84       1.1  T
   6    -10.3719987 -0.207638E-05  0.870E-03    2.84       5.1  T
   7    -10.3719990 -0.292174E-06  0.243E-03    2.84      18.4  T
   8    -10.3719989  0.648611E-07  0.307E-03    2.84      14.6  T
   9    -10.3719990 -0.723856E-07  0.272E-04    2.84     164.7  T
  10    -10.3719990  0.177041E-09  0.263E-04    2.84     170.4  T
     SCC iter.                  ...        0 min,  0.001 sec
     gradient                   ...        0 min,  0.001 sec
 * total energy  :   -10.2457364 Eh     change       -0.4832902E-02 Eh
   gradient norm :     0.0506506 Eh/α   predicted    -0.4572171E-02 (  -5.39%)
   displ. norm   :     0.0693342 α      lambda       -0.2254548E-02
   maximum displ.:     0.0612419 α      in ANC's #2, #9, #5, ...

........................................................................
.............................. CYCLE    9 ..............................
........................................................................
   1    -10.3836439 -0.103836E+02  0.447E-01    2.80       0.0  T
   2    -10.3836207  0.232602E-04  0.303E-01    2.71       1.0  T
   3    -10.3833069  0.313743E-03  0.302E-01    2.76       1.0  T
   4    -10.3837321 -0.425172E-03  0.121E-01    2.75       1.0  T
   5    -10.3838255 -0.933655E-04  0.149E-02    2.74       3.0  T
   6    -10.3838259 -0.396916E-06  0.145E-03    2.74      30.8  T
   7    -10.3838258  0.155323E-07  0.168E-03    2.74      26.5  T
   8    -10.3838259 -0.192902E-07  0.450E-04    2.74      99.3  T
   9    -10.3838259 -0.324315E-09  0.766E-05    2.74     583.6  T
     SCC iter.                  ...        0 min,  0.001 sec
     gradient                   ...        0 min,  0.001 sec
 * total energy  :   -10.2471573 Eh     change       -0.1420967E-02 Eh
   gradient norm :     0.0229715 Eh/α   predicted    -0.1132692E-02 ( -20.29%)
   displ. norm   :     0.0369792 α      lambda       -0.7373741E-03
   maximum displ.:     0.0250608 α      in ANC's #9, #2, #8, ...

........................................................................
.............................. CYCLE   10 ..............................
........................................................................
   1    -10.3930366 -0.103930E+02  0.214E-01    2.85       0.0  T
   2    -10.3930107  0.259199E-04  0.140E-01    2.85       1.0  T
   3    -10.3928066  0.204059E-03  0.188E-01    2.85       1.0  T
   4    -10.3930480 -0.241432E-03  0.111E-02    2.85       4.0  T
   5    -10.3930482 -0.154558E-06  0.750E-03    2.85       6.0  T
   6    -10.3930483 -0.115667E-06  0.707E-04    2.85      63.3  T
   7    -10.3930483  0.185935E-08  0.713E-04    2.85      62.7  T
     SCC iter.                  ...        0 min,  0.001 sec
     gradient                   ...        0 min,  0.001 sec
 * total energy  :   -10.2474799 Eh     change       -0.3225175E-03 Eh
   gradient norm :     0.0050282 Eh/α   predicted    -0.3691899E-03 (  14.47%)
   displ. norm   :     0.0096963 α      lambda       -0.3525714E-04
   maximum displ.:     0.0075290 α      in ANC's #5, #9, #8, ...

........................................................................
.............................. CYCLE   11 ..............................
........................................................................
   1    -10.3920469 -0.103920E+02  0.765E-02    2.81       0.0  T
   2    -10.3920471 -0.157551E-06  0.510E-02    2.80       1.0  T
   3    -10.3920359  0.112206E-04  0.477E-02    2.80       1.0  T
   4    -10.3920476 -0.117059E-04  0.223E-02    2.81       2.0  T
   5    -10.3920508 -0.327413E-05  0.147E-03    2.80      30.4  T
   6    -10.3920508  0.206634E-08  0.707E-04    2.80      63.3  T
   7    -10.3920508 -0.336808E-08  0.192E-04    2.80     232.8  T
     SCC iter.                  ...        0 min,  0.001 sec
     gradient                   ...        0 min,  0.001 sec
 * total energy  :   -10.2475013 Eh     change       -0.2145718E-04 Eh
   gradient norm :     0.0029813 Eh/α   predicted    -0.1763036E-04 ( -17.83%)
   displ. norm   :     0.0042093 α      lambda       -0.9985162E-05
   maximum displ.:     0.0032281 α      in ANC's #8, #5, #2, ...

........................................................................
.............................. CYCLE   12 ..............................
........................................................................
   1    -10.3917627 -0.103918E+02  0.328E-02    2.79       0.0  T
   2    -10.3917628 -0.155226E-06  0.220E-02    2.79       2.0  T
   3    -10.3917610  0.178646E-05  0.186E-02    2.79       2.4  T
   4    -10.3917626 -0.154833E-05  0.112E-02    2.79       4.0  T
   5    -10.3917634 -0.810719E-06  0.105E-03    2.79      42.8  T
   6    -10.3917634  0.706113E-08  0.115E-03    2.79      39.0  T
   7    -10.3917634 -0.931104E-08  0.578E-05    2.79     774.0  T
   8    -10.3917634 -0.238209E-11  0.274E-05    2.79    1631.6  T
     SCC iter.                  ...        0 min,  0.001 sec
     gradient                   ...        0 min,  0.001 sec
 * total energy  :   -10.2475085 Eh     change       -0.7149007E-05 Eh
   gradient norm :     0.0016648 Eh/α   predicted    -0.4993110E-05 ( -30.16%)
   displ. norm   :     0.0055872 α      lambda       -0.5121535E-05
   maximum displ.:     0.0039364 α      in ANC's #8, #9, #2, ...

........................................................................
.............................. CYCLE   13 ..............................
........................................................................
   1    -10.3918694 -0.103919E+02  0.421E-02    2.78       0.0  T
   2    -10.3918671  0.224370E-05  0.377E-02    2.77       1.2  T
   3    -10.3918687 -0.157359E-05  0.227E-02    2.77       2.0  T
   4    -10.3918706 -0.191298E-05  0.115E-02    2.78       3.9  T
   5    -10.3918713 -0.677813E-06  0.163E-03    2.77      27.4  T
   6    -10.3918713 -0.137858E-08  0.682E-04    2.77      65.5  T
   7    -10.3918713 -0.326448E-08  0.139E-04    2.77     321.5  T
     SCC iter.                  ...        0 min,  0.001 sec
     gradient                   ...        0 min,  0.001 sec
 * total energy  :   -10.2475109 Eh     change       -0.2436900E-05 Eh
   gradient norm :     0.0005880 Eh/α   predicted    -0.2559504E-05 (   5.03%)
   displ. norm   :     0.0017377 α      lambda       -0.5720399E-06
   maximum displ.:     0.0012499 α      in ANC's #8, #5, #2, ...

   *** GEOMETRY OPTIMIZATION CONVERGED AFTER 13 ITERATIONS ***

------------------------------------------------------------------------
 total energy gain   :        -0.1252573 Eh      -78.6001 kcal/mol
 total RMSD          :         0.6394510 a0        0.3384 Å
 total power (kW/mol):       -25.2971518 (step)-6197.9388 (real)
------------------------------------------------------------------------

 ANCopt (total)                0 d,  0 h,  0 min,  0.053 sec
 optimizer setup                ...        0 min,  0.000 sec (  0.177%)
 model hessian                  ...        0 min,  0.000 sec (  0.170%)
 ANC generation                 ...        0 min,  0.000 sec (  0.104%)
 coordinate transformation      ...        0 min,  0.000 sec (  0.052%)
 single point calculation       ...        0 min,  0.052 sec ( 97.618%)
 optimization log               ...        0 min,  0.000 sec (  0.614%)
 hessian update                 ...        0 min,  0.000 sec (  0.056%)
 rational function              ...        0 min,  0.000 sec (  0.545%)

================
 final structure:
================
5
 xtb: 6.2.2 (9d81278992624c895f80dd42a50cac0aa55982e2)
C         1.09633784395199   -0.00073922657203   -0.00582126341490
C         0.00104570708579    0.93563278366041    0.12070618511263
C        -0.55285949574346    0.12173863668115   -0.93842021955052
C        -0.54302781347411   -0.12100163777740    0.94423836773402
C        -0.00149624182021   -0.93563055599213   -0.12070306988123

 Bond Distances (Angstroems)
 ---------------------------
C1-C2=1.4465         C1-C3=1.8986         C1-C4=1.8986         C1-C5=1.4465         C2-C1=1.4465         C2-C3=1.4460         
C2-C4=1.4459         C2-C5=1.8868         C3-C1=1.8986         C3-C2=1.4460         C3-C4=1.8983         C3-C5=1.4459         
C4-C1=1.8986         C4-C2=1.4459         C4-C3=1.8983         C4-C5=1.4460         C5-C1=1.4465         C5-C2=1.8868         
C5-C3=1.4459         C5-C4=1.4460         
 C  C  Rav=1.6259 sigma=0.2202  Rmin=1.4459  Rmax=1.8986    10

 selected bond angles (degree)
 --------------------
C3-C1-C2= 48.97                C4-C1-C2= 48.96                C4-C1-C3= 59.99                C5-C1-C2= 81.41                
C5-C1-C3= 48.96                C5-C1-C4= 48.96                C3-C2-C1= 82.05                C4-C2-C1= 82.05                
C4-C2-C3= 82.05                C5-C2-C1= 49.29                C5-C2-C3= 49.27                C5-C2-C4= 49.28                
C2-C3-C1= 48.99                C4-C3-C1= 60.01                C4-C3-C2= 48.97                C5-C3-C1= 48.99                
C5-C3-C2= 81.45                C5-C3-C4= 48.98                C2-C4-C1= 48.99                C3-C4-C1= 60.01                
C3-C4-C2= 48.98                C5-C4-C1= 48.99                C5-C4-C2= 81.45                C5-C4-C3= 48.97                
C2-C5-C1= 49.29                C3-C5-C1= 82.05                C3-C5-C2= 49.28                C4-C5-C1= 82.05                
C4-C5-C2= 49.27                C4-C5-C3= 82.05                

 selected dihedral angles (degree)
 ---------------------------------
C3-C2-C1-C4=276.98            C3-C2-C1-C5=318.49            C4-C2-C1-C3= 83.02            C4-C2-C1-C5= 41.51            
C5-C2-C1-C3= 41.51            C5-C2-C1-C4=318.49            C1-C3-C2-C4=276.98            C1-C3-C2-C5=318.47            
C4-C3-C2-C1= 83.02            C4-C3-C2-C5= 41.50            C5-C3-C2-C1= 41.53            C5-C3-C2-C4=318.50            
C1-C4-C2-C3= 83.02            C1-C4-C2-C5= 41.53            C3-C4-C2-C1=276.98            C3-C4-C2-C5=318.51            
C5-C4-C2-C1=318.47            C5-C4-C2-C3= 41.49            C2-C5-C1-C3=318.49            C2-C5-C1-C4= 41.51            
C3-C5-C1-C2= 41.51            C3-C5-C1-C4= 83.02            C4-C5-C1-C2=318.49            C4-C5-C1-C3=276.98            
C1-C5-C3-C2=318.47            C1-C5-C3-C4=276.98            C2-C5-C3-C1= 41.53            C2-C5-C3-C4=318.51            
C4-C5-C3-C1= 83.02            C4-C5-C3-C2= 41.49            C1-C5-C4-C2= 41.53            C1-C5-C4-C3= 83.02            
C2-C5-C4-C1=318.47            C2-C5-C4-C3= 41.50            C3-C5-C4-C1=276.98            C3-C5-C4-C2=318.50            
           -------------------------------------------------
          |                Final Singlepoint                |
           -------------------------------------------------

          ...................................................
          :                      SETUP                      :
          :.................................................:
          :  # basis functions                  20          :
          :  # atomic orbitals                  20          :
          :  # shells                           10          :
          :  # electrons                        20          :
          :  max. iterations                   250          :
          :  Hamiltonian                  GFN2-xTB          :
          :  restarted?                      false          :
          :  GBSA solvation                  false          :
          :  PC potential                    false          :
          :  electronic temp.          300.0000000     K    :
          :  accuracy                    1.0000000          :
          :  -> integral cutoff          0.2500000E+02      :
          :  -> integral neglect         0.1000000E-07      :
          :  -> SCF convergence          0.1000000E-05 Eh   :
          :  -> wf. convergence          0.1000000E-03 e    :
          :  Broyden damping             0.4000000          :
          ...................................................

 iter      E             dE          RMSdq      gap      omega  full diag
   1    -10.3918713 -0.103919E+02  0.469E-05    2.77       0.0  T
   2    -10.3918713  0.150990E-12  0.304E-05    2.77    1472.0  T
   3    -10.3918713  0.786748E-11  0.314E-05    2.77    1425.8  T

   *** convergence criteria satisfied after 3 iterations ***

         #    Occupation            Energy/Eh            Energy/eV
      -------------------------------------------------------------
         1        2.0000           -0.7769039             -21.1406
       ...           ...                  ...                  ...
         4        2.0000           -0.6480317             -17.6338
         5        2.0000           -0.5376812             -14.6311
         6        2.0000           -0.5376081             -14.6291
         7        2.0000           -0.4991477             -13.5825
         8        2.0000           -0.4781412             -13.0109
         9        2.0000           -0.4751047             -12.9283
        10        2.0000           -0.4750288             -12.9262 (HOMO)
        11                         -0.3731072             -10.1528 (LUMO)
        12                         -0.3266660              -8.8890
        13                         -0.3265924              -8.8870
        14                         -0.2968568              -8.0779
        15                          0.0150315               0.4090
       ...                                ...                  ...
        20                          0.5507212              14.9859
      -------------------------------------------------------------
                  HL-Gap            0.1019216 Eh            2.7734 eV
             Fermi-level           -0.4240680 Eh          -11.5395 eV

 SCC (total)                   0 d,  0 h,  0 min,  0.003 sec
 SCC setup                      ...        0 min,  0.000 sec (  1.363%)
 Dispersion                     ...        0 min,  0.000 sec (  0.388%)
 integral evaluation            ...        0 min,  0.001 sec ( 40.671%)
 zeroth order Hamiltonian       ...        0 min,  0.000 sec (  0.445%)
 iterations                     ...        0 min,  0.000 sec ( 11.285%)
 molecular gradient             ...        0 min,  0.001 sec ( 44.068%)
 printout                       ...        0 min,  0.000 sec (  1.504%)

         :::::::::::::::::::::::::::::::::::::::::::::::::::::
         ::                     SUMMARY                     ::
         :::::::::::::::::::::::::::::::::::::::::::::::::::::
         :: total energy             -10.247510904549 Eh    ::
         :: gradient norm              0.000587329486 Eh/a0 ::
         :: HOMO-LUMO gap              2.773427768031 eV    ::
         ::.................................................::
         :: SCC energy               -10.391871308954 Eh    ::
         :: -> isotropic ES           -0.014910990498 Eh    ::
         :: -> anisotropic ES          0.002531878193 Eh    ::
         :: -> anisotropic XC          0.004143750339 Eh    ::
         :: -> dispersion             -0.002393860503 Eh    ::
         :: repulsion energy           0.144360387100 Eh    ::
         :: add. restraining           0.000000000000 Eh    ::
         :::::::::::::::::::::::::::::::::::::::::::::::::::::

           ------------------------------------------------- 
          |                Numerical Hessian                |
           ------------------------------------------------- 
step length          :   0.00500
SCC accuracy         :   0.30000
Hessian scale factor :   1.00000
frozen atoms in %    :   0.00000    0
RMS gradient         :   0.00059
estimated CPU  time      0.00 min
estimated wall time      0.00 min

writing file <hessian>.

 projected vibrational frequencies (cm-1)
eigval :       -0.00    -0.00    -0.00     0.00     0.00     0.00
eigval :      465.41   465.69   663.60   881.95   883.51  1123.69
eigval :     1136.19  1137.17  1398.16
           -------------------------------------------------
          |                Property Printout                |
           -------------------------------------------------

    * Orbital Energies and Occupations

         #    Occupation            Energy/Eh            Energy/eV
      -------------------------------------------------------------
         1        2.0000           -0.7769039             -21.1406
         2        2.0000           -0.6563721             -17.8608
         3        2.0000           -0.6563589             -17.8604
         4        2.0000           -0.6480317             -17.6338
         5        2.0000           -0.5376813             -14.6311
         6        2.0000           -0.5376079             -14.6291
         7        2.0000           -0.4991477             -13.5825
         8        2.0000           -0.4781412             -13.0109
         9        2.0000           -0.4751047             -12.9283
        10        2.0000           -0.4750288             -12.9262 (HOMO)
        11                         -0.3731072             -10.1528 (LUMO)
        12                         -0.3266659              -8.8890
        13                         -0.3265924              -8.8870
        14                         -0.2968568              -8.0779
        15                          0.0150316               0.4090
        16                          0.0155633               0.4235
        17                          0.1088464               2.9619
        18                          0.1093002               2.9742
        19                          0.1406366               3.8269
        20                          0.5507212              14.9859
      -------------------------------------------------------------
                  HL-Gap            0.1019216 Eh            2.7734 eV
             Fermi-level           -0.4240680 Eh          -11.5395 eV

     #   Z        covCN         q      C6AA      α(0)
     1   6 C      3.341    -0.054    26.638     8.160
     2   6 C      3.650     0.080    19.545     6.351
     3   6 C      3.341    -0.054    26.620     8.156
Molecule has the following symmetry elements: (C3) 3*(C2) (S3) 4*(sigma) 
It seems to be the D3h point group
     4   6 C      3.341    -0.054    26.620     8.156
     5   6 C      3.650     0.080    19.545     6.351

 Mol. C6AA /au·bohr⁶  :        590.921844
 Mol. C8AA /au·bohr⁸  :      17090.486598
 Mol. α(0) /au        :         37.172651


Wiberg/Mayer (AO) data.
largest (>0.10) Wiberg bond orders for each atom
          total WBO             WBO to atom ...
     1  C   3.064        C    5 0.980    C    2 0.980    C    4 0.552    C    3 0.552
     2  C   3.575        C    4 0.980    C    3 0.980    C    1 0.980    C    5 0.635
     3  C   3.065        C    5 0.980    C    2 0.980    C    1 0.552    C    4 0.552
     4  C   3.065        C    2 0.980    C    5 0.980    C    1 0.552    C    3 0.552
     5  C   3.575        C    3 0.980    C    4 0.980    C    1 0.980    C    2 0.635

MOs/occ written to file <molden.input>


molecular dipole:
                 x           y           z       tot (Debye)
 q only:       -0.001      -0.000       0.000
   full:       -0.001      -0.000       0.000       0.002
molecular quadrupole (traceless):
                xx          xy          yy          xz          yz          zz
 q only:       -0.429       0.002       0.836       0.000       0.163      -0.407
  q+dip:       -1.241       0.005       2.420       0.001       0.472      -1.179
   full:       -1.025       0.004       1.998       0.001       0.390      -0.973

           -------------------------------------------------
          |                Geometry Summary                 |
           -------------------------------------------------

      molecular mass/u    :       60.0536795
   center of mass at/Å    :       -0.0000000      -0.0000000       0.0000000
  moments of inertia/u·Å² :        0.4301846E+02   0.4302783E+02   0.4328916E+02
rotational constants/cm⁻¹ :        0.3918697E+00   0.3917844E+00   0.3894193E+00

 * 6 selected distances

     #   Z        #   Z                                     value/Å
     1   6 C      2   6 C                                 1.4465361 (max)
     2   6 C      3   6 C                                 1.4460233
     2   6 C      4   6 C                                 1.4459245
     1   6 C      5   6 C                                 1.4465335
     3   6 C      5   6 C                                 1.4459227 (min)
     4   6 C      5   6 C                                 1.4460211

 * 1 distinct bonds (by element types)

   Z      Z             #   av. dist./Å        max./Å        min./Å
   6 C    6 C           6     1.4461602     1.4465361     1.4459227

           -------------------------------------------------
          |               Frequency Printout                |
           -------------------------------------------------
 projected vibrational frequencies (cm-1)
eigval :       -0.00    -0.00    -0.00     0.00     0.00     0.00
eigval :      465.41   465.69   663.60   881.95   883.51  1123.69
eigval :     1136.19  1137.17  1398.16
 reduced masses (amu)
   1: 12.01   2: 12.01   3: 12.01   4: 12.01   5: 12.01   6: 12.01   7: 12.01   8: 12.01
   9: 12.01  10: 12.01  11: 12.01  12: 12.01  13: 12.01  14: 12.01  15: 12.01
 IR intensities (amu)
   1:  0.01   2:  0.02   3:  0.02   4:  0.02   5:  0.03   6:  0.02   7:  0.52   8:  0.51
   9:  0.01  10:  0.02  11:  0.03  12:  1.59  13:  0.96  14:  0.97  15:  0.01
 Raman intensities (amu)
   1:  0.00   2:  0.00   3:  0.00   4:  0.00   5:  0.00   6:  0.00   7:  0.00   8:  0.00
   9:  0.00  10:  0.00  11:  0.00  12:  0.00  13:  0.00  14:  0.00  15:  0.00
 output can be read by thermo (or use thermo option).
 writing <g98.out> molden fake output.
 recommended (thermochemical) frequency scaling factor: 1.0
           -------------------------------------------------
          |             Thermodynamic Functions             |
           -------------------------------------------------

d3h symmetry found (for desy threshold:  0.10E+00) used in thermo

          ...................................................
          :                      SETUP                      :
          :.................................................:
          :  # frequencies                           9      :
          :  # imaginary freq.                       0      :
          :  linear?                             false      :
          :  only rotor calc.                    false      :
          :  symmetry                              d3h      :
          :  rotational number                       6      :
          :  scaling factor                  1.0000000      :
          :  rotor cutoff                   50.0000000 cm⁻¹ :
          :  imag. cutoff                  -20.0000000 cm⁻¹ :
          :.................................................:

    mode    ω/cm⁻¹     T·S(HO)/kcal·mol⁻¹    T·S(FR)/kcal·mol⁻¹   T·S(vib)
   ------------------------------------------------------------------------
   ------------------------------------------------------------------------

   temp. (K)  partition function   enthalpy   heat capacity  entropy
                                   cal/mol     cal/K/mol   cal/K/mol   J/K/mol
 298.15  VIB   1.36                  513.630      5.469      2.334
         ROT  0.360E+04              888.752      2.981     19.256
         INT  0.490E+04             1402.382      8.449     21.590
         TR   0.450E+27             1481.254      4.968     38.181
         TOT                        2883.6359    13.4176    59.7707   250.0806

   temp. (K)  partition function   enthalpy   heat capacity  entropy
                                   cal/mol     cal/K/mol   cal/K/mol   J/K/mol
 120.00  VIB   1.01                   10.868      0.527      0.106
         ROT   920.                  357.707      2.981     16.543
         INT   928.                  368.575      3.508     16.650
         TR   0.115E+27              596.178      4.968     33.661
         TOT                         964.7529     8.4757    50.3110   210.5013

   temp. (K)  partition function   enthalpy   heat capacity  entropy
                                   cal/mol     cal/K/mol   cal/K/mol   J/K/mol
 100.00  VIB   1.00                    3.438      0.235      0.039
         ROT   700.                  298.089      2.981     16.000
         INT   702.                  301.527      3.216     16.039
         TR   0.875E+26              496.815      4.968     32.756
         TOT                         798.3425     8.1845    48.7952   204.1591

   temp. (K)  partition function   enthalpy   heat capacity  entropy
                                   cal/mol     cal/K/mol   cal/K/mol   J/K/mol
  80.00  VIB   1.00                    0.628      0.066      0.009
         ROT   501.                  238.471      2.981     15.335
         INT   501.                  239.100      3.047     15.343
         TR   0.626E+26              397.452      4.968     31.648
         TOT                         636.5516     8.0154    46.9912   196.6114

   temp. (K)  partition function   enthalpy   heat capacity  entropy
                                   cal/mol     cal/K/mol   cal/K/mol   J/K/mol
  60.00  VIB   1.00                    0.038      0.007      0.001
         ROT   325.                  178.853      2.981     14.477
         INT   325.                  178.891      2.988     14.478
         TR   0.406E+26              298.089      4.968     30.219
         TOT                         476.9804     7.9561    44.6970   187.0121

   temp. (K)  partition function   enthalpy   heat capacity  entropy
                                   cal/mol     cal/K/mol   cal/K/mol   J/K/mol
  40.00  VIB   1.00                    0.000      0.000     -0.000
         ROT   177.                  119.236      2.981     13.268
         INT   177.                  119.236      2.981     13.268
         TR   0.221E+26              198.726      4.968     28.206
         TOT                         317.9617     7.9491    41.4741   173.5275

   temp. (K)  partition function   enthalpy   heat capacity  entropy
                                   cal/mol     cal/K/mol   cal/K/mol   J/K/mol
  20.00  VIB   1.00                    0.000      0.000     -0.000
         ROT   62.6                   59.618      2.981     11.202
         INT   62.6                   59.618      2.981     11.202
         TR   0.782E+25               99.363      4.968     24.764
         TOT                         158.9808     7.9490    35.9657   150.4803

   temp. (K)  partition function   enthalpy   heat capacity  entropy
                                   cal/mol     cal/K/mol   cal/K/mol   J/K/mol
  10.00  VIB   1.00                    0.000      0.000     -0.001
         ROT   22.1                   29.809      2.981      9.136
         INT   22.1                   29.809      2.981      9.135
         TR   0.277E+25               49.681      4.968     21.322
         TOT                          79.4904     7.9490    30.4573   127.4332

       T/K    H(0)-H(T)+PV         H(T)/Eh          T*S/Eh         G(T)/Eh
   ------------------------------------------------------------------------
    298.15    0.459537E-02    0.231747E-01    0.283990E-01   -0.522432E-02
    120.00    0.153743E-02    0.201167E-01    0.962109E-02    0.104956E-01
    100.00    0.127224E-02    0.198515E-01    0.777601E-02    0.120755E-01
     80.00    0.101441E-02    0.195937E-01    0.599083E-02    0.136029E-01
     60.00    0.760117E-03    0.193394E-01    0.427375E-02    0.150657E-01
     40.00    0.506704E-03    0.190860E-01    0.264372E-02    0.164423E-01
     20.00    0.253352E-03    0.188327E-01    0.114630E-02    0.176864E-01
     10.00    0.126676E-03    0.187060E-01    0.485367E-03    0.182206E-01 (used)
   ------------------------------------------------------------------------

         :::::::::::::::::::::::::::::::::::::::::::::::::::::
         ::                  THERMODYNAMIC                  ::
         :::::::::::::::::::::::::::::::::::::::::::::::::::::
         :: total free energy         -10.229290292419 Eh   ::
         ::.................................................::
         :: total energy              -10.247510904545 Eh   ::
         :: zero point energy           0.018579303380 Eh   ::
         :: G(RRHO) w/o ZPVE           -0.000358691253 Eh   ::
         :: G(RRHO) contrib.            0.018220612126 Eh   ::
         :::::::::::::::::::::::::::::::::::::::::::::::::::::

optimized geometry written to: xtbopt.xyz


           -------------------------------------------------
          | TOTAL ENERGY              -10.247510904545 Eh   |
          | TOTAL ENTHALPY            -10.228804925150 Eh   |
          | TOTAL FREE ENERGY         -10.229290292419 Eh   |
          | GRADIENT NORM               0.000587539339 Eh/α |
          | HOMO-LUMO GAP               2.773428675505 eV   |
           -------------------------------------------------

------------------------------------------------------------------------
 * finished run on 2020/05/12 at 11:44:39.425     
------------------------------------------------------------------------
 total:
 * wall-time:     0 d,  0 h,  0 min,  0.200 sec
 *  cpu-time:     0 d,  0 h,  0 min,  0.199 sec
 * ratio c/w:     0.993 speedup
 SCF:
 * wall-time:     0 d,  0 h,  0 min,  0.008 sec
 *  cpu-time:     0 d,  0 h,  0 min,  0.008 sec
 * ratio c/w:     1.007 speedup
 ANC optimizer:
 * wall-time:     0 d,  0 h,  0 min,  0.057 sec
 *  cpu-time:     0 d,  0 h,  0 min,  0.057 sec
 * ratio c/w:     0.999 speedup
 numerical hessian:
 * wall-time:     0 d,  0 h,  0 min,  0.115 sec
 *  cpu-time:     0 d,  0 h,  0 min,  0.113 sec
 * ratio c/w:     0.988 speedup

