5
 energy: -10.122253613358 gnorm: 0.137425796570 xtb: 6.2.2 (9d81278992624c895f80dd42a50cac0aa55982e2)
C         1.46811800000000   -0.00099000000000   -0.00779200000000
C         0.16415500000000    0.75589500000000    0.09662900000000
C        -0.90112500000000    0.09785000000000   -0.74922000000000
C        -0.89324800000000   -0.09664600000000    0.75874900000000
C         0.16210000000000   -0.75610900000000   -0.09836600000000
5
 energy: -10.143172506797 gnorm: 0.110955351454 xtb: 6.2.2 (9d81278992624c895f80dd42a50cac0aa55982e2)
C         1.39933441981380   -0.00094331812376   -0.00742767747587
C         0.17676663634618    0.79045103992212    0.10097864198816
C        -0.87922267702608    0.09600859738737   -0.73484238040113
C        -0.87149749942015   -0.09483293661070    0.74413906836175
C         0.17461912028624   -0.79068338257504   -0.10284765247290
5
 energy: -10.191680568310 gnorm: 0.193999834829 xtb: 6.2.2 (9d81278992624c895f80dd42a50cac0aa55982e2)
C         1.08225500591735   -0.00072809555067   -0.00574621686625
C         0.20046225927522    0.95111883335605    0.12033107470166
C        -0.74401635092317    0.09342099663680   -0.70648398969405
C        -0.73659581028324   -0.09242241390818    0.71434451418450
C         0.19789489601384   -0.95138932053399   -0.12244538232586
5
 energy: -10.206681641460 gnorm: 0.113405072086 xtb: 6.2.2 (9d81278992624c895f80dd42a50cac0aa55982e2)
C         1.09113154687324   -0.00073462467596   -0.00579561721387
C         0.18735314165183    0.97451707652975    0.12406984171032
C        -0.73545335717125    0.09631162150822   -0.73405064996798
C        -0.72774739085815   -0.09532504473905    0.74181801305223
C         0.18471605950433   -0.97476902862296   -0.12604158758070
5
 energy: -10.218658493360 gnorm: 0.079696845422 xtb: 6.2.2 (9d81278992624c895f80dd42a50cac0aa55982e2)
C         1.08514277176291   -0.00072972915907   -0.00576833845036
C         0.16184507478102    0.99742945722085    0.12831325154734
C        -0.70713932240847    0.10076680246740   -0.77784735155956
C        -0.69898158774296   -0.09981820890681    0.78530998828108
C         0.15913306360749   -0.99764832162237   -0.13000754981850
5
 energy: -10.228241904394 gnorm: 0.083960007118 xtb: 6.2.2 (9d81278992624c895f80dd42a50cac0aa55982e2)
C         1.11585080560243   -0.00075196230985   -0.00592391462266
C         0.12451809061415    0.98473174509148    0.12803622052190
C        -0.68542455952392    0.10555721207912   -0.82432475948607
C        -0.67677188295067   -0.10463944336137    0.83155661256289
C         0.12182754625800   -0.98489755149939   -0.12934415897606
5
 energy: -10.240903474206 gnorm: 0.077638207253 xtb: 6.2.2 (9d81278992624c895f80dd42a50cac0aa55982e2)
C         1.11840469936147   -0.00075401420375   -0.00593604959113
C         0.05585116932439    0.96809401192958    0.12757805571356
C        -0.61846152115066    0.11432435043787   -0.90335113630677
C        -0.60898497623078   -0.11349793480639    0.90986860656582
C         0.05319062869559   -0.96816641335732   -0.12815947638149
5
 energy: -10.245736376427 gnorm: 0.050650622073 xtb: 6.2.2 (9d81278992624c895f80dd42a50cac0aa55982e2)
C         1.12363072647050   -0.00075780833875   -0.00596060625701
C         0.00397606632943    0.93850969022908    0.12343993620036
C        -0.56950688573027    0.12139456013737   -0.95409227732436
C        -0.55950118710164   -0.12063478764794    0.96008876168696
C         0.00140128003199   -0.93851165437976   -0.12347581430594
5
 energy: -10.247157343880 gnorm: 0.022971493634 xtb: 6.2.2 (9d81278992624c895f80dd42a50cac0aa55982e2)
C         1.09675667909874   -0.00073799215532   -0.00582107543908
C         0.00043033580781    0.93935432489626    0.12202616479362
C        -0.55251464699827    0.12258987508549   -0.95153103440095
C        -0.54254209954837   -0.12185104632355    0.95734579430696
C        -0.00213026835991   -0.93935516150288   -0.12201984926054
5
 energy: -10.247479861391 gnorm: 0.005028218759 xtb: 6.2.2 (9d81278992624c895f80dd42a50cac0aa55982e2)
C         1.09770697533797   -0.00073908614894   -0.00582817242621
C         0.00178946734742    0.93052226065916    0.11970971925552
C        -0.55431240186781    0.12246080643087   -0.94140605095257
C        -0.54444946931213   -0.12172018899515    0.94723964797954
C        -0.00073457150545   -0.93052379194594   -0.11971514385628
5
 energy: -10.247501318574 gnorm: 0.002981315104 xtb: 6.2.2 (9d81278992624c895f80dd42a50cac0aa55982e2)
C         1.09621470724858   -0.00074131451777   -0.00582115093915
C         0.00265362649600    0.93356534670410    0.12032016043252
C        -0.55441869756261    0.12207652735028   -0.94016738215951
C        -0.54456897653938   -0.12133952874336    0.94600151937485
C         0.00011934035740   -0.93356103079324   -0.12033314670871
5
 energy: -10.247508467582 gnorm: 0.001664807880 xtb: 6.2.2 (9d81278992624c895f80dd42a50cac0aa55982e2)
C         1.09623155370282   -0.00073769884159   -0.00582008343362
C         0.00220471000640    0.93473510678335    0.12056693736365
C        -0.55397185084949    0.12188332893760   -0.93939087149061
C        -0.54412945036865   -0.12114325054099    0.94522112643245
C        -0.00033496249108   -0.93473748633837   -0.12057710887187
5
 energy: -10.247510904481 gnorm: 0.000587998829 xtb: 6.2.2 (9d81278992624c895f80dd42a50cac0aa55982e2)
C         1.09633784395199   -0.00073922657203   -0.00582126341490
C         0.00104570708579    0.93563278366041    0.12070618511263
C        -0.55285949574346    0.12173863668115   -0.93842021955052
C        -0.54302781347411   -0.12100163777740    0.94423836773402
C        -0.00149624182021   -0.93563055599213   -0.12070306988123
