5
 energy: -10.247510904549 gnorm: 0.000587329486 xtb: 6.2.2 (9d81278992624c895f80dd42a50cac0aa55982e2)
C         1.09633781973961   -0.00074497714346   -0.00582508906568
C         0.00105102738704    0.93563298884068    0.12070454847424
C        -0.55286213402434    0.12173989360974   -0.93841850217368
C        -0.54302515100339   -0.12099714649899    0.94424047443918
C        -0.00150156209892   -0.93563075880797   -0.12070143167406
