 Entering Gaussian System
 *********************************************
 Gaussian 98:
 frequency output generated by the xtb code
 *********************************************
                         Standard orientation:
 --------------------------------------------------------------------
  Center     Atomic     Atomic              Coordinates (Angstroms)
  Number     Number      Type              X           Y           Z
 --------------------------------------------------------------------
    1          6             0        1.096338   -0.000745   -0.005825
    2          6             0        0.001051    0.935633    0.120705
    3          6             0       -0.552862    0.121740   -0.938419
    4          6             0       -0.543025   -0.120997    0.944240
    5          6             0       -0.001502   -0.935631   -0.120701
 --------------------------------------------------------------------
     1 basis functions        1 primitive gaussians
     1 alpha electrons        1 beta electrons

 Harmonic frequencies (cm**-1), IR intensities (KM/Mole),
 Raman scattering activities (A**4/amu), Raman depolarization ratios,
 reduced masses (AMU), force constants (mDyne/A) and normal coordinates:
                      1                      2                      3
                        a                      a                      a 
 Frequencies --   465.4074               465.6924               663.5998
 Red. masses --    12.0107                12.0107                12.0107
 Frc consts  --     0.0000                 0.0000                 0.0000
 IR Inten    --     0.5164                 0.5146                 0.0124
 Raman Activ --     0.0000                 0.0000                 0.0000
 Depolar     --     0.0000                 0.0000                 0.0000
 Atom AN      X      Y      Z        X      Y      Z        X      Y      Z
   1   6     0.18   0.00  -0.01     0.01  -0.09   0.67    -0.43   0.00   0.00
   2   6     0.37  -0.00   0.01     0.01   0.05  -0.37     0.00   0.47   0.06
   3   6    -0.45  -0.05   0.36    -0.37  -0.01   0.04     0.21  -0.05   0.37
   4   6    -0.47   0.05  -0.36     0.36  -0.00   0.03     0.21   0.05  -0.37
   5   6     0.37  -0.00   0.00     0.00   0.05  -0.37    -0.00  -0.47  -0.06
                      4                      5                      6
                        a                      a                      a 
 Frequencies --   881.9515               883.5135              1123.6858
 Red. masses --    12.0107                12.0107                12.0107
 Frc consts  --     0.0000                 0.0000                 0.0000
 IR Inten    --     0.0188                 0.0299                 1.5854
 Raman Activ --     0.0000                 0.0000                 0.0000
 Depolar     --     0.0000                 0.0000                 0.0000
 Atom AN      X      Y      Z        X      Y      Z        X      Y      Z
   1   6    -0.00  -0.57  -0.07     0.00  -0.00  -0.00     0.00   0.36   0.05
   2   6    -0.50   0.00   0.00    -0.00   0.06  -0.50    -0.01  -0.54  -0.07
   3   6     0.00   0.28   0.04     0.00   0.49   0.06     0.00   0.36   0.05
   4   6     0.00   0.28   0.04    -0.00  -0.49  -0.06    -0.00   0.36   0.05
   5   6     0.50   0.00  -0.00     0.00  -0.06   0.50    -0.00  -0.54  -0.07
                      7                      8                      9
                        a                      a                      a 
 Frequencies --  1136.1905              1137.1730              1398.1576
 Red. masses --    12.0107                12.0107                12.0107
 Frc consts  --     0.0000                 0.0000                 0.0000
 IR Inten    --     0.9600                 0.9685                 0.0106
 Raman Activ --     0.0000                 0.0000                 0.0000
 Depolar     --     0.0000                 0.0000                 0.0000
 Atom AN      X      Y      Z        X      Y      Z        X      Y      Z
   1   6     0.66  -0.00  -0.00     0.00  -0.01   0.12    -0.39   0.00   0.00
   2   6    -0.40   0.00   0.00     0.00  -0.06   0.40    -0.00  -0.52  -0.07
   3   6     0.07  -0.05   0.33    -0.34   0.06  -0.46     0.20  -0.04   0.33
   4   6     0.07   0.04  -0.34     0.34   0.06  -0.46     0.19   0.04  -0.34
   5   6    -0.40   0.00   0.00     0.00  -0.06   0.40    -0.00   0.52   0.07
