$hessian                                                                        
        0.4291157351  -0.0001452388  -0.0019903162  -0.1487373900   0.1384424447
        0.0186723384  -0.0657941356   0.0012525158  -0.0094794165  -0.0651956599
       -0.0012272773   0.0098400950  -0.1493885496  -0.1383224444  -0.0170427007
       -0.0001452388   0.1908551903   0.0177071996   0.1009738679  -0.1126175446
       -0.0156589407   0.0064416117   0.0170243271   0.0062315665  -0.0061313494
        0.0170352882   0.0062818796  -0.1011388914  -0.1122972609  -0.0145617050
       -0.0019903162   0.0177071996   0.0558840689   0.0137947192  -0.0159126370
        0.0026713177  -0.0485806902   0.0063491277  -0.0304578936   0.0489833605
        0.0062967683  -0.0310962416  -0.0122070733  -0.0144404586   0.0029987487
       -0.1487373900   0.1009738679   0.0137947192   0.1972478693   0.0009157657
        0.0000022993  -0.0345990894  -0.0426425907  -0.0733821716  -0.0332717918
       -0.0590834187   0.0594882293   0.0193604019  -0.0001636243   0.0000969239
        0.1384424447  -0.1126175446  -0.0159126370   0.0009157657   0.4561347960
        0.0332977489  -0.0616337695  -0.0881808007  -0.1179948938  -0.0775980940
       -0.1414711993   0.1177914554  -0.0001263468  -0.1138652514  -0.0171816735
        0.0186723384  -0.0156589407   0.0026713177   0.0000022993   0.0332977489
        0.2020532134  -0.0756883426  -0.0855020873  -0.1367646058   0.0571501865
        0.0850375450  -0.0850263889  -0.0001364816  -0.0171742659   0.0170664636
       -0.0657941356   0.0064416117  -0.0485806902  -0.0345990894  -0.0616337695
       -0.0756883426   0.1493515635  -0.0210134387   0.1626355127  -0.0146256591
       -0.0023099125   0.0192339020  -0.0343326793   0.0785155091  -0.0576003819
        0.0012525158   0.0170243271   0.0063491277  -0.0426425907  -0.0881808007
       -0.0855020873  -0.0210134387   0.1965838151  -0.0180901257   0.0026152865
        0.0162308543   0.0127572817   0.0597882271  -0.1416581958   0.0844858036
       -0.0094794165   0.0062315665  -0.0304578936  -0.0733821716  -0.1179948938
       -0.1367646058   0.1626355127  -0.0180901257   0.3319525967  -0.0198962303
        0.0128081912  -0.0809392855  -0.0598776942   0.1170452618  -0.0837908117
       -0.0651956599  -0.0061313494   0.0489833605  -0.0332717918  -0.0775980940
        0.0571501865  -0.0146256591   0.0026152865  -0.0198962303   0.1459851566
        0.0210144893  -0.1606803016  -0.0328920458   0.0600996677   0.0744429849
       -0.0012272773   0.0170352882   0.0062967683  -0.0590834187  -0.1414711993
        0.0850375450  -0.0023099125   0.0162308543   0.0128081912   0.0210144893
        0.1965254874  -0.0180897289   0.0416061192  -0.0883204307  -0.0860527756
        0.0098400950   0.0062818796  -0.0310962416   0.0594882293   0.1177914554
       -0.0850263889   0.0192339020   0.0127572817  -0.0809392855  -0.1606803016
       -0.0180897289   0.3353923753   0.0721180753  -0.1187408878  -0.1383304592
       -0.1493885496  -0.1011388914  -0.0122070733   0.0193604019  -0.0001263468
       -0.0001364816  -0.0343326793   0.0597882271  -0.0598776942  -0.0328920458
        0.0416061192   0.0721180753   0.1972528730  -0.0001291081   0.0001031739
       -0.1383224444  -0.1122972609  -0.0144404586  -0.0001636243  -0.1138652514
       -0.0171742659   0.0785155091  -0.1416581958   0.1170452618   0.0600996677
       -0.0883204307  -0.1187408878  -0.0001291081   0.4561411388   0.0333103505
       -0.0170427007  -0.0145617050   0.0029987487   0.0000969239  -0.0171816735
        0.0170664636  -0.0576003819   0.0844858036  -0.0837908117   0.0744429849
       -0.0860527756  -0.1383304592   0.0001031739   0.0333103505   0.2020560587
