 Entering Gaussian System
 *********************************************
 Gaussian 98:
 frequency output generated by the xtb code
 *********************************************
                         Standard orientation:
 --------------------------------------------------------------------
  Center     Atomic     Atomic              Coordinates (Angstroms)
  Number     Number      Type              X           Y           Z
 --------------------------------------------------------------------
    1          6             0       -0.054986   -0.005592   -0.000843
    2          6             0        1.382162    0.140575    0.021196
    3          1             0       -0.359903   -0.742529   -0.759627
    4          1             0       -0.540384    0.953423   -0.238503
    5          1             0       -0.426889   -0.345876    0.977778
 --------------------------------------------------------------------
     1 basis functions        1 primitive gaussians
     1 alpha electrons        1 beta electrons

 Harmonic frequencies (cm**-1), IR intensities (KM/Mole),
 Raman scattering activities (A**4/amu), Raman depolarization ratios,
 reduced masses (AMU), force constants (mDyne/A) and normal coordinates:
                      1                      2                      3
                        a                      a                      a 
 Frequencies --  1022.4556              1022.4752              1130.2013
 Red. masses --     3.5848                 3.5846                11.9779
 Frc consts  --     0.0000                 0.0000                 0.0000
 IR Inten    --     0.0778                 0.0784                 0.1880
 Raman Activ --     0.0000                 0.0000                 0.0000
 Depolar     --     0.0000                 0.0000                 0.0000
 Atom AN      X      Y      Z        X      Y      Z        X      Y      Z
   1   6    -0.01   0.07   0.41     0.04  -0.41   0.07     0.69   0.07   0.01
   2   6     0.01  -0.04  -0.25    -0.03   0.24  -0.04    -0.71  -0.07  -0.01
   3   1     0.55   0.06  -0.17    -0.38   0.16  -0.07     0.02   0.02   0.02
   4   1     0.05  -0.04  -0.23     0.64   0.22  -0.01     0.02  -0.02   0.01
   5   1    -0.58  -0.12  -0.17    -0.31   0.19  -0.01     0.02   0.01  -0.02
                      4                      5                      6
                        a                      a                      a 
 Frequencies --  1334.1737              1402.9236              1402.9372
 Red. masses --     2.1248                 1.6071                 1.6072
 Frc consts  --     0.0000                 0.0000                 0.0000
 IR Inten    --     0.0370                 0.0379                 0.0384
 Raman Activ --     0.0000                 0.0000                 0.0000
 Depolar     --     0.0000                 0.0000                 0.0000
 Atom AN      X      Y      Z        X      Y      Z        X      Y      Z
   1   6    -0.24  -0.02  -0.00    -0.00   0.01   0.23    -0.02   0.23  -0.01
   2   6    -0.20  -0.02  -0.00    -0.00   0.00   0.03    -0.00   0.03  -0.00
   3   1     0.53  -0.07  -0.13    -0.27   0.38  -0.26    -0.17  -0.36   0.43
   4   1     0.50   0.23  -0.03    -0.03  -0.18  -0.68     0.30   0.12  -0.15
   5   1     0.52  -0.00   0.18     0.32  -0.23   0.05    -0.04  -0.64  -0.24
                      7                      8                      9
                        a                      a                      a 
 Frequencies --  2811.6169              2811.6718              2837.0472
 Red. masses --     1.9308                 1.9309                 1.1541
 Frc consts  --     0.0000                 0.0000                 0.0000
 IR Inten    --     0.1671                 0.1668                 0.0730
 Raman Activ --     0.0000                 0.0000                 0.0000
 Depolar     --     0.0000                 0.0000                 0.0000
 Atom AN      X      Y      Z        X      Y      Z        X      Y      Z
   1   6    -0.00   0.05  -0.28     0.03  -0.28  -0.05     0.11   0.01   0.00
   2   6    -0.00   0.00  -0.00     0.00  -0.00  -0.00     0.04   0.00   0.00
   3   1     0.12   0.35   0.29     0.17   0.40   0.46    -0.12  -0.39  -0.40
   4   1     0.14  -0.28   0.02    -0.31   0.62  -0.18    -0.22   0.51  -0.13
   5   1    -0.25  -0.24   0.69     0.04  -0.02  -0.10    -0.16  -0.18   0.52
