[Molden Format]
[Title]
[Atoms] AU
C      1     6 -0.10390883232713E+00 -0.10567781300781E-01 -0.15930459565302E-02
C      2     6  0.26119078638395E+01  0.26564842594347E+00  0.40055315944087E-01
H      3     1 -0.68011752640398E+00 -0.14031772281108E+01 -0.14354874059464E+01
H      4     1 -0.10211776933769E+01  0.18017087835341E+01 -0.45070582753361E+00
H      5     1 -0.80670381171501E+00 -0.65361031033678E+00  0.18477328532151E+01
[GTO]
           1 0
 s           4   1.0000000000000000     
   51.049363095579913      -0.16312063210127389     
   8.7911227406887544      -0.19911024581000730     
  0.70640422258929825       0.31882047753655751     
  0.26922813413411617       0.12706504184240380     
 p           4   1.0000000000000000     
   5.8263656140800002       0.73716451545209605     
   1.5106896018720002       0.68216371614850257     
  0.53256483288000001       0.35783053929253711     
  0.21202323690600003        5.3983030275847881E-002

           2 0
 s           4   1.0000000000000000     
   51.049363095579913      -0.16312063210127389     
   8.7911227406887544      -0.19911024581000730     
  0.70640422258929825       0.31882047753655751     
  0.26922813413411617       0.12706504184240380     
 p           4   1.0000000000000000     
   5.8263656140800002       0.73716451545209605     
   1.5106896018720002       0.68216371614850257     
  0.53256483288000001       0.35783053929253711     
  0.21202323690600003        5.3983030275847881E-002

           3 0
 s           3   1.0000000000000000     
   3.3702276975336001       0.27359110588908298     
  0.61389118221497996       0.26460540653860526     
  0.16614291148415999        8.2465947534082318E-002

           4 0
 s           3   1.0000000000000000     
   3.3702276975336001       0.27359110588908298     
  0.61389118221497996       0.26460540653860526     
  0.16614291148415999        8.2465947534082318E-002

           5 0
 s           3   1.0000000000000000     
   3.3702276975336001       0.27359110588908298     
  0.61389118221497996       0.26460540653860526     
  0.16614291148415999        8.2465947534082318E-002

[MO]
Sym=     1a
Ene=  -0.61848717720241286     
Spin= Alpha
Occup=     2.00000000
           1 -0.55388369495437206     
           2  -6.3446293184315397E-002
           3  -6.4528922028948884E-003
           4  -9.7296573911993497E-004
           5 -0.29194312334321243     
           6  0.15826483902170713     
           7   1.6096564453564447E-002
           8   2.4270725073324987E-003
           9 -0.18723172510106312     
          10 -0.18723170848731449     
          11 -0.18723170298702768     
Sym=     2a
Ene=  -0.53625488615960026     
Spin= Alpha
Occup=     2.00000000
           1  0.10422301170388636     
           2 -0.49053489771956993     
           3  -4.9890599580928445E-002
           4  -7.5225274086756447E-003
           5 -0.58903480134932951     
           6   8.5730003986161762E-002
           7   8.7192946066243695E-003
           8   1.3147250085763017E-003
           9  0.18303170069615646     
          10  0.18303175725936890     
          11  0.18303187686529468     
Sym=     3a
Ene=  -0.49996017232414819     
Spin= Alpha
Occup=     2.00000000
           1  -2.4000865349571273E-008
           2   5.7261572791228212E-002
           3 -0.57213121619583918     
           4   6.0507283752758032E-002
           5   1.3098527973684237E-008
           6   1.9417529975821378E-002
           7 -0.19401101560126552     
           8   2.0518153055969192E-002
           9  0.26987770431587477     
          10 -0.44510267286863631     
          11  0.17522495188267742     
Sym=     4a
Ene=  -0.49996016429667783     
Spin= Alpha
Occup=     2.00000000
           1  -2.2007790778253819E-008
           2   1.4849488215972146E-002
           3  -5.9316219081249316E-002
           4 -0.57492194934060714     
           5  -1.4698340771763123E-007
           6   5.0355306665609669E-003
           7  -2.0114270051547339E-002
           8 -0.19495736238334463     
           9  0.35814634782392646     
          10   5.4647831718151588E-002
          11 -0.41279407675261193     
Sym=     5a
Ene=  -0.38978064969067550     
Spin= Alpha
Occup=     1.00000000
           1 -0.13468615957520083     
           2 -0.32049360535550730     
           3  -3.2596288904385151E-002
           4  -4.9149749351150261E-003
           5  0.61935783399015631     
           6  0.66257716010880230     
           7   6.7388395840928803E-002
           8   1.0160889713085184E-002
           9   9.4887340075746410E-002
          10   9.4887369183258755E-002
          11   9.4887381952613731E-002
Sym=     6a
Ene=  -0.29311442403982252     
Spin= Alpha
Occup=     1.00000000
           1   7.2561645483360659E-009
           2  -4.1619942246235424E-003
           3   5.1144714110845368E-002
           4  -6.7802217569976647E-002
           5   4.3303141923927514E-011
           6   4.7705884858319843E-002
           7 -0.58623719111308870     
           8  0.77717075811511116     
           9   4.6266327036879627E-002
          10  0.20686300835463495     
          11 -0.25312930652025750     
Sym=     7a
Ene=  -0.29311441748935430     
Spin= Alpha
Occup=     1.00000000
           1   7.5476271833309089E-009
           2   7.6399255964011000E-003
           3  -6.7382926125658146E-002
           4  -5.1297413731708916E-002
           5   3.4128823538525308E-010
           6  -8.7571494025150548E-002
           7  0.77236435671817683     
           8  0.58798710183782854     
           9  0.26557668484143981     
          10 -0.17285612467959477     
          11  -9.2720537960047839E-002
Sym=     8a
Ene=   0.13899862813553529     
Spin= Alpha
Occup=     0.00000000
           1  -1.1256968293128453     
           2  0.46957780647982411     
           3   4.7758547808755283E-002
           4   7.2010581084045212E-003
           5  -3.6803402255142011E-002
           6 -0.11061966007883862     
           7  -1.1250612796600291E-002
           8  -1.6963434275447718E-003
           9  0.60545477169914597     
          10  0.60545575301589027     
          11  0.60545530647774859     
Sym=     9a
Ene=   0.19046876283721059     
Spin= Alpha
Occup=     0.00000000
           1  -2.9017924649061682E-007
           2   2.2690583992689300E-003
           3  0.13780231452671698     
           4  -1.0619286388663172     
           5   5.6060598716526935E-007
           6  -4.3828003971138851E-004
           7  -2.6560941467555107E-002
           8  0.20468236605634182     
           9 -0.60424473513183619     
          10 -0.32931917873204192     
          11  0.93356345084598114     
Sym=    10a
Ene=   0.19046878974792758     
Spin= Alpha
Occup=     0.00000000
           1  -5.5706234006262867E-007
           2 -0.10953994339782958     
           3   1.0563902336655195     
           4  0.13684954501610025     
           5  -1.7567029619679675E-007
           6   2.1113619667743687E-002
           7 -0.20361481248190549     
           8  -2.6377161384451651E-002
           9  0.72912602949987826     
          10 -0.88785358354506838     
          11  0.15872871247434919     
Sym=    11a
Ene=   0.25635302892212319     
Spin= Alpha
Occup=     0.00000000
           1  0.50624078417407725     
           2  0.93787483154320994     
           3   9.5387837832620351E-002
           4   1.4381837038231881E-002
           5 -0.65226632388348671     
           6  0.91172568709548141     
           7   9.2728450231570336E-002
           8   1.3981917921874861E-002
           9   7.9249996748256585E-002
          10   7.9250648378607208E-002
          11   7.9251521467813835E-002
