$hessian                                                                        
        0.3730623776  -0.0058699380  -0.0008868484  -0.2311110881  -0.0195550927
       -0.0029491803  -0.0385800944  -0.0238775311  -0.0255999916  -0.0586481291
        0.0635891956  -0.0152581017  -0.0447230659  -0.0142866337   0.0446941219
       -0.0058699380   0.4306664321  -0.0000950832  -0.0195771979  -0.0410301222
       -0.0002992829  -0.0324353479  -0.1310253058  -0.0945817230   0.0758252425
       -0.2000166841   0.0395380772  -0.0179427587  -0.0585943200   0.0554380118
       -0.0008868484  -0.0000950832   0.4311990484  -0.0029608366  -0.0003006238
       -0.0390760043  -0.0347406414  -0.0953758388  -0.1382891538  -0.0180398144
        0.0390598057  -0.0492533759   0.0566281408   0.0567117401  -0.2045805144
       -0.2311110881  -0.0195771979  -0.0029608366   0.3339063466   0.0309150110
        0.0046645395  -0.0308487530  -0.0150675479  -0.0129379634  -0.0383256975
        0.0124344323  -0.0044276516  -0.0336208079  -0.0087046974   0.0156619121
       -0.0195550927  -0.0410301222  -0.0003006238   0.0309150110   0.0333138935
        0.0004748415  -0.0211589719  -0.0003764973  -0.0016819427   0.0211205571
        0.0067231112  -0.0000257243  -0.0113215036   0.0013696149   0.0015334493
       -0.0029491803  -0.0002992829  -0.0390760043   0.0046645395   0.0004748415
        0.0302383048  -0.0194415967  -0.0022454196   0.0024602936  -0.0064181429
       -0.0003587117   0.0028781012   0.0241443803   0.0024285728   0.0034993046
       -0.0385800944  -0.0324353479  -0.0347406414  -0.0308487530  -0.0211589719
       -0.0194415967   0.0627488480   0.0413058416   0.0421734488   0.0034990518
        0.0079676094   0.0065678954   0.0031809476   0.0043208687   0.0054408939
       -0.0238775311  -0.1310253058  -0.0953758388  -0.0150675479  -0.0003764973
       -0.0022454196   0.0413058416   0.1515121925   0.1132944470  -0.0035499175
       -0.0247524036  -0.0200586267   0.0011891549   0.0046420142   0.0043854382
       -0.0255999916  -0.0945817230  -0.1382891538  -0.0129379634  -0.0016819427
        0.0024602936   0.0421734488   0.1132944470   0.1589343267   0.0006809424
        0.0019357345   0.0029849984  -0.0043164362  -0.0189665158  -0.0260904649
       -0.0586481291   0.0758252425  -0.0180398144  -0.0383256975   0.0211205571
       -0.0064181429   0.0034990518  -0.0035499175   0.0006809424   0.0894068840
       -0.0881784306   0.0219661261   0.0040678908  -0.0052174516   0.0018108888
        0.0635891956  -0.2000166841   0.0390598057   0.0124344323   0.0067231112
       -0.0003587117   0.0079676094  -0.0247524036   0.0019357345  -0.0881784306
        0.2305040260  -0.0464808686   0.0041871934  -0.0124580495   0.0058440401
       -0.0152581017   0.0395380772  -0.0492533759  -0.0044276516  -0.0000257243
        0.0028781012   0.0065678954  -0.0200586267   0.0029849984   0.0219661261
       -0.0464808686   0.0533054050  -0.0088482682   0.0270271424  -0.0099151287
       -0.0447230659  -0.0179427587   0.0566281408  -0.0336208079  -0.0113215036
        0.0241443803   0.0031809476   0.0011891549  -0.0043164362   0.0040678908
        0.0041871934  -0.0088482682   0.0710950355   0.0238879140  -0.0676078167
       -0.0142866337  -0.0585943200   0.0567117401  -0.0087046974   0.0013696149
        0.0024285728   0.0043208687   0.0046420142  -0.0189665158  -0.0052174516
       -0.0124580495   0.0270271424   0.0238879140   0.0650407403  -0.0672009395
        0.0446941219   0.0554380118  -0.2045805144   0.0156619121   0.0015334493
        0.0034993046   0.0054408939   0.0043854382  -0.0260904649   0.0018108888
        0.0058440401  -0.0099151287  -0.0676078167  -0.0672009395   0.2370868034
