5
 energy: -5.481051804348 gnorm: 0.044299365087 xtb: 6.2.2 (9d81278992624c895f80dd42a50cac0aa55982e2)
C        -0.08049800000000   -0.00818700000000   -0.00123400000000
C         1.42555500000000    0.14499600000000    0.02186400000000
H        -0.36454600000000   -0.75419900000000   -0.77165800000000
H        -0.54790200000000    0.96864900000000   -0.24226800000000
H        -0.43260900000000   -0.35125800000000    0.99329700000000
5
 energy: -5.483272737718 gnorm: 0.018745871418 xtb: 6.2.2 (9d81278992624c895f80dd42a50cac0aa55982e2)
C        -0.07471012334846   -0.00759880498685   -0.00114599994792
C         1.38832076671624    0.14120891070212    0.02129587534262
H        -0.35496774064914   -0.74551080301759   -0.76327367656406
H        -0.53634983426031    0.95880534285499   -0.23957670552545
H        -0.42229306845833   -0.34690364555268    0.98270150669481
5
 energy: -5.483605837991 gnorm: 0.005428584515 xtb: 6.2.2 (9d81278992624c895f80dd42a50cac0aa55982e2)
C        -0.06042405496102   -0.00614561788039   -0.00092658276669
C         1.37889590206085    0.14025007743072    0.02115154146010
H        -0.35721223559320   -0.74039942506589   -0.75760465545452
H        -0.53722931852694    0.95108881917586   -0.23784950141813
H        -0.42403029297968   -0.34479285366030    0.97523019817923
5
 energy: -5.483639732295 gnorm: 0.001986557342 xtb: 6.2.2 (9d81278992624c895f80dd42a50cac0aa55982e2)
C        -0.05707187969046   -0.00580470790726   -0.00087524599520
C         1.38120995902441    0.14048554277998    0.02118705906174
H        -0.35901362249270   -0.74133087987988   -0.75843141000799
H        -0.53922182076308    0.95195482701222   -0.23812390613314
H        -0.42590263607817   -0.34530378200507    0.97624450307459
5
 energy: -5.483643448108 gnorm: 0.000995313611 xtb: 6.2.2 (9d81278992624c895f80dd42a50cac0aa55982e2)
C        -0.05498615895610   -0.00559251598831   -0.00084320539302
C         1.38216143669290    0.14058230614349    0.02120143235587
H        -0.35989618961857   -0.74253003949912   -0.75962984448312
H        -0.54038817332295    0.95342090419997   -0.23850349715926
H        -0.42689091479527   -0.34587965485602    0.97777611467954
