[Molden Format]
[Title]
[Atoms] AU
C      1     6  0.11797122648324E+01 -0.61769589743019E-05 -0.41179726495702E-05
C      2     6 -0.11797122648324E+01  0.61769589743019E-05  0.41179726495702E-05
[GTO]
           1 0
 s           4   1.0000000000000000     
   51.049363095579913      -0.16312063210127389     
   8.7911227406887544      -0.19911024581000730     
  0.70640422258929825       0.31882047753655751     
  0.26922813413411617       0.12706504184240380     
 p           4   1.0000000000000000     
   5.8263656140800002       0.73716451545209605     
   1.5106896018720002       0.68216371614850257     
  0.53256483288000001       0.35783053929253711     
  0.21202323690600003        5.3983030275847881E-002

           2 0
 s           4   1.0000000000000000     
   51.049363095579913      -0.16312063210127389     
   8.7911227406887544      -0.19911024581000730     
  0.70640422258929825       0.31882047753655751     
  0.26922813413411617       0.12706504184240380     
 p           4   1.0000000000000000     
   5.8263656140800002       0.73716451545209605     
   1.5106896018720002       0.68216371614850257     
  0.53256483288000001       0.35783053929253711     
  0.21202323690600003        5.3983030275847881E-002

[MO]
Sym=     1a
Ene=  -0.68913423506749316     
Spin= Alpha
Occup=     2.00000000
           1 -0.52065981836748187     
           2  0.20609877978011629     
           3  -1.0766089868639253E-006
           4  -7.1773932456279829E-007
           5 -0.52065981782008663     
           6 -0.20609877972695934     
           7   1.0766089866380896E-006
           8   7.1773932439182532E-007
Sym=     2a
Ene=  -0.53863493594388356     
Spin= Alpha
Occup=     2.00000000
           1 -0.58002153013171398     
           2 -0.36906676284708306     
           3   1.9484662092107636E-006
           4   1.2989774714458717E-006
           5  0.58002152978945731     
           6 -0.36906676174411129     
           7   1.9484662028452979E-006
           8   1.2989774675715493E-006
Sym=     3a
Ene=  -0.49617013395223891     
Spin= Alpha
Occup=     1.50000000
           1  -1.5650163406281861E-008
           2  -3.9159501095532307E-006
           3 -0.44834570406623397     
           4 -0.44560119726338460     
           5   1.5650163104369633E-008
           6  -3.9159501034653974E-006
           7 -0.44834570341280211     
           8 -0.44560119661395348     
Sym=     4a
Ene=  -0.49617013394986759     
Spin= Alpha
Occup=     1.50000000
           1   3.0800949437460681E-009
           2   7.7069444061184476E-007
           3  0.44560119727202535     
           4 -0.44834570408165214     
           5  -3.0800945071110472E-009
           6   7.7069443884933035E-007
           7  0.44560119662259218     
           8 -0.44834570342822189     
Sym=     5a
Ene=  -0.41318899045829405     
Spin= Alpha
Occup=     1.00000000
           1  0.38982327161333274     
           2  0.61164895491365434     
           3  -3.2075211207139799E-006
           4  -2.1383474134777091E-006
           5  0.38982327267046379     
           6 -0.61164895537484421     
           7   3.2075211224717545E-006
           8   2.1383474153033798E-006
Sym=     6a
Ene=  -0.25852663444743945     
Spin= Alpha
Occup=     0.00000000
           1   9.3491719095876334E-010
           2   1.0108186262925929E-006
           3  0.57803938811702393     
           4 -0.57768763746443219     
           5   9.3491703179445452E-010
           6  -1.0108186270775351E-006
           7 -0.57803938862106008     
           8  0.57768763796816136     
Sym=     7a
Ene=  -0.25852663442771623     
Spin= Alpha
Occup=     0.00000000
           1   4.6671987016842077E-009
           2   5.0461064596166735E-006
           3  0.57768763745764951     
           4  0.57803938811905697     
           5   4.6671984639009217E-009
           6  -5.0461064638697344E-006
           7 -0.57768763796137956     
           8 -0.57803938862309212     
Sym=     8a
Ene=   0.70150287397189415     
Spin= Alpha
Occup=     0.00000000
           1  0.89918727390186759     
           2  -1.0214912926410356     
           3   5.3495309502344494E-006
           4   3.5663539668171585E-006
           5 -0.89918727398130438     
           6  -1.0214912927741149     
           7   5.3495309509350516E-006
           8   3.5663539672813020E-006
