2
 energy: -3.948846547754 gnorm: 0.000088526497 xtb: 6.2.2 (9d81278992624c895f80dd42a50cac0aa55982e2)
C         0.62427690389241   -0.00000326870623   -0.00000217913748
C        -0.62427690389241    0.00000326870623    0.00000217913748
