2
 energy: -3.885780457970 gnorm: 0.265985996317 xtb: 6.2.2 (9d81278992624c895f80dd42a50cac0aa55982e2)
C         0.75700000000000    0.00000000000000    0.00000000000000
C        -0.75700000000000    0.00000000000000    0.00000000000000
2
 energy: -3.946114472700 gnorm: 0.088019715792 xtb: 6.2.2 (9d81278992624c895f80dd42a50cac0aa55982e2)
C         0.64644527383464    0.00000000000000    0.00000000000000
C        -0.64644527383464    0.00000000000000    0.00000000000000
2
 energy: -3.941927793828 gnorm: 0.176272790542 xtb: 6.2.2 (9d81278992624c895f80dd42a50cac0aa55982e2)
C         0.59288663081527    0.00000000000000    0.00000000000000
C        -0.59288663081527    0.00000000000000    0.00000000000000
2
 energy: -3.948750702010 gnorm: 0.017814476612 xtb: 6.2.2 (9d81278992624c895f80dd42a50cac0aa55982e2)
C         0.62828840734680    0.00000000000000    0.00000000000000
C        -0.62828840734680    0.00000000000000    0.00000000000000
2
 energy: -3.948843183279 gnorm: 0.003385556756 xtb: 6.2.2 (9d81278992624c895f80dd42a50cac0aa55982e2)
C         0.62503926856596    0.00000000000000    0.00000000000000
C        -0.62503926856596    0.00000000000000    0.00000000000000
2
 energy: -3.948846547749 gnorm: 0.000088533257 xtb: 6.2.2 (9d81278992624c895f80dd42a50cac0aa55982e2)
C         0.62427690390477    0.00000000000000    0.00000000000000
C        -0.62427690390477    0.00000000000000    0.00000000000000
