      -----------------------------------------------------------      
     |                   =====================                   |     
     |                           x T B                           |     
     |                   =====================                   |     
     |                         S. Grimme                         |     
     |          Mulliken Center for Theoretical Chemistry        |     
     |                    University of Bonn                     |     
      -----------------------------------------------------------      

   * xtb version 6.2.2 (9d81278992624c895f80dd42a50cac0aa55982e2) compiled by '@Darwin' on 04/03/2020

   xtb is free software: you can redistribute it and/or modify it under
   the terms of the GNU Lesser General Public License as published by
   the Free Software Foundation, either version 3 of the License, or
   (at your option) any later version.
   
   xtb is distributed in the hope that it will be useful,
   but WITHOUT ANY WARRANTY; without even the implied warranty of
   MERCHANTABILITY or FITNESS FOR A PARTICULAR PURPOSE.  See the
   GNU Lesser General Public License for more details.
   
   Cite this work as:
   * S. Grimme, C. Bannwarth, P. Shushkov, J. Chem. Theory Comput., 2017,
     13, 1989-2009. DOI: 10.1021/acs.jctc.7b00118
   * C. Bannwarth, S. Ehlert and S. Grimme., J. Chem. Theory Comput., 2019,
     15, 1652-1671. DOI: 10.1021/acs.jctc.8b01176
   * P. Pracht, E. Caldeweyher, S. Ehlert, S. Grimme, ChemRxiv, 2019, preprint.
     DOI: 10.26434/chemrxiv.8326202.v1
   
   for DFT-D4:
   * E. Caldeweyher, C. Bannwarth and S. Grimme, J. Chem. Phys., 2017,
     147, 034112. DOI: 10.1063/1.4993215
   * E. Caldeweyher, S. Ehlert, A. Hansen, H. Neugebauer, S. Spicher,
     C. Bannwarth and S. Grimme, J. Chem. Phys., 2019, 150, 154122.
     DOI: 10.1063/1.5090222
   
   for sTDA-xTB:
   * S. Grimme and C. Bannwarth, J. Chem. Phys., 2016, 145, 054103.
     DOI: 10.1063/1.4959605
   
   in the mass-spec context:
   * V. Asgeirsson, C. Bauer and S. Grimme, Chem. Sci., 2017, 8, 4879.
     DOI: 10.1039/c7sc00601b
   
   for metadynamics refer to:
   * S. Grimme, J. Chem. Theory Comput., 2019, 155, 2847-2862
     DOI: 10.1021/acs.jctc.9b00143
   
   with help from (in alphabetical order)
   C. Bannwarth, F. Bohle, G. Brandenburg, E. Caldeweyher, M. Checinski,
   S. Dohm, S. Ehlert, S. Ehrlich, F. März, H. Neugebauer, J. Pisarek,
   P. Pracht, P. Shushkov, and S. Spicher.
   
 * started run on 2020/05/13 at 16:22:17.915     

           -------------------------------------------------
          |                Calculation Setup                |
           -------------------------------------------------

          program call               : xtb --input C2_0_S_3.input C2_0_S_3.xyz --ohess --molden --namespace C2_0_S_3 output.out
          calculation namespace      : C2_0_S_3
          coordinate file            : C2_0_S_3.xyz
          number of atoms            :                     2
          number of electrons        :                     8
          charge                     :                     0
          spin                       :                   1.5
          first test random number   :      0.84754379543072

   ID    Z sym.   atoms
    1    6 C      1, 2

           -------------------------------------------------
          |                 G F N 2 - x T B                 |
           -------------------------------------------------

        Reference                      10.1021/acs.jctc.8b01176
      * Hamiltonian:
        H0-scaling (s, p, d)           1.850000    2.230000    2.230000
        zeta-weighting                 0.500000
      * Dispersion:
        s8                             2.700000
        a1                             0.520000
        a2                             5.000000
        s9                             5.000000
      * Repulsion:
        kExp                           1.500000    1.000000
        rExp                           1.000000
      * Coulomb:
        alpha                          2.000000
        third order                    shell-resolved
        anisotropic                    true
        a3                             3.000000
        a5                             4.000000
        cn-shift                       1.200000
        cn-exp                         4.000000
        max-rad                        5.000000


          ...................................................
          :                      SETUP                      :
          :.................................................:
          :  # basis functions                   8          :
          :  # atomic orbitals                   8          :
          :  # shells                            4          :
          :  # electrons                         8          :
          :  max. iterations                   250          :
          :  Hamiltonian                  GFN2-xTB          :
          :  restarted?                      false          :
          :  GBSA solvation                  false          :
          :  PC potential                    false          :
          :  electronic temp.          300.0000000     K    :
          :  accuracy                    1.0000000          :
          :  -> integral cutoff          0.2500000E+02      :
          :  -> integral neglect         0.1000000E-07      :
          :  -> SCF convergence          0.1000000E-05 Eh   :
          :  -> wf. convergence          0.1000000E-03 e    :
          :  Broyden damping             0.4000000          :
          ...................................................

 iter      E             dE          RMSdq      gap      omega  full diag
   1     -3.8976439 -0.389764E+01  0.149E+01    3.13       0.0  T
   2     -3.8987651 -0.112126E-02  0.885E+00    3.07       1.0  T
   3     -3.9006730 -0.190792E-02  0.123E+00    3.10       1.0  T
   4     -3.9006323  0.407223E-04  0.236E+00    3.06       1.0  T
   5     -3.9007144 -0.821053E-04  0.701E-02    3.15       1.0  T
   6     -3.9007145 -0.622759E-07  0.129E-02    3.15       5.5  T
   7     -3.9007145 -0.234831E-08  0.752E-04    3.15      94.1  T
   8     -3.9007145 -0.556089E-11  0.181E-06    3.15   39131.7  T

   *** convergence criteria satisfied after 8 iterations ***

         #    Occupation            Energy/Eh            Energy/eV
      -------------------------------------------------------------
         1        2.0000           -0.6842615             -18.6197
         2        2.0000           -0.5716342             -15.5550
         3        1.5000           -0.4825497             -13.1308
         4        1.5000           -0.4825497             -13.1308
         5        1.0000           -0.4635220             -12.6131 (HOMO)
         6                         -0.3478376              -9.4651 (LUMO)
         7                         -0.3478376              -9.4651
         8                          0.0479436               1.3046
      -------------------------------------------------------------
                  HL-Gap            0.1156843 Eh            3.1479 eV
             Fermi-level           -0.4441147 Eh          -12.0850 eV

 SCC (total)                   0 d,  0 h,  0 min,  0.001 sec
 SCC setup                      ...        0 min,  0.000 sec ( 16.364%)
 Dispersion                     ...        0 min,  0.000 sec (  0.694%)
 integral evaluation            ...        0 min,  0.000 sec ( 26.317%)
 zeroth order Hamiltonian       ...        0 min,  0.000 sec (  0.562%)
 iterations                     ...        0 min,  0.000 sec ( 36.476%)
 molecular gradient             ...        0 min,  0.000 sec ( 15.708%)
 printout                       ...        0 min,  0.000 sec (  2.980%)

         :::::::::::::::::::::::::::::::::::::::::::::::::::::
         ::                     SUMMARY                     ::
         :::::::::::::::::::::::::::::::::::::::::::::::::::::
         :: total energy              -3.885780457970 Eh    ::
         :: gradient norm              0.265986003143 Eh/a0 ::
         :: HOMO-LUMO gap              3.147930632940 eV    ::
         ::.................................................::
         :: SCC energy                -3.900714486753 Eh    ::
         :: -> isotropic ES           -0.017473645035 Eh    ::
         :: -> anisotropic ES          0.000381641776 Eh    ::
         :: -> anisotropic XC          0.004193415838 Eh    ::
         :: -> dispersion             -0.000364459472 Eh    ::
         :: repulsion energy           0.014934028783 Eh    ::
         :: add. restraining           0.000000000000 Eh    ::
         :::::::::::::::::::::::::::::::::::::::::::::::::::::

      ----------------------------------------------------------- 
     |                   =====================                   |
     |                        A N C O P T                        |
     |                   =====================                   |
     |               Approximate Normal Coordinate               |
     |                Rational Function Optimizer                |
      ----------------------------------------------------------- 

          ...................................................
          :                      SETUP                      :
          :.................................................:
          :   optimization level            normal          :
          :   max. optcycles                   200          :
          :   ANC micro-cycles                  20          :
          :   degrees of freedom                 1          :
          :.................................................:
          :   RF solver                   davidson          :
          :   write xtbopt.log                true          :
          :   linear (good luck)              true          :
          :   energy convergence         0.5000000E-05 Eh   :
          :   grad. convergence          0.1000000E-02 Eh/α :
          :   maximium RF displ.         1.0000000          :
          :   Hlow (freq-cutoff)         0.1000000E-01      :
          :   Hmax (freq-cutoff)         5.0000000          :
          :   S6 in model hess.         20.0000000          :
          ...................................................

generating ANC from model Hessian ...
Using Lindh-Hessian (1995)
 Shifting diagonal of input Hessian by    9.9831758120275983E-003
 Lowest  eigenvalues of input Hessian
   -0.000000    0.000000    0.000000    0.010000    0.010000    0.821672
 Highest eigenvalues
   -0.000000    0.000000    0.000000    0.010000    0.010000    0.821672


........................................................................
.............................. CYCLE    1 ..............................
........................................................................
   1     -3.9007145 -0.390071E+01  0.440E-08    3.15       0.0  T
   2     -3.9007145 -0.310862E-14  0.182E-07    3.15  100000.0  T
   3     -3.9007145 -0.222045E-14  0.437E-09    3.15  100000.0  T
     SCC iter.                  ...        0 min,  0.000 sec
     gradient                   ...        0 min,  0.000 sec
 * total energy  :    -3.8857805 Eh     change       -0.3108624E-14 Eh
   gradient norm :     0.2659860 Eh/α   predicted     0.0000000E+00 (-100.00%)
   displ. norm   :     0.2954549 α      lambda       -0.7858687E-01
   maximum displ.:     0.2954549 α      in ANC's #1, #1, #1, ...

........................................................................
.............................. CYCLE    2 ..............................
........................................................................
   1     -4.0084381 -0.400844E+01  0.294E+00    4.08       0.0  T
   2     -4.0085275 -0.894041E-04  0.186E+00    4.05       1.0  T
   3     -4.0085827 -0.551473E-04  0.143E-01    3.98       1.0  T
   4     -4.0085827 -0.249517E-07  0.300E-02    3.98       2.4  T
   5     -4.0085827 -0.981334E-08  0.339E-04    3.98     208.5  T
   6     -4.0085827 -0.930811E-12  0.225E-05    3.98    3149.2  T
     SCC iter.                  ...        0 min,  0.000 sec
     gradient                   ...        0 min,  0.000 sec
 * total energy  :    -3.9461145 Eh     change       -0.6033401E-01 Eh
   gradient norm :     0.0880197 Eh/α   predicted    -0.4272349E-01 ( -29.19%)
   displ. norm   :     0.1431342 α      lambda       -0.1259863E-01
   maximum displ.:     0.1431342 α      in ANC's #1, #1, #1, ...

........................................................................
.............................. CYCLE    3 ..............................
........................................................................
   1     -4.0635196 -0.406352E+01  0.144E+00    4.64       0.0  T
   2     -4.0635327 -0.131318E-04  0.901E-01    4.62       1.0  T
   3     -4.0635408 -0.810607E-05  0.504E-02    4.59       1.4  T
   4     -4.0635408 -0.465397E-08  0.802E-03    4.59       8.8  T
   5     -4.0635408 -0.509878E-09  0.297E-05    4.59    2383.9  T
   6     -4.0635408  0.242473E-12  0.119E-05    4.59    5930.1  T
     SCC iter.                  ...        0 min,  0.000 sec
     gradient                   ...        0 min,  0.000 sec
 * total energy  :    -3.9419278 Eh     change        0.4186679E-02 Eh
   gradient norm :     0.1762728 Eh/α   predicted    -0.6428372E-02 (-253.54%)
   displ. norm   :     0.0946104 α      lambda       -0.1667724E-01
   maximum displ.:     0.0946104 α      in ANC's #1, #1, #1, ...

........................................................................
.............................. CYCLE    4 ..............................
........................................................................
   1     -4.0271920 -0.402719E+01  0.918E-01    4.13       0.0  T
   2     -4.0271976 -0.561254E-05  0.573E-01    4.15       1.0  T
   3     -4.0272016 -0.395500E-05  0.374E-02    4.16       1.9  T
   4     -4.0272016 -0.379601E-08  0.264E-03    4.16      26.8  T
   5     -4.0272016 -0.662830E-10  0.105E-04    4.16     670.5  T
   6     -4.0272016 -0.384430E-10  0.623E-06    4.16   11343.3  T
     SCC iter.                  ...        0 min,  0.000 sec
     gradient                   ...        0 min,  0.000 sec
 * total energy  :    -3.9487507 Eh     change       -0.6822908E-02 Eh
   gradient norm :     0.0178145 Eh/α   predicted    -0.8413260E-02 (  23.31%)
   displ. norm   :     0.0086832 α      lambda       -0.1546850E-03
   maximum displ.:     0.0086832 α      in ANC's #1, #1, #1, ...

........................................................................
.............................. CYCLE    5 ..............................
........................................................................
   1     -4.0305408 -0.403054E+01  0.855E-02    4.20       0.0  T
   2     -4.0305408 -0.520776E-07  0.535E-02    4.20       1.3  T
   3     -4.0305409 -0.349146E-07  0.350E-03    4.20      20.2  T
   4     -4.0305409 -0.301048E-10  0.904E-05    4.20     781.8  T
   5     -4.0305409  0.251354E-12  0.102E-05    4.20    6903.9  T
     SCC iter.                  ...        0 min,  0.000 sec
     gradient                   ...        0 min,  0.000 sec
 * total energy  :    -3.9488432 Eh     change       -0.9248127E-04 Eh
   gradient norm :     0.0033856 Eh/α   predicted    -0.7734958E-04 ( -16.36%)
   displ. norm   :     0.0020374 α      lambda       -0.6896452E-05
   maximum displ.:     0.0020374 α      in ANC's #1, #1, #1, ...

........................................................................
.............................. CYCLE    6 ..............................
........................................................................
   1     -4.0313245 -0.403132E+01  0.200E-02    4.21       0.0  T
   2     -4.0313245 -0.283067E-08  0.125E-02    4.21       5.6  T
   3     -4.0313245 -0.190230E-08  0.815E-04    4.21      86.8  T
   4     -4.0313245  0.319567E-11  0.379E-05    4.21    1867.8  T
     SCC iter.                  ...        0 min,  0.000 sec
     gradient                   ...        0 min,  0.000 sec
 * total energy  :    -3.9488465 Eh     change       -0.3364471E-05 Eh
   gradient norm :     0.0000885 Eh/α   predicted    -0.3448883E-05 (   2.51%)
   displ. norm   :     0.0000779 α      lambda       -0.5303014E-08
   maximum displ.:     0.0000779 α      in ANC's #1, #1, #1, ...

   *** GEOMETRY OPTIMIZATION CONVERGED AFTER 6 ITERATIONS ***

------------------------------------------------------------------------
 total energy gain   :        -0.0630661 Eh      -39.5746 kcal/mol
 total RMSD          :         0.2508103 a0        0.1327 Å
 total power (kW/mol):       -27.5966660 (step)********** (real)
------------------------------------------------------------------------

 ANCopt (total)                0 d,  0 h,  0 min,  0.005 sec
 optimizer setup                ...        0 min,  0.000 sec (  1.162%)
 model hessian                  ...        0 min,  0.000 sec (  0.338%)
 ANC generation                 ...        0 min,  0.000 sec (  0.500%)
 coordinate transformation      ...        0 min,  0.000 sec (  0.190%)
 single point calculation       ...        0 min,  0.004 sec ( 89.631%)
 optimization log               ...        0 min,  0.000 sec (  1.685%)
 hessian update                 ...        0 min,  0.000 sec (  0.262%)
 rational function              ...        0 min,  0.000 sec (  1.695%)

================
 final structure:
================
2
 xtb: 6.2.2 (9d81278992624c895f80dd42a50cac0aa55982e2)
C         0.62427690390477    0.00000000000000    0.00000000000000
C        -0.62427690390477    0.00000000000000    0.00000000000000

 Bond Distances (Angstroems)
 ---------------------------
C1-C2=1.2486         C2-C1=1.2486         
 C  C  Rav=1.2486 sigma=0.0000  Rmin=1.2486  Rmax=1.2486     1

 selected bond angles (degree)
 --------------------


 selected dihedral angles (degree)
 ---------------------------------

           -------------------------------------------------
          |                Final Singlepoint                |
           -------------------------------------------------

          ...................................................
          :                      SETUP                      :
          :.................................................:
          :  # basis functions                   8          :
          :  # atomic orbitals                   8          :
          :  # shells                            4          :
          :  # electrons                         8          :
          :  max. iterations                   250          :
          :  Hamiltonian                  GFN2-xTB          :
          :  restarted?                      false          :
          :  GBSA solvation                  false          :
          :  PC potential                    false          :
          :  electronic temp.          300.0000000     K    :
          :  accuracy                    1.0000000          :
          :  -> integral cutoff          0.2500000E+02      :
          :  -> integral neglect         0.1000000E-07      :
          :  -> SCF convergence          0.1000000E-05 Eh   :
          :  -> wf. convergence          0.1000000E-03 e    :
          :  Broyden damping             0.4000000          :
          ...................................................

 iter      E             dE          RMSdq      gap      omega  full diag
   1     -4.0313245 -0.403132E+01  0.245E-05    4.21       0.0  T
   2     -4.0313245  0.685230E-11  0.502E-05    4.21    1407.4  T
   3     -4.0313245 -0.879474E-11  0.247E-06    4.21   28631.4  T

   *** convergence criteria satisfied after 3 iterations ***

         #    Occupation            Energy/Eh            Energy/eV
      -------------------------------------------------------------
         1        2.0000           -0.6891342             -18.7523
         2        2.0000           -0.5386349             -14.6570
         3        1.5000           -0.4961701             -13.5015
         4        1.5000           -0.4961701             -13.5015
         5        1.0000           -0.4131890             -11.2434 (HOMO)
         6                         -0.2585266              -7.0349 (LUMO)
         7                         -0.2585266              -7.0349
         8                          0.7015029              19.0889
      -------------------------------------------------------------
                  HL-Gap            0.1546624 Eh            4.2086 eV
             Fermi-level           -0.4160140 Eh          -11.3203 eV

 SCC (total)                   0 d,  0 h,  0 min,  0.001 sec
 SCC setup                      ...        0 min,  0.000 sec (  3.569%)
 Dispersion                     ...        0 min,  0.000 sec (  0.494%)
 integral evaluation            ...        0 min,  0.000 sec ( 26.734%)
 zeroth order Hamiltonian       ...        0 min,  0.000 sec (  1.122%)
 iterations                     ...        0 min,  0.000 sec ( 31.560%)
 molecular gradient             ...        0 min,  0.000 sec ( 24.287%)
 printout                       ...        0 min,  0.000 sec ( 11.223%)

         :::::::::::::::::::::::::::::::::::::::::::::::::::::
         ::                     SUMMARY                     ::
         :::::::::::::::::::::::::::::::::::::::::::::::::::::
         :: total energy              -3.948846547754 Eh    ::
         :: gradient norm              0.000088526497 Eh/a0 ::
         :: HOMO-LUMO gap              4.208576936493 eV    ::
         ::.................................................::
         :: SCC energy                -4.031324527550 Eh    ::
         :: -> isotropic ES           -0.008056383926 Eh    ::
         :: -> anisotropic ES          0.000261210689 Eh    ::
         :: -> anisotropic XC          0.005149690311 Eh    ::
         :: -> dispersion             -0.000365101602 Eh    ::
         :: repulsion energy           0.082477979796 Eh    ::
         :: add. restraining           0.000000000000 Eh    ::
         :::::::::::::::::::::::::::::::::::::::::::::::::::::

           ------------------------------------------------- 
          |                Numerical Hessian                |
           ------------------------------------------------- 
step length          :   0.00500
SCC accuracy         :   0.30000
Hessian scale factor :   1.00000
frozen atoms in %    :   0.00000    0
RMS gradient         :   0.00009

writing file <hessian>.

 vibrational frequencies (cm-1)
eigval :        0.00     0.00     0.00     0.00     0.00  1941.66
           -------------------------------------------------
          |                Property Printout                |
           -------------------------------------------------

    * Orbital Energies and Occupations

         #    Occupation            Energy/Eh            Energy/eV
      -------------------------------------------------------------
         1        2.0000           -0.6891342             -18.7523
         2        2.0000           -0.5386349             -14.6570
         3        1.5000           -0.4961701             -13.5015
         4        1.5000           -0.4961701             -13.5015
         5        1.0000           -0.4131890             -11.2434 (HOMO)
         6                         -0.2585266              -7.0349 (LUMO)
         7                         -0.2585266              -7.0349
         8                          0.7015029              19.0889
      -------------------------------------------------------------
                  HL-Gap            0.1546624 Eh            4.2086 eV
             Fermi-level           -0.4160140 Eh          -11.3203 eV

     #   Z        covCN         q      C6AA      α(0)
     1   6 C      0.981    -0.000    35.905    10.064
     2   6 C      0.981     0.000    35.905    10.064

 Mol. C6AA /au·bohr⁶  :        143.619978
 Mol. C8AA /au·bohr⁸  :       4153.739344
 Mol. α(0) /au        :         20.128931


Wiberg/Mayer (AO) data.
largest (>0.10) Wiberg bond orders for each atom
          total WBO             WBO to atom ...
     1  C   2.177        C    2 2.177
     2  C   2.177        C    1 2.177

MOs/occ written to file <molden.input>


molecular dipole:
                 x           y           z       tot (Debye)
 q only:       -0.000       0.000       0.000
   full:       -0.000       0.000       0.000       0.000
molecular quadrupole (traceless):
                xx          xy          yy          xz          yz          zz
 q only:        0.000      -0.000      -0.000      -0.000       0.000      -0.000
Molecule has the following symmetry elements: (i) (Cinf) (C2) 2*(sigma) 
It seems to be the Dinfh point group
  q+dip:        0.798      -0.000      -0.399      -0.000       0.000      -0.399
   full:       -1.035       0.000       0.518       0.000      -0.000       0.518

           -------------------------------------------------
          |                Geometry Summary                 |
           -------------------------------------------------

      molecular mass/u    :       24.0214718
   center of mass at/Å    :        0.0000000       0.0000000       0.0000000
  moments of inertia/u·Å² :       -0.1746435E-14   0.9361688E+01   0.9361688E+01
rotational constants/cm⁻¹ :       -0.9652596E+16   0.1800704E+01   0.1800704E+01

           -------------------------------------------------
          |               Frequency Printout                |
           -------------------------------------------------
 vibrational frequencies (cm-1)
eigval :        0.00     0.00     0.00     0.00     0.00  1941.66
 reduced masses (amu)
   1: 12.01   2: 12.01   3: 12.01   4: 12.01   5: 12.01   6: 12.01
 IR intensities (amu)
   1:  0.00   2:  0.00   3:  0.00   4:  0.00   5:  0.00   6:  0.00
 Raman intensities (amu)
   1:  0.00   2:  0.00   3:  0.00   4:  0.00   5:  0.00   6:  0.00
 output can be read by thermo (or use thermo option).
 writing <g98.out> molden fake output.
 recommended (thermochemical) frequency scaling factor: 1.0
           -------------------------------------------------
          |             Thermodynamic Functions             |
           -------------------------------------------------

din symmetry found (for desy threshold:  0.10E+00) used in thermo

          ...................................................
          :                      SETUP                      :
          :.................................................:
          :  # frequencies                           1      :
          :  # imaginary freq.                       0      :
          :  linear?                              true      :
          :  only rotor calc.                    false      :
          :  symmetry                              din      :
          :  rotational number                       2      :
          :  scaling factor                  1.0000000      :
          :  rotor cutoff                   50.0000000 cm⁻¹ :
          :  imag. cutoff                  -20.0000000 cm⁻¹ :
          :.................................................:

    mode    ω/cm⁻¹     T·S(HO)/kcal·mol⁻¹    T·S(FR)/kcal·mol⁻¹   T·S(vib)
   ------------------------------------------------------------------------
   ------------------------------------------------------------------------

   temp. (K)  partition function   enthalpy   heat capacity  entropy
                                   cal/mol     cal/K/mol   cal/K/mol   J/K/mol
 298.15  VIB   1.00                    0.473      0.015      0.002
         ROT   57.5                  592.502      1.987     10.041
         INT   57.5                  592.975      2.002     10.042
         TR   0.114E+27             1481.254      4.968     35.451
         TOT                        2074.2288     6.9703    45.4930   190.3427

   temp. (K)  partition function   enthalpy   heat capacity  entropy
                                   cal/mol     cal/K/mol   cal/K/mol   J/K/mol
 120.00  VIB   1.00                    0.000      0.000     -0.000
         ROT   23.2                  238.471      1.987      8.232
         INT   23.2                  238.471      1.987      8.232
         TR   0.291E+26              596.178      4.968     30.931
         TOT                         834.6492     6.9554    39.1633   163.8592

   temp. (K)  partition function   enthalpy   heat capacity  entropy
                                   cal/mol     cal/K/mol   cal/K/mol   J/K/mol
 100.00  VIB   1.00                    0.000      0.000     -0.000
         ROT   19.3                  198.726      1.987      7.870
         INT   19.3                  198.726      1.987      7.870
         TR   0.221E+26              496.815      4.968     30.026
         TOT                         695.5410     6.9554    37.8956   158.5552

   temp. (K)  partition function   enthalpy   heat capacity  entropy
                                   cal/mol     cal/K/mol   cal/K/mol   J/K/mol
  80.00  VIB   1.00                    0.000      0.000     -0.000
         ROT   15.4                  158.981      1.987      7.426
         INT   15.4                  158.981      1.987      7.426
         TR   0.158E+26              397.452      4.968     28.918
         TOT                         556.4328     6.9554    36.3441   152.0637

   temp. (K)  partition function   enthalpy   heat capacity  entropy
                                   cal/mol     cal/K/mol   cal/K/mol   J/K/mol
  60.00  VIB   1.00                    0.000      0.000     -0.000
         ROT   11.6                  119.236      1.987      6.855
         INT   11.6                  119.236      1.987      6.855
         TR   0.103E+26              298.089      4.968     27.489
         TOT                         417.3246     6.9554    34.3439   143.6947

   temp. (K)  partition function   enthalpy   heat capacity  entropy
                                   cal/mol     cal/K/mol   cal/K/mol   J/K/mol
  40.00  VIB   1.00                    0.000      0.000     -0.000
         ROT   7.72                   79.490      1.987      6.049
         INT   7.72                   79.490      1.987      6.049
         TR   0.560E+25              198.726      4.968     25.476
         TOT                         278.2164     6.9554    31.5247   131.8992

   temp. (K)  partition function   enthalpy   heat capacity  entropy
                                   cal/mol     cal/K/mol   cal/K/mol   J/K/mol
  20.00  VIB   1.00                    0.000      0.000     -0.000
         ROT   3.86                   39.745      1.987      4.671
         INT   3.86                   39.745      1.987      4.671
         TR   0.198E+25               99.363      4.968     22.034
         TOT                         139.1082     6.9554    26.7052   111.7346

   temp. (K)  partition function   enthalpy   heat capacity  entropy
                                   cal/mol     cal/K/mol   cal/K/mol   J/K/mol
  10.00  VIB   1.00                    0.000      0.000     -0.000
         ROT   1.93                   19.873      1.987      3.294
         INT   1.93                   19.873      1.987      3.294
         TR   0.700E+24               49.681      4.968     18.592
         TOT                          69.5541     6.9554    21.8858    91.5701

       T/K    H(0)-H(T)+PV         H(T)/Eh          T*S/Eh         G(T)/Eh
   ------------------------------------------------------------------------
    298.15    0.330549E-02    0.772893E-02    0.216152E-01   -0.138863E-01
    120.00    0.133010E-02    0.575353E-02    0.748928E-02   -0.173575E-02
    100.00    0.110842E-02    0.553185E-02    0.603905E-02   -0.507200E-03
     80.00    0.886732E-03    0.531017E-02    0.463344E-02    0.676726E-03
     60.00    0.665049E-03    0.508848E-02    0.328382E-02    0.180466E-02
     40.00    0.443366E-03    0.486680E-02    0.200951E-02    0.285729E-02
     20.00    0.221683E-03    0.464512E-02    0.851149E-03    0.379397E-02
     10.00    0.110842E-03    0.453428E-02    0.348772E-03    0.418550E-02 (used)
   ------------------------------------------------------------------------

         :::::::::::::::::::::::::::::::::::::::::::::::::::::
         ::                  THERMODYNAMIC                  ::
         :::::::::::::::::::::::::::::::::::::::::::::::::::::
         :: total free energy          -3.944661043164 Eh   ::
         ::.................................................::
         :: total energy               -3.948846547754 Eh   ::
         :: zero point energy           0.004423435132 Eh   ::
         :: G(RRHO) w/o ZPVE           -0.000237930542 Eh   ::
         :: G(RRHO) contrib.            0.004185504590 Eh   ::
         :::::::::::::::::::::::::::::::::::::::::::::::::::::

optimized geometry written to: xtbopt.xyz


           -------------------------------------------------
          | TOTAL ENERGY               -3.948846547754 Eh   |
          | TOTAL ENTHALPY             -3.944312271108 Eh   |
          | TOTAL FREE ENERGY          -3.944661043164 Eh   |
          | GRADIENT NORM               0.000088524682 Eh/α |
          | HOMO-LUMO GAP               4.208576922152 eV   |
           -------------------------------------------------

------------------------------------------------------------------------
 * finished run on 2020/05/13 at 16:22:17.949     
------------------------------------------------------------------------
 total:
 * wall-time:     0 d,  0 h,  0 min,  0.034 sec
 *  cpu-time:     0 d,  0 h,  0 min,  0.033 sec
 * ratio c/w:     0.994 speedup
 SCF:
 * wall-time:     0 d,  0 h,  0 min,  0.001 sec
 *  cpu-time:     0 d,  0 h,  0 min,  0.001 sec
 * ratio c/w:     0.991 speedup
 ANC optimizer:
 * wall-time:     0 d,  0 h,  0 min,  0.007 sec
 *  cpu-time:     0 d,  0 h,  0 min,  0.007 sec
 * ratio c/w:     0.999 speedup
 numerical hessian:
 * wall-time:     0 d,  0 h,  0 min,  0.011 sec
 *  cpu-time:     0 d,  0 h,  0 min,  0.010 sec
 * ratio c/w:     0.991 speedup

