 Entering Gaussian System
 *********************************************
 Gaussian 98:
 frequency output generated by the xtb code
 *********************************************
                         Standard orientation:
 --------------------------------------------------------------------
  Center     Atomic     Atomic              Coordinates (Angstroms)
  Number     Number      Type              X           Y           Z
 --------------------------------------------------------------------
    1          7             0       -1.400283    0.359987   -0.588946
    2          6             0       -0.273094   -0.081618   -0.028115
    3          6             0        1.013361    0.045016    0.246442
    4          6             0       -1.532412   -0.793580    0.046995
    5          6             0        2.192426    0.470195    0.323625
 --------------------------------------------------------------------
     1 basis functions        1 primitive gaussians
     1 alpha electrons        1 beta electrons

 Harmonic frequencies (cm**-1), IR intensities (KM/Mole),
 Raman scattering activities (A**4/amu), Raman depolarization ratios,
 reduced masses (AMU), force constants (mDyne/A) and normal coordinates:
                      1                      2                      3
                        a                      a                      a 
 Frequencies --   155.8495               176.1611               428.9034
 Red. masses --    12.3510                12.0324                12.0922
 Frc consts  --     0.0000                 0.0000                 0.0000
 IR Inten    --     0.6343                 0.4096                 0.6862
 Raman Activ --     0.0000                 0.0000                 0.0000
 Depolar     --     0.0000                 0.0000                 0.0000
 Atom AN      X      Y      Z        X      Y      Z        X      Y      Z
   1   7    -0.37  -0.19   0.01     0.03  -0.05  -0.09     0.18  -0.05   0.08
   2   6    -0.01   0.39  -0.23    -0.11   0.23   0.41    -0.00  -0.44   0.25
   3   6    -0.06   0.37  -0.23    -0.13   0.27   0.47    -0.01   0.54  -0.32
   4   6     0.22  -0.13   0.13     0.08  -0.19  -0.33    -0.45   0.03  -0.14
   5   6     0.25  -0.43   0.31     0.12  -0.26  -0.46     0.27  -0.07   0.11
                      4                      5                      6
                        a                      a                      a 
 Frequencies --   491.4227               737.3908               856.8737
 Red. masses --    12.0838                12.2071                13.0031
 Frc consts  --     0.0000                 0.0000                 0.0000
 IR Inten    --     0.4202                 0.6956                 0.8039
 Raman Activ --     0.0000                 0.0000                 0.0000
 Depolar     --     0.0000                 0.0000                 0.0000
 Atom AN      X      Y      Z        X      Y      Z        X      Y      Z
   1   7    -0.04   0.09   0.16     0.15   0.25  -0.11     0.67  -0.06   0.21
   2   6     0.17  -0.37  -0.63    -0.16  -0.36   0.16     0.04   0.37  -0.20
   3   6    -0.14   0.29   0.50    -0.27   0.20  -0.19    -0.24   0.09  -0.12
   4   6    -0.03   0.05   0.09     0.62   0.07   0.13    -0.20  -0.28   0.11
   5   6     0.04  -0.08  -0.14    -0.35  -0.19   0.01    -0.32  -0.11  -0.02
                      7                      8                      9
                        a                      a                      a 
 Frequencies --  1227.0769              1705.3484              1841.3554
 Red. masses --    12.4761                12.1581                12.4397
 Frc consts  --     0.0000                 0.0000                 0.0000
 IR Inten    --     1.2458                 1.8065                 0.4695
 Raman Activ --     0.0000                 0.0000                 0.0000
 Depolar     --     0.0000                 0.0000                 0.0000
 Atom AN      X      Y      Z        X      Y      Z        X      Y      Z
   1   7     0.09   0.42  -0.22     0.19  -0.14   0.13    -0.15   0.36  -0.25
   2   6    -0.54  -0.04  -0.12    -0.35  -0.00  -0.09     0.56  -0.00   0.15
   3   6     0.29   0.02   0.07    -0.57  -0.22  -0.03    -0.47  -0.11  -0.06
   4   6    -0.08  -0.48   0.26     0.16   0.16  -0.05    -0.12  -0.35   0.17
   5   6     0.23   0.06   0.03     0.56   0.22   0.03     0.18   0.08   0.00
