[Molden Format]
[Title]
[Atoms] AU
N      1     7 -0.26461504765373E+01  0.68027686249156E+00 -0.11129472839747E+01
C      2     6 -0.51607200316333E+00 -0.15423515457611E+00 -0.53129593898396E-01
C      3     6  0.19149751897822E+01  0.85068355105864E-01  0.46570726244979E+00
C      4     6 -0.28958390413344E+01 -0.14996491700786E+01  0.88807848993101E-01
C      5     6  0.41430844415269E+01  0.88853910706718E+00  0.61156176643680E+00
[GTO]
           1 0
 s           4   1.0000000000000000     
   63.594024466941008      -0.19234388414721629     
   10.951417231523665      -0.23478107924953728     
  0.87999310257376984       0.37593753901700888     
  0.33538715296521110       0.14982889271862770     
 p           4   1.0000000000000000     
   7.2965040481495080       0.97658666315667420     
   1.8918745450712575       0.90372226730345739     
  0.66694432110824120       0.47404958461536373     
  0.26552202674130870        7.1516067715011844E-002

           2 0
 s           4   1.0000000000000000     
   51.049363095579913      -0.16312063210127389     
   8.7911227406887544      -0.19911024581000730     
  0.70640422258929825       0.31882047753655751     
  0.26922813413411617       0.12706504184240380     
 p           4   1.0000000000000000     
   5.8263656140800002       0.73716451545209605     
   1.5106896018720002       0.68216371614850257     
  0.53256483288000001       0.35783053929253711     
  0.21202323690600003        5.3983030275847881E-002

           3 0
 s           4   1.0000000000000000     
   51.049363095579913      -0.16312063210127389     
   8.7911227406887544      -0.19911024581000730     
  0.70640422258929825       0.31882047753655751     
  0.26922813413411617       0.12706504184240380     
 p           4   1.0000000000000000     
   5.8263656140800002       0.73716451545209605     
   1.5106896018720002       0.68216371614850257     
  0.53256483288000001       0.35783053929253711     
  0.21202323690600003        5.3983030275847881E-002

           4 0
 s           4   1.0000000000000000     
   51.049363095579913      -0.16312063210127389     
   8.7911227406887544      -0.19911024581000730     
  0.70640422258929825       0.31882047753655751     
  0.26922813413411617       0.12706504184240380     
 p           4   1.0000000000000000     
   5.8263656140800002       0.73716451545209605     
   1.5106896018720002       0.68216371614850257     
  0.53256483288000001       0.35783053929253711     
  0.21202323690600003        5.3983030275847881E-002

           5 0
 s           4   1.0000000000000000     
   51.049363095579913      -0.16312063210127389     
   8.7911227406887544      -0.19911024581000730     
  0.70640422258929825       0.31882047753655751     
  0.26922813413411617       0.12706504184240380     
 p           4   1.0000000000000000     
   5.8263656140800002       0.73716451545209605     
   1.5106896018720002       0.68216371614850257     
  0.53256483288000001       0.35783053929253711     
  0.21202323690600003        5.3983030275847881E-002

[MO]
Sym=     1a
Ene=  -0.75793923401974350     
Spin= Alpha
Occup=     2.00000000
           1  0.37707015438084929     
           2  0.12672260338989613     
           3 -0.16362299886752710     
           4  0.12939366489081117     
           5  0.36403337626567239     
           6 -0.17432094144075255     
           7  -6.2007015811905309E-003
           8  -4.3345412282903076E-002
           9   4.5111375672240037E-002
          10  -5.1814740403685111E-002
          11  -3.9552793262136853E-003
          12  -1.1690678507796643E-002
          13  0.32813789350100830     
          14   9.5017751571852022E-002
          15  0.12609697980047202     
          16  -4.7810041454151214E-002
          17  -3.1759048726064804E-003
          18  -4.4199870556443869E-003
          19  -6.2269582789873821E-004
          20  -8.3625363923160842E-004
Sym=     2a
Ene=  -0.68977826858071878     
Spin= Alpha
Occup=     2.00000000
           1 -0.10783279381348169     
           2   8.8303282667839822E-002
           3   6.1921440358913130E-002
           4  -1.2084015382523260E-002
           5  0.32456829621933064     
           6  0.26562200643004963     
           7   4.4190807256576918E-002
           8   4.6312030954062118E-002
           9  0.51762539770359883     
          10  -4.8917825956201408E-002
          11   2.7751470096244010E-002
          12  -2.8852584525567375E-002
          13 -0.11219161414348487     
          14   5.1339528522452486E-002
          15  -3.1791081185208452E-002
          16   3.2441699942895419E-002
          17  0.28487707860668943     
          18 -0.13058924754431939     
          19  -3.7288993529363969E-002
          20  -1.4114764174448244E-002
Sym=     3a
Ene=  -0.64884461348728917     
Spin= Alpha
Occup=     2.00000000
           1 -0.15183428552792921     
           2  0.15789080692106980     
           3   8.9691149936266146E-002
           4  -9.8037280947458096E-003
           5  0.30091181793621402     
           6  0.14591250765130617     
           7   2.0892224794113703E-002
           8   2.6826308929971159E-002
           9 -0.11849799058043767     
          10 -0.37350775365752514     
          11  -9.2030109460485579E-002
          12  -4.8626813452051200E-002
          13 -0.15599956908046950     
          14   9.6177979560984367E-002
          15  -5.3132728986914513E-002
          16   5.6766198839310673E-002
          17 -0.50598291422436081     
          18   9.8842396082233455E-002
          19   4.1147930295374772E-002
          20   3.3895924228625881E-003
Sym=     4a
Ene=  -0.62075859910327946     
Spin= Alpha
Occup=     2.00000000
           1 -0.39998570723333626     
           2 -0.24385082636339894     
           3 -0.24565730875190181     
           4   7.7400432763994984E-002
           5   1.6238660790375763E-002
           6   5.9921650634082071E-002
           7 -0.39621361518627912     
           8  0.24692468356328365     
           9   6.9007949904949600E-002
          10  -4.1861054609778611E-002
          11 -0.12604988842028711     
          12   6.2007574792542271E-002
          13  0.44418695909787337     
          14   5.2148275950239110E-002
          15  -9.2801539624399951E-002
          16   6.8122177686174998E-002
          17  -3.8597164463318068E-002
          18   1.4148129843843287E-003
          19  -2.8291769181467502E-002
          20   1.6887761199943112E-002
Sym=     5a
Ene=  -0.59111982867323465     
Spin= Alpha
Occup=     2.00000000
           1  -2.5447346227336093E-005
           2  0.12528238655279722     
           3 -0.27083468057601312     
           4 -0.46510926865453961     
           5   1.7089297678394902E-004
           6  0.11366347388984188     
           7 -0.24512244752462717     
           8 -0.42094214314460338     
           9   5.5547170816557607E-004
          10   4.4015450520718903E-002
          11  -9.3492273361610534E-002
          12 -0.16074045973824039     
          13   1.2533096200275975E-004
          14   7.8681936793534774E-002
          15 -0.16995879425207824     
          16 -0.29195399535252686     
          17   4.3426038513795550E-004
          18   1.3920389704123768E-002
          19  -2.9712671949600845E-002
          20  -5.1025626173569837E-002
Sym=     6a
Ene=  -0.56834236455314846     
Spin= Alpha
Occup=     2.00000000
           1  0.39659353779999051     
           2 -0.47718223017320888     
           3  -5.4923509189067750E-002
           4  -9.6508125548910834E-002
           5 -0.10321103160301037     
           6  0.29309647581658665     
           7   7.4963144505647200E-002
           8   3.5444343950895074E-002
           9  0.17583271721012250     
          10 -0.18725839818648665     
          11  -3.3527899255241647E-002
          12  -3.1933612099909761E-002
          13   7.1878877893640364E-002
          14 -0.33626266625446311     
          15  0.15159177458857423     
          16 -0.17878229183431371     
          17 -0.22766629429853613     
          18  -5.1616816000080133E-002
          19  -5.0294385412056114E-003
          20  -1.1212310064071560E-002
Sym=     7a
Ene=  -0.49931583665163393     
Spin= Alpha
Occup=     2.00000000
           1 -0.32399818079652765     
           2   8.0324059567130346E-002
           3 -0.21079729260398872     
           4  0.14468432040441495     
           5  -1.6286490581601254E-002
           6   5.6412145515097933E-002
           7  0.26145015185779713     
           8 -0.13713459039209558     
           9  -7.0671523653818250E-002
          10  -9.6494360335896673E-002
          11  0.43657695253906176     
          12 -0.28087839572073942     
          13  0.33007860184392801     
          14 -0.24405870819130299     
          15 -0.12652636340768009     
          16   8.0281293314329646E-003
          17   1.1200437268159757E-002
          18  -6.5160283770842528E-002
          19  0.29944142017532488     
          20 -0.19233072536988788     
Sym=     8a
Ene=  -0.48660619293177476     
Spin= Alpha
Occup=     2.00000000
           1   1.2210572522693480E-004
           2   8.2524930598950802E-002
           3 -0.17950721670471254     
           4 -0.30864196071923800     
           5   1.9301983861782154E-004
           6  -4.0784563428856876E-002
           7   8.8822230403402105E-002
           8  0.15269718826539999     
           9  -1.5264781536092863E-003
          10 -0.14086919876545201     
          11  0.29921435824276743     
          12  0.51349494805596996     
          13   6.2431058336202486E-005
          14   5.0308643853552971E-002
          15 -0.10946397890940628     
          16 -0.18810263947826103     
          17   1.2669986307832384E-003
          18 -0.10952733554253168     
          19  0.23445866799153284     
          20  0.40193151875223798     
Sym=     9a
Ene=  -0.46030420371009978     
Spin= Alpha
Occup=     2.00000000
           1 -0.31464769050239244     
           2  -4.1715539848152634E-002
           3 -0.48883382377493506     
           4  0.27336416714913486     
           5   6.2506321936189992E-003
           6   1.1429305649295096E-002
           7  -5.6461396896769949E-003
           8   6.3022687009285563E-003
           9  -2.1623559660966286E-002
          10  -4.6639875247777114E-003
          11   7.0486533137978065E-003
          12  -5.3696105477916952E-003
          13 -0.50603526897927598     
          14   8.6328296759962453E-002
          15  0.51747445695925054     
          16 -0.27795672839183760     
          17   3.4455071597124652E-002
          18   3.3530119020705400E-002
          19   2.0863241398872179E-002
          20  -2.8904809429020424E-003
Sym=    10a
Ene=  -0.45390090051559423     
Spin= Alpha
Occup=     1.99999664
           1 -0.14782340019867335     
           2  0.21393967215490953     
           3 -0.10678061154284910     
           4  0.11838497984816518     
           5 -0.13907794542960492     
           6 -0.10883921822880729     
           7  0.15289188273314047     
           8 -0.11714346403243062     
           9  0.20511747816673845     
          10  0.19610066491307404     
          11  -6.5982976618741238E-002
          12   9.3318719181042842E-002
          13   7.7997006170258440E-002
          14 -0.10858701114711830     
          15  -3.5077611294212240E-002
          16  -9.6856207674614701E-003
          17 -0.57301087080110336     
          18 -0.51821147901553888     
          19 -0.33824968034241659     
          20   5.5320902313826838E-002
Sym=    11a
Ene=  -0.42995404451051150     
Spin= Alpha
Occup=     1.00000336
           1  0.17107374994709015     
           2 -0.22305186071386296     
           3  0.13560931627321046     
           4 -0.13958875921671104     
           5  -4.1702123871519579E-002
           6 -0.10594937507237906     
           7 -0.30890898599979272     
           8  0.15184845068549782     
           9   1.6481421483423821E-002
          10   6.7133554358164094E-002
          11  0.28934141566005328     
          12 -0.14975266968971096     
          13 -0.19042614764956342     
          14  0.41274049776910487     
          15   8.9780973010728626E-002
          16   5.8653139742290354E-002
          17 -0.23632913205607387     
          18 -0.41553670464807735     
          19  0.29407552530141107     
          20 -0.28533990470528264     
Sym=    12a
Ene=  -0.35892091362139311     
Spin= Alpha
Occup=     0.00000000
           1   5.8458037638976579E-005
           2 -0.11511855004242978     
           3  0.24870740423355067     
           4  0.42716778845090492     
           5  -1.4524960537998829E-004
           6  0.15322377735344334     
           7 -0.33127897384653288     
           8 -0.56894497125162846     
           9   1.4674564071782389E-004
          10   1.3624679957206749E-002
          11  -2.8386957613173645E-002
          12  -4.8999549386018443E-002
          13  -2.3281752308042473E-006
          14  -2.4865610416941342E-002
          15   5.4217126787922024E-002
          16   9.3165974625562878E-002
          17  -9.5965779214772100E-005
          18 -0.14966884710693482     
          19  0.31443030401155353     
          20  0.54095462073503708     
Sym=    13a
Ene=  -0.32694912550990146     
Spin= Alpha
Occup=     0.00000000
           1   1.0371938970877062E-006
           2 -0.13082546216838181     
           3  0.28254360889130026     
           4  0.48531199263852332     
           5   5.4462023390033177E-005
           6  -2.7467651251433991E-002
           7   5.9409174248779367E-002
           8  0.10204904743249936     
           9  -9.0667861786743913E-005
          10  -1.0233314596967602E-002
          11   2.1771794621060058E-002
          12   3.7370378321290740E-002
          13  -2.1998907217668764E-005
          14  0.20864389262321895     
          15 -0.45077752706100449     
          16 -0.77437037378541562     
          17  -2.7936630958376599E-005
          18   2.9970214109058254E-002
          19  -6.3199022179302622E-002
          20 -0.10852400425466015     
Sym=    14a
Ene=  -0.25168994148951951     
Spin= Alpha
Occup=     0.00000000
           1  -3.7901420717937791E-002
           2 -0.32688495773046999     
           3  -3.2577243457070144E-002
           4  -6.8933822287946103E-002
           5   8.4657759623054843E-002
           6   4.5868963691780909E-002
           7   8.2218579743538023E-002
           8  -3.6248030111467683E-002
           9 -0.14404969572643705     
          10  -4.9164416597779641E-002
          11  0.57531338112548613     
          12 -0.34726470016068950     
          13   2.3441565399569438E-002
          14  0.31670317966244421     
          15  -1.3574442055571749E-002
          16   9.3597829864975765E-002
          17  -2.0085351316878164E-002
          18  0.12945151468795876     
          19 -0.64816981392937933     
          20  0.41158839492685950     
Sym=    15a
Ene=  -0.16789618219818170     
Spin= Alpha
Occup=     0.00000000
           1  -3.7273165326485395E-004
           2  -4.1285943481030138E-002
           3   8.9875830706647619E-002
           4  0.15320090623645369     
           5   2.5315177523229817E-003
           6  0.13633825737530419     
           7 -0.29396105878251366     
           8 -0.50313685340834291     
           9  -2.9782902119042383E-003
          10 -0.19243398255107924     
          11  0.41124971709420227     
          12  0.70843603290290402     
          13  -4.1687983892170223E-004
          14  -4.1051104873802702E-002
          15   8.3950822374851297E-002
          16  0.14327047238340110     
          17   1.7462928877297215E-004
          18  0.14514699871337963     
          19 -0.31101753566215884     
          20 -0.53570549648062038     
Sym=    16a
Ene=   -4.2697577551722946E-002
Spin= Alpha
Occup=     0.00000000
           1   9.8253990917135797E-002
           2 -0.35469841728331281     
           3 -0.34322986886454115     
           4  0.10471325809797363     
           5 -0.40496618177707322     
           6   8.1337695498303553E-002
           7  0.63029780490206955     
           8 -0.34681249688015775     
           9  0.29968259396969049     
          10  -5.2674345284562621E-002
          11 -0.30346175497009603     
          12  0.16526728841159097     
          13   9.3659725134042096E-002
          14  0.70384235874308831     
          15 -0.21528003426164896     
          16  0.31540367420819049     
          17  -6.2542891088878935E-002
          18  0.13783700074301303     
          19  0.19880538324374594     
          20  -7.9520429946458415E-002
Sym=    17a
Ene=    9.0459350237398733E-002
Spin= Alpha
Occup=     0.00000000
           1 -0.27416169018623682     
           2 -0.62132576554451802     
           3  -4.5727929208764416E-002
           4 -0.14127479524579645     
           5  0.98101311341745623     
           6  -8.8740066931741635E-002
           7  0.31620550219396454     
           8 -0.20598541659509717     
           9 -0.60039231093801548     
          10  0.30405984546705084     
          11 -0.23388301558875976     
          12  0.21549583950613996     
          13 -0.18349234593967592     
          14 -0.14918195169822326     
          15 -0.19238607097618601     
          16   7.1385169972892973E-002
          17  0.13394726545039176     
          18 -0.33365547954713620     
          19   2.9870458715864457E-002
          20 -0.10734690919595270     
Sym=    18a
Ene=   0.30074435594876742     
Spin= Alpha
Occup=     0.00000000
           1 -0.75330365910264219     
           2  -9.7488458767230474E-002
           3  0.70280341398414214     
           4 -0.43536257845680210     
           5  -2.9839516911012377E-002
           6  -5.6491262187461436E-002
           7  0.32152707985341800     
           8 -0.20261057281597072     
           9  0.12045952208312942     
          10   4.4590211091194085E-002
          11  -9.5921550297803262E-002
          12   6.8424779162826341E-002
          13  0.70269166714971210     
          14  0.26613113526479881     
          15  0.78109692068039083     
          16 -0.38295776417292660     
          17  -5.9806628812388227E-002
          18   7.4279074976093110E-002
          19   6.5873018993407972E-002
          20  -1.8016456391787089E-002
Sym=    19a
Ene=   0.51670644086443662     
Spin= Alpha
Occup=     0.00000000
           1 -0.26627495769704979     
           2 -0.36976171354514581     
           3   4.1138926744370488E-002
           4 -0.12333633233541509     
           5  0.27522936296194478     
           6 -0.98805884272251232     
           7 -0.12903780777498330     
           8 -0.19249584893234450     
           9  0.98895195416475778     
          10  0.12683014599404355     
          11  0.18393975185694647     
          12  -6.9818161283633218E-002
          13 -0.36477253718870706     
          14 -0.35108715107443961     
          15 -0.21820852917685626     
          16   3.2637582170948219E-002
          17 -0.45717644524105272     
          18  0.59925908081148904     
          19  0.17650662242050474     
          20   6.1604031540601734E-002
Sym=    20a
Ene=    1.1031130239490998     
Spin= Alpha
Occup=     0.00000000
           1  0.21816523500421478     
           2  0.18632872408060525     
           3  -6.6701794914831275E-002
           4   8.9038230965827872E-002
           5  0.41513829614814457     
           6  0.92215188283781735     
           7   1.6526967698579999E-002
           8  0.23895991804991737     
           9   7.8049602721017311E-002
          10   1.3679568948164493     
          11  0.32991033778726342     
          12  0.18167506058309757     
          13  0.15287431085490064     
          14  0.12398718436418128     
          15   7.1852080550234593E-002
          16  -8.4152046929445723E-003
          17 -0.77763155070686052     
          18  0.71377164963274586     
          19  0.29802666079200135     
          20   2.3807291492199009E-002
