5
 energy: -10.940849301290 gnorm: 0.335589200440 xtb: 6.2.2 (9d81278992624c895f80dd42a50cac0aa55982e2)
N        -1.18951100000000    0.42767600000000   -0.73995400000000
C        -0.38691000000000    0.10849600000000    0.44967900000000
C         0.97423800000000   -0.38981100000000    0.01035900000000
C        -1.41424000000000   -0.82207700000000   -0.00003600000000
C         2.01642200000000    0.67571600000000    0.27995200000000
5
 energy: -11.045777733438 gnorm: 0.201924418296 xtb: 6.2.2 (9d81278992624c895f80dd42a50cac0aa55982e2)
N        -1.23258566258002    0.41158592821197   -0.69195203542998
C        -0.32092730447258    0.05398538109137    0.34327212789237
C         1.03308441784917   -0.30893043536275    0.09405742101358
C        -1.44553096153990   -0.78101323281186   -0.00977664478484
C         1.96595851074332    0.62437235887127    0.26439913130886
5
 energy: -11.073721776821 gnorm: 0.320851399528 xtb: 6.2.2 (9d81278992624c895f80dd42a50cac0aa55982e2)
N        -1.23800564172753    0.35763678816438   -0.64143984191915
C        -0.27084187281621   -0.03455462376627    0.22664254148816
C         1.05716625064332   -0.13298128036152    0.14892819008618
C        -1.51293531259102   -0.73608192626140    0.00035744486704
C         1.96461557649144    0.54598104222481    0.26551166547777
5
 energy: -11.109114013779 gnorm: 0.079812386514 xtb: 6.2.2 (9d81278992624c895f80dd42a50cac0aa55982e2)
N        -1.29355095738676    0.36118501173657   -0.62188149881489
C        -0.31733314330448   -0.09075672571874    0.17737573242637
C         1.03268986483578   -0.07055938244910    0.23461149561300
C        -1.56427346467525   -0.76070707834963   -0.02976179001115
C         2.14246670053071    0.56083817478090    0.23965606078667
5
 energy: -11.115011860599 gnorm: 0.047450638133 xtb: 6.2.2 (9d81278992624c895f80dd42a50cac0aa55982e2)
N        -1.36073444732700    0.36970321637783   -0.62061301975076
C        -0.28385114908127   -0.10654485007863    0.08860676449024
C         1.05065643972133   -0.03886444922804    0.24900611542740
C        -1.58422031775457   -0.76968539317860    0.00502098377956
C         2.17814847444151    0.54539147610744    0.27797915605357
5
 energy: -11.118421807905 gnorm: 0.040072922253 xtb: 6.2.2 (9d81278992624c895f80dd42a50cac0aa55982e2)
N        -1.35437303771785    0.37846504395632   -0.60099349924262
C        -0.27570790637866   -0.11899955198772    0.04501328376320
C         1.01519741761974    0.00320921651470    0.28162027516998
C        -1.56313658141912   -0.78193146357684    0.00774068750512
C         2.17801910789589    0.51925675509354    0.26661925280431
5
 energy: -11.119419455172 gnorm: 0.010152145791 xtb: 6.2.2 (9d81278992624c895f80dd42a50cac0aa55982e2)
N        -1.37227469714180    0.36552914135890   -0.59549821486635
C        -0.27016569396965   -0.11598575595232    0.00172840930816
C         1.01770212947566    0.03492695043081    0.26295398817089
C        -1.56273644125867   -0.78101494626181    0.03323219039932
C         2.18747370289446    0.49654461042441    0.29758362698798
5
 energy: -11.119620699617 gnorm: 0.009431178251 xtb: 6.2.2 (9d81278992624c895f80dd42a50cac0aa55982e2)
N        -1.38809337359125    0.36437022046360   -0.59323567043873
C        -0.26999574762283   -0.09753600760016   -0.01454243019794
C         1.01255852772382    0.03931580427098    0.25451082253943
C        -1.54015707959229   -0.78704531164019    0.04180862821761
C         2.18568667308255    0.48089529450577    0.31145864987963
5
 energy: -11.119590602130 gnorm: 0.011290312175 xtb: 6.2.2 (9d81278992624c895f80dd42a50cac0aa55982e2)
N        -1.40069172319709    0.36467961442527   -0.58777543363808
C        -0.27745571121493   -0.08848200393044   -0.02512647748737
C         1.01171978949998    0.04951876919278    0.26183804467471
C        -1.52822878232153   -0.79397369837944    0.03942605585960
C         2.19465542723357    0.46825731869183    0.31163781059114
5
 energy: -11.119679565312 gnorm: 0.002320973210 xtb: 6.2.2 (9d81278992624c895f80dd42a50cac0aa55982e2)
N        -1.39886965001883    0.36067134142744   -0.59141626717136
C        -0.27359629184983   -0.08649459331926   -0.02476482830036
C         1.01270090659564    0.04717529067337    0.24782137808818
C        -1.53272662452835   -0.79179748864454    0.04689385860772
C         2.19249065980137    0.47044544986299    0.32146585877582
5
 energy: -11.119683331010 gnorm: 0.002520805449 xtb: 6.2.2 (9d81278992624c895f80dd42a50cac0aa55982e2)
N        -1.39700293392163    0.36150303866573   -0.59029652871709
C        -0.27293514612688   -0.08666557261194   -0.02481490085007
C         1.01371488543846    0.04416871728367    0.24890041722077
C        -1.53364667399825   -0.79138404931963    0.04608159457084
C         2.18986886860829    0.47237786598217    0.32012941777556
5
 energy: -11.119688127605 gnorm: 0.001309217027 xtb: 6.2.2 (9d81278992624c895f80dd42a50cac0aa55982e2)
N        -1.40010731753440    0.36021313989056   -0.58988933494844
C        -0.27269634425516   -0.08333506746237   -0.02767582479051
C         1.01383566818479    0.04502921885430    0.24627401124229
C        -1.53280635437079   -0.79255379950241    0.04764649469802
C         2.19177334797556    0.47064650821992    0.32364465379865
5
 energy: -11.119689138981 gnorm: 0.000907265608 xtb: 6.2.2 (9d81278992624c895f80dd42a50cac0aa55982e2)
N        -1.40028248777102    0.35998074218024   -0.58895065388571
C        -0.27309304310204   -0.08161911733605   -0.02811606865107
C         1.01336022792861    0.04502111488636    0.24644530897832
C        -1.53240817813145   -0.79358834447531    0.04698836001043
C         2.19242248107589    0.47020560474477    0.32363305354802
