 Entering Gaussian System, Link 0=g16
 Initial command:
 /applis/site/cecic/gaussian16/B.01/nehalem/g16/l1.exe "/bettik/tinaccil/g16/12754509_P/Gau-226739.inp" -scrdir="/bettik/tinaccil/g16/12754509_P/"
 Entering Link 1 = /applis/site/cecic/gaussian16/B.01/nehalem/g16/l1.exe PID=    226755.
  
 Copyright (c) 1988-2017, Gaussian, Inc.  All Rights Reserved.
  
 This is part of the Gaussian(R) 16 program.  It is based on
 the Gaussian(R) 09 system (copyright 2009, Gaussian, Inc.),
 the Gaussian(R) 03 system (copyright 2003, Gaussian, Inc.),
 the Gaussian(R) 98 system (copyright 1998, Gaussian, Inc.),
 the Gaussian(R) 94 system (copyright 1995, Gaussian, Inc.),
 the Gaussian 92(TM) system (copyright 1992, Gaussian, Inc.),
 the Gaussian 90(TM) system (copyright 1990, Gaussian, Inc.),
 the Gaussian 88(TM) system (copyright 1988, Gaussian, Inc.),
 the Gaussian 86(TM) system (copyright 1986, Carnegie Mellon
 University), and the Gaussian 82(TM) system (copyright 1983,
 Carnegie Mellon University). Gaussian is a federally registered
 trademark of Gaussian, Inc.
  
 This software contains proprietary and confidential information,
 including trade secrets, belonging to Gaussian, Inc.
  
 This software is provided under written license and may be
 used, copied, transmitted, or stored only in accord with that
 written license.
  
 The following legend is applicable only to US Government
 contracts under FAR:
  
                    RESTRICTED RIGHTS LEGEND
  
 Use, reproduction and disclosure by the US Government is
 subject to restrictions as set forth in subparagraphs (a)
 and (c) of the Commercial Computer Software - Restricted
 Rights clause in FAR 52.227-19.
  
 Gaussian, Inc.
 340 Quinnipiac St., Bldg. 40, Wallingford CT 06492
  
  
 ---------------------------------------------------------------
 Warning -- This program may not be used in any manner that
 competes with the business of Gaussian, Inc. or will provide
 assistance to any competitor of Gaussian, Inc.  The licensee
 of this program is prohibited from giving any competitor of
 Gaussian, Inc. access to this program.  By using this program,
 the user acknowledges that Gaussian, Inc. is engaged in the
 business of creating and licensing software in the field of
 computational chemistry and represents and warrants to the
 licensee that it is not a competitor of Gaussian, Inc. and that
 it will not use this program in any manner prohibited above.
 ---------------------------------------------------------------
  

 Cite this work as:
 Gaussian 16, Revision B.01,
 M. J. Frisch, G. W. Trucks, H. B. Schlegel, G. E. Scuseria, 
 M. A. Robb, J. R. Cheeseman, G. Scalmani, V. Barone, 
 G. A. Petersson, H. Nakatsuji, X. Li, M. Caricato, A. V. Marenich, 
 J. Bloino, B. G. Janesko, R. Gomperts, B. Mennucci, H. P. Hratchian, 
 J. V. Ortiz, A. F. Izmaylov, J. L. Sonnenberg, D. Williams-Young, 
 F. Ding, F. Lipparini, F. Egidi, J. Goings, B. Peng, A. Petrone, 
 T. Henderson, D. Ranasinghe, V. G. Zakrzewski, J. Gao, N. Rega, 
 G. Zheng, W. Liang, M. Hada, M. Ehara, K. Toyota, R. Fukuda, 
 J. Hasegawa, M. Ishida, T. Nakajima, Y. Honda, O. Kitao, H. Nakai, 
 T. Vreven, K. Throssell, J. A. Montgomery, Jr., J. E. Peralta, 
 F. Ogliaro, M. J. Bearpark, J. J. Heyd, E. N. Brothers, K. N. Kudin, 
 V. N. Staroverov, T. A. Keith, R. Kobayashi, J. Normand, 
 K. Raghavachari, A. P. Rendell, J. C. Burant, S. S. Iyengar, 
 J. Tomasi, M. Cossi, J. M. Millam, M. Klene, C. Adamo, R. Cammi, 
 J. W. Ochterski, R. L. Martin, K. Morokuma, O. Farkas, 
 J. B. Foresman, and D. J. Fox, Gaussian, Inc., Wallingford CT, 2016.
 
 ******************************************
 Gaussian 16:  ES64L-G16RevB.01 20-Dec-2017
                 5-Oct-2020 
 ******************************************
 %nosave
 %nproc=8
 Will use up to    8 processors via shared memory.
 %mem=2gb
 %chk=input
 ------------------------
 #P ROCCSD(T)/aug-cc-pvtz
 ------------------------
 1/38=1,172=1/1;
 2/12=2,17=6,18=5,40=1/2;
 3/5=16,6=1,7=10,11=2,25=1,30=1,116=101/1,2,3;
 4//1;
 5/5=2,38=5/2;
 8/5=-1,6=4,9=120000,10=1/1,4;
 9/5=7,14=2/13;
 6/7=2,8=2,9=2,10=2/1;
 99/5=1,9=1/99;
 Leave Link    1 at Mon Oct  5 21:36:17 2020, MaxMem=   268435456 cpu:               0.6 elap:               0.2
 (Enter /applis/site/cecic/gaussian16/B.01/nehalem/g16/l101.exe)
 -----
 Title
 -----
 Symbolic Z-matrix:
 Charge =  1 Multiplicity = 3
 P
 
 ITRead=  0
 MicOpt= -1
 NAtoms=      1 NQM=        1 NQMF=       0 NMMI=      0 NMMIF=      0
                NMic=       0 NMicF=      0.
                    Isotopes and Nuclear Properties:
 (Nuclear quadrupole moments (NQMom) in fm**2, nuclear magnetic moments (NMagM)
  in nuclear magnetons)

  Atom         1
 IAtWgt=          31
 AtmWgt=  30.9737634
 NucSpn=           1
 AtZEff=  -0.0000000
 NQMom=    0.0000000
 NMagM=    1.1316000
 AtZNuc=  15.0000000
 Leave Link  101 at Mon Oct  5 21:36:17 2020, MaxMem=   268435456 cpu:               1.9 elap:               0.5
 (Enter /applis/site/cecic/gaussian16/B.01/nehalem/g16/l202.exe)
                          Input orientation:                          
 ---------------------------------------------------------------------
 Center     Atomic      Atomic             Coordinates (Angstroms)
 Number     Number       Type             X           Y           Z
 ---------------------------------------------------------------------
      1         15           0        0.000000    0.000000    0.000000
 ---------------------------------------------------------------------
 Stoichiometry    P(1+,3)
 Framework group  OH[O(P)]
 Deg. of freedom     0
 Full point group                 OH      NOp  48
 Largest Abelian subgroup         D2H     NOp   8
 Largest concise Abelian subgroup C1      NOp   1
                         Standard orientation:                         
 ---------------------------------------------------------------------
 Center     Atomic      Atomic             Coordinates (Angstroms)
 Number     Number       Type             X           Y           Z
 ---------------------------------------------------------------------
      1         15           0        0.000000    0.000000    0.000000
 ---------------------------------------------------------------------
 Leave Link  202 at Mon Oct  5 21:36:18 2020, MaxMem=   268435456 cpu:               1.4 elap:               0.3
 (Enter /applis/site/cecic/gaussian16/B.01/nehalem/g16/l301.exe)
 Standard basis: Aug-CC-pVTZ (5D, 7F)
 Ernie: Thresh=  0.10000D-02 Tol=  0.10000D-05 Strict=F.
 Ernie:  12 primitive shells out of 64 were deleted.
 There are    15 symmetry adapted cartesian basis functions of AG  symmetry.
 There are     3 symmetry adapted cartesian basis functions of B1G symmetry.
 There are     3 symmetry adapted cartesian basis functions of B2G symmetry.
 There are     3 symmetry adapted cartesian basis functions of B3G symmetry.
 There are     2 symmetry adapted cartesian basis functions of AU  symmetry.
 There are    11 symmetry adapted cartesian basis functions of B1U symmetry.
 There are    11 symmetry adapted cartesian basis functions of B2U symmetry.
 There are    11 symmetry adapted cartesian basis functions of B3U symmetry.
 There are    12 symmetry adapted basis functions of AG  symmetry.
 There are     3 symmetry adapted basis functions of B1G symmetry.
 There are     3 symmetry adapted basis functions of B2G symmetry.
 There are     3 symmetry adapted basis functions of B3G symmetry.
 There are     2 symmetry adapted basis functions of AU  symmetry.
 There are     9 symmetry adapted basis functions of B1U symmetry.
 There are     9 symmetry adapted basis functions of B2U symmetry.
 There are     9 symmetry adapted basis functions of B3U symmetry.
    50 basis functions,   115 primitive gaussians,    59 cartesian basis functions
     8 alpha electrons        6 beta electrons
       nuclear repulsion energy         0.0000000000 Hartrees.
 IExCor=    0 DFT=F Ex=HF Corr=None ExCW=0 ScaHFX=  1.000000
 ScaDFX=  1.000000  1.000000  1.000000  1.000000 ScalE2=  1.000000  1.000000
 IRadAn=      5 IRanWt=     -1 IRanGd=            0 ICorTp=0 IEmpDi=  4
 NAtoms=    1 NActive=    1 NUniq=    1 SFac= 1.00D+00 NAtFMM=   60 NAOKFM=F Big=F
 Integral buffers will be    131072 words long.
 Raffenetti 2 integral format.
 Two-electron integral symmetry is turned on.
 Leave Link  301 at Mon Oct  5 21:36:18 2020, MaxMem=   268435456 cpu:               1.7 elap:               0.4
 (Enter /applis/site/cecic/gaussian16/B.01/nehalem/g16/l302.exe)
 NPDir=0 NMtPBC=     1 NCelOv=     1 NCel=       1 NClECP=     1 NCelD=      1
         NCelK=      1 NCelE2=     1 NClLst=     1 CellRange=     0.0.
 One-electron integrals computed using PRISM.
 One-electron integral symmetry used in STVInt
 NBasis=    50 RedAO= T EigKep=  1.59D-02  NBF=    12     3     3     3     2     9     9     9
 NBsUse=    50 1.00D-06 EigRej= -1.00D+00 NBFU=    12     3     3     3     2     9     9     9
 Leave Link  302 at Mon Oct  5 21:36:25 2020, MaxMem=   268435456 cpu:              39.2 elap:               6.6
 (Enter /applis/site/cecic/gaussian16/B.01/nehalem/g16/l303.exe)
 DipDrv:  MaxL=1.
 Leave Link  303 at Mon Oct  5 21:36:25 2020, MaxMem=   268435456 cpu:               2.7 elap:               0.7
 (Enter /applis/site/cecic/gaussian16/B.01/nehalem/g16/l401.exe)
 ExpMin= 3.07D-02 ExpMax= 3.12D+05 ExpMxC= 9.87D+02 IAcc=3 IRadAn=         5 AccDes= 0.00D+00
 Harris functional with IExCor=  205 and IRadAn=       5 diagonalized for initial guess.
 HarFok:  IExCor=  205 AccDes= 0.00D+00 IRadAn=         5 IDoV= 1 UseB2=F ITyADJ=14
 ICtDFT=  3500011 ScaDFX=  1.000000  1.000000  1.000000  1.000000
 FoFCou: FMM=F IPFlag=           0 FMFlag=      100000 FMFlg1=           0
         NFxFlg=           0 DoJE=T BraDBF=F KetDBF=T FulRan=T
         wScrn=  0.000000 ICntrl=       500 IOpCl=  0 I1Cent=   200000004 NGrid=           0
         NMat0=    1 NMatS0=      1 NMatT0=    0 NMatD0=    1 NMtDS0=    0 NMtDT0=    0
 Petite list used in FoFCou.
 Harris En= -340.015411726144    
 JPrj=0 DoOrth=F DoCkMO=F.
 Initial guess orbital symmetries:
       Occupied  (A1G) (A1G) (T1U) (T1U) (T1U) (A1G) (T1U) (T1U)
       Virtual   (T1U) (A1G) (T1U) (T1U) (T1U) (T2G) (T2G) (T2G)
                 (EG) (EG) (T1U) (T1U) (T1U) (T2G) (T2G) (T2G)
                 (EG) (EG) (A1G) (T2U) (T2U) (T2U) (A2U) (T1U)
                 (T1U) (T1U) (T2G) (T2G) (T2G) (EG) (EG) (T2U)
                 (T2U) (T2U) (A2U) (T1U) (T1U) (T1U) (T1U) (T1U)
                 (T1U) (A1G)
 Leave Link  401 at Mon Oct  5 21:36:34 2020, MaxMem=   268435456 cpu:              40.5 elap:               8.4
 (Enter /applis/site/cecic/gaussian16/B.01/nehalem/g16/l502.exe)
 Keep R1 and R2 ints in memory in symmetry-blocked form, NReq=4747264.
 FoFCou: FMM=F IPFlag=           0 FMFlag=           0 FMFlg1=           0
         NFxFlg=           0 DoJE=F BraDBF=F KetDBF=F FulRan=T
         wScrn=  0.000000 ICntrl=       600 IOpCl=  0 I1Cent=           0 NGrid=           0
         NMat0=    1 NMatS0=   1275 NMatT0=    0 NMatD0=    1 NMtDS0=    0 NMtDT0=    0
 Petite list used in FoFCou.
 Restricted open shell SCF:
 Using DIIS extrapolation, IDIIS=  1040.
 NGot=   268435456 LenX=   268204232 LenY=   268200310
 Requested convergence on RMS density matrix=1.00D-08 within 128 cycles.
 Requested convergence on MAX density matrix=1.00D-06.
 Requested convergence on             energy=1.00D-06.
 No special actions if energy rises.

 Cycle   1  Pass 1  IDiag  1:
 Density matrix breaks symmetry, PCut= 1.00D-07
 Density has only Abelian symmetry.
 E= -340.291256467226    
 DIIS: error= 7.07D-02 at cycle   1 NSaved=   1.
 NSaved= 1 IEnMin= 1 EnMin= -340.291256467226     IErMin= 1 ErrMin= 7.07D-02
 ErrMax= 7.07D-02  0.00D+00 EMaxC= 1.00D-01 BMatC= 1.15D-01 BMatP= 1.15D-01
 IDIUse=3 WtCom= 2.93D-01 WtEn= 7.07D-01
 Coeff-Com:  0.100D+01
 Coeff-En:   0.100D+01
 Coeff:      0.100D+01
 Gap=     0.000 Goal=   None    Shift=    0.000
 GapD=    0.000 DampG=0.250 DampE=0.500 DampFc=0.2500 IDamp=-1.
 Damping current iteration by 2.50D-01
 RMSDP=1.27D-02 MaxDP=3.27D-01              OVMax= 2.61D-01

 Cycle   2  Pass 1  IDiag  1:
 Density matrix breaks symmetry, PCut= 1.00D-07
 Density has only Abelian symmetry.
 E= -340.236188399006     Delta-E=        0.055068068220 Rises=F Damp=T
 DIIS: error= 5.20D-02 at cycle   2 NSaved=   2.
 NSaved= 2 IEnMin= 1 EnMin= -340.291256467226     IErMin= 2 ErrMin= 5.20D-02
 ErrMax= 5.20D-02  0.00D+00 EMaxC= 1.00D-01 BMatC= 5.19D-02 BMatP= 1.15D-01
 IDIUse=3 WtCom= 4.80D-01 WtEn= 5.20D-01
 Coeff-Com: -0.837D+00 0.184D+01
 Coeff-En:   0.817D+00 0.183D+00
 Coeff:      0.231D-01 0.977D+00
 Gap=     0.065 Goal=   None    Shift=    0.000
 RMSDP=5.09D-03 MaxDP=1.67D-01 DE= 5.51D-02 OVMax= 2.57D-01

 Cycle   3  Pass 1  IDiag  1:
 Density matrix breaks symmetry, PCut= 1.00D-07
 Density has only Abelian symmetry.
 E= -340.330843304291     Delta-E=       -0.094654905285 Rises=F Damp=F
 DIIS: error= 2.84D-02 at cycle   3 NSaved=   3.
 NSaved= 3 IEnMin= 3 EnMin= -340.330843304291     IErMin= 3 ErrMin= 2.84D-02
 ErrMax= 2.84D-02  0.00D+00 EMaxC= 1.00D-01 BMatC= 8.90D-03 BMatP= 5.19D-02
 IDIUse=3 WtCom= 7.16D-01 WtEn= 2.84D-01
 Coeff-Com: -0.522D+00 0.778D+00 0.744D+00
 Coeff-En:   0.000D+00 0.000D+00 0.100D+01
 Coeff:     -0.374D+00 0.557D+00 0.817D+00
 Gap=     0.043 Goal=   None    Shift=    0.000
 RMSDP=2.39D-03 MaxDP=7.98D-02 DE=-9.47D-02 OVMax= 1.17D-01

 Cycle   4  Pass 1  IDiag  1:
 Density matrix breaks symmetry, PCut= 1.00D-07
 Density has only Abelian symmetry.
 E= -340.343862094388     Delta-E=       -0.013018790097 Rises=F Damp=F
 DIIS: error= 9.48D-03 at cycle   4 NSaved=   4.
 NSaved= 4 IEnMin= 4 EnMin= -340.343862094388     IErMin= 4 ErrMin= 9.48D-03
 ErrMax= 9.48D-03  0.00D+00 EMaxC= 1.00D-01 BMatC= 1.85D-03 BMatP= 8.90D-03
 IDIUse=3 WtCom= 9.05D-01 WtEn= 9.48D-02
 Coeff-Com: -0.342D+00 0.477D+00 0.217D+00 0.648D+00
 Coeff-En:   0.000D+00 0.000D+00 0.000D+00 0.100D+01
 Coeff:     -0.310D+00 0.432D+00 0.197D+00 0.681D+00
 Gap=     0.029 Goal=   None    Shift=    0.000
 RMSDP=8.88D-04 MaxDP=2.67D-02 DE=-1.30D-02 OVMax= 2.94D-02

 Cycle   5  Pass 1  IDiag  1:
 Density matrix breaks symmetry, PCut= 1.00D-07
 Density has only Abelian symmetry.
 E= -340.343412824227     Delta-E=        0.000449270161 Rises=F Damp=F
 DIIS: error= 1.26D-02 at cycle   5 NSaved=   5.
 NSaved= 5 IEnMin= 4 EnMin= -340.343862094388     IErMin= 4 ErrMin= 9.48D-03
 ErrMax= 1.26D-02  0.00D+00 EMaxC= 1.00D-01 BMatC= 1.95D-03 BMatP= 1.85D-03
 IDIUse=3 WtCom= 8.74D-01 WtEn= 1.26D-01
 Coeff-Com: -0.254D+00 0.333D+00-0.197D+00-0.220D+00 0.134D+01
 Coeff-En:   0.000D+00 0.000D+00 0.000D+00 0.988D+00 0.123D-01
 Coeff:     -0.222D+00 0.291D+00-0.172D+00-0.685D-01 0.117D+01
 Gap=     0.013 Goal=   None    Shift=    0.000
 RMSDP=6.53D-04 MaxDP=2.12D-02 DE= 4.49D-04 OVMax= 3.28D-02

 Cycle   6  Pass 1  IDiag  1:
 Density matrix breaks symmetry, PCut= 1.00D-07
 Density has only Abelian symmetry.
 E= -340.345715123025     Delta-E=       -0.002302298798 Rises=F Damp=F
 DIIS: error= 6.98D-03 at cycle   6 NSaved=   6.
 NSaved= 6 IEnMin= 6 EnMin= -340.345715123025     IErMin= 6 ErrMin= 6.98D-03
 ErrMax= 6.98D-03  0.00D+00 EMaxC= 1.00D-01 BMatC= 7.46D-04 BMatP= 1.85D-03
 IDIUse=3 WtCom= 9.30D-01 WtEn= 6.98D-02
 Coeff-Com:  0.271D-01-0.273D-01 0.348D-01-0.757D+00-0.132D+01 0.304D+01
 Coeff-En:   0.000D+00 0.000D+00 0.000D+00 0.000D+00 0.000D+00 0.100D+01
 Coeff:      0.252D-01-0.254D-01 0.324D-01-0.704D+00-0.123D+01 0.290D+01
 Gap=     0.004 Goal=   None    Shift=    0.000
 RMSDP=1.16D-02 MaxDP=4.02D-01 DE=-2.30D-03 OVMax= 4.60D-02

 Cycle   7  Pass 1  IDiag  1:
 Density matrix breaks symmetry, PCut= 1.00D-07
 Density has only Abelian symmetry.
 E= -340.332421100848     Delta-E=        0.013294022178 Rises=F Damp=F
 DIIS: error= 2.46D-02 at cycle   7 NSaved=   7.
 NSaved= 7 IEnMin= 6 EnMin= -340.345715123025     IErMin= 6 ErrMin= 6.98D-03
 ErrMax= 2.46D-02  0.00D+00 EMaxC= 1.00D-01 BMatC= 9.19D-03 BMatP= 7.46D-04
 IDIUse=2 WtCom= 0.00D+00 WtEn= 1.00D+00
 Coeff-En:   0.000D+00 0.000D+00 0.000D+00 0.000D+00 0.000D+00 0.672D+00
 Coeff-En:   0.328D+00
 Coeff:      0.000D+00 0.000D+00 0.000D+00 0.000D+00 0.000D+00 0.672D+00
 Coeff:      0.328D+00
 Gap=     0.003 Goal=   None    Shift=    0.000
 RMSDP=1.24D-02 MaxDP=4.39D-01 DE= 1.33D-02 OVMax= 7.90D-02

 Cycle   8  Pass 1  IDiag  1:
 Density matrix breaks symmetry, PCut= 1.00D-07
 Density has only Abelian symmetry.
 E= -340.341280766129     Delta-E=       -0.008859665282 Rises=F Damp=F
 DIIS: error= 1.30D-02 at cycle   8 NSaved=   8.
 NSaved= 8 IEnMin= 6 EnMin= -340.345715123025     IErMin= 6 ErrMin= 6.98D-03
 ErrMax= 1.30D-02  0.00D+00 EMaxC= 1.00D-01 BMatC= 4.54D-03 BMatP= 7.46D-04
 IDIUse=2 WtCom= 0.00D+00 WtEn= 1.00D+00
 EnCoef did     1 forward-backward iterations
 Coeff-En:   0.000D+00 0.000D+00 0.000D+00 0.000D+00 0.000D+00 0.530D+00
 Coeff-En:   0.164D+00 0.306D+00
 Coeff:      0.000D+00 0.000D+00 0.000D+00 0.000D+00 0.000D+00 0.530D+00
 Coeff:      0.164D+00 0.306D+00
 Gap=     0.000 Goal=   None    Shift=    0.000
 RMSDP=1.22D-02 MaxDP=3.97D-01 DE=-8.86D-03 OVMax= 5.15D-02

 Cycle   9  Pass 1  IDiag  1:
 Density matrix breaks symmetry, PCut= 1.00D-07
 Density has only Abelian symmetry.
 E= -340.343507910983     Delta-E=       -0.002227144853 Rises=F Damp=F
 DIIS: error= 1.03D-02 at cycle   9 NSaved=   9.
 NSaved= 9 IEnMin= 6 EnMin= -340.345715123025     IErMin= 6 ErrMin= 6.98D-03
 ErrMax= 1.03D-02  0.00D+00 EMaxC= 1.00D-01 BMatC= 2.88D-03 BMatP= 7.46D-04
 IDIUse=2 WtCom= 0.00D+00 WtEn= 1.00D+00
 EnCoef did    41 forward-backward iterations
 Coeff-En:   0.000D+00 0.000D+00 0.000D+00 0.391D+00 0.000D+00 0.377D-02
 Coeff-En:   0.000D+00 0.285D+00 0.320D+00
 Coeff:      0.000D+00 0.000D+00 0.000D+00 0.391D+00 0.000D+00 0.377D-02
 Coeff:      0.000D+00 0.285D+00 0.320D+00
 Gap=     0.000 Goal=   None    Shift=    0.000
 RMSDP=1.22D-02 MaxDP=3.99D-01 DE=-2.23D-03 OVMax= 2.02D-02

 Cycle  10  Pass 1  IDiag  1:
 Density matrix breaks symmetry, PCut= 1.00D-07
 Density has only Abelian symmetry.
 E= -340.344906744921     Delta-E=       -0.001398833938 Rises=F Damp=F
 DIIS: error= 7.28D-03 at cycle  10 NSaved=  10.
 NSaved=10 IEnMin= 6 EnMin= -340.345715123025     IErMin= 6 ErrMin= 6.98D-03
 ErrMax= 7.28D-03  0.00D+00 EMaxC= 1.00D-01 BMatC= 1.84D-03 BMatP= 7.46D-04
 IDIUse=3 WtCom= 9.30D-01 WtEn= 6.98D-02
 EnCoef did   100 forward-backward iterations
 Coeff-Com: -0.563D-03 0.106D-01 0.257D-01-0.698D+00-0.104D+01 0.263D+01
 Coeff-Com: -0.167D-03-0.131D+00 0.585D-01 0.144D+00
 Coeff-En:   0.000D+00 0.000D+00 0.000D+00 0.352D+00 0.000D+00 0.381D-02
 Coeff-En:   0.000D+00 0.723D-03 0.319D+00 0.324D+00
 Coeff:     -0.524D-03 0.990D-02 0.239D-01-0.624D+00-0.967D+00 0.245D+01
 Coeff:     -0.155D-03-0.122D+00 0.767D-01 0.157D+00
 Gap=     0.003 Goal=   None    Shift=    0.000
 RMSDP=2.03D-03 MaxDP=9.06D-02 DE=-1.40D-03 OVMax= 9.95D-02

 Cycle  11  Pass 1  IDiag  1:
 Density matrix breaks symmetry, PCut= 1.00D-07
 Density has only Abelian symmetry.
 E= -340.335372513282     Delta-E=        0.009534231639 Rises=F Damp=F
 DIIS: error= 2.20D-02 at cycle  11 NSaved=  11.
 NSaved=11 IEnMin= 6 EnMin= -340.345715123025     IErMin= 6 ErrMin= 6.98D-03
 ErrMax= 2.20D-02  0.00D+00 EMaxC= 1.00D-01 BMatC= 7.61D-03 BMatP= 7.46D-04
 IDIUse=2 WtCom= 0.00D+00 WtEn= 1.00D+00
 EnCoef did   100 forward-backward iterations
 Rare condition: small coef for last iteration:  0.178D-14
 Coeff-En:   0.000D+00 0.000D+00 0.000D+00 0.160D-02 0.000D+00 0.461D+00
 Coeff-En:   0.000D+00 0.143D+00 0.258D+00 0.000D+00 0.135D+00
 Coeff:      0.000D+00 0.000D+00 0.000D+00 0.160D-02 0.000D+00 0.461D+00
 Coeff:      0.000D+00 0.143D+00 0.258D+00 0.000D+00 0.135D+00
 Gap=     0.000 Goal=   None    Shift=    0.000
 RMSDP=1.24D-02 MaxDP=4.23D-01 DE= 9.53D-03 OVMax= 8.93D-02

 Cycle  12  Pass 1  IDiag  1:
 Density matrix breaks symmetry, PCut= 1.00D-07
 Density has only Abelian symmetry.
 E= -340.344418225072     Delta-E=       -0.009045711790 Rises=F Damp=F
 DIIS: error= 8.92D-03 at cycle  12 NSaved=  12.
 NSaved=12 IEnMin= 6 EnMin= -340.345715123025     IErMin= 6 ErrMin= 6.98D-03
 ErrMax= 8.92D-03  0.00D+00 EMaxC= 1.00D-01 BMatC= 2.20D-03 BMatP= 7.46D-04
 IDIUse=3 WtCom= 9.30D-01 WtEn= 6.98D-02
 EnCoef did   100 forward-backward iterations
 Coeff-Com: -0.101D+00 0.143D+00-0.264D-01-0.580D+00-0.360D+00 0.190D+01
 Coeff-Com: -0.212D+00-0.387D+00 0.105D+01 0.214D+00 0.272D+00-0.911D+00
 Coeff-En:   0.000D+00 0.000D+00 0.000D+00 0.358D+00 0.467D-03 0.669D-03
 Coeff-En:   0.000D+00 0.336D-03 0.318D+00 0.312D+00 0.106D-01 0.176D-04
 Coeff:     -0.943D-01 0.133D+00-0.245D-01-0.514D+00-0.335D+00 0.176D+01
 Coeff:     -0.197D+00-0.360D+00 0.100D+01 0.221D+00 0.253D+00-0.847D+00
 Gap=     0.004 Goal=   None    Shift=    0.000
 RMSDP=1.22D-02 MaxDP=4.24D-01 DE=-9.05D-03 OVMax= 1.83D-02

 Cycle  13  Pass 1  IDiag  1:
 Density matrix breaks symmetry, PCut= 1.00D-07
 Density has only Abelian symmetry.
 E= -340.346335087367     Delta-E=       -0.001916862296 Rises=F Damp=F
 DIIS: error= 6.10D-03 at cycle  13 NSaved=  13.
 NSaved=13 IEnMin=13 EnMin= -340.346335087367     IErMin=13 ErrMin= 6.10D-03
 ErrMax= 6.10D-03  0.00D+00 EMaxC= 1.00D-01 BMatC= 4.13D-04 BMatP= 7.46D-04
 IDIUse=3 WtCom= 9.39D-01 WtEn= 6.10D-02
 EnCoef did   100 forward-backward iterations
 Rare condition: small coef for last iteration:  0.000D+00
 Coeff-Com: -0.118D+00 0.165D+00-0.289D-01-0.494D+00-0.236D+00 0.145D+01
 Coeff-Com: -0.110D+00-0.334D+00 0.142D+01 0.300D+00 0.141D+00-0.146D+01
 Coeff-Com:  0.297D+00
 Coeff-En:   0.000D+00 0.000D+00 0.000D+00 0.113D-01 0.000D+00 0.138D+00
 Coeff-En:   0.000D+00 0.000D+00 0.000D+00 0.113D+00 0.154D+00 0.264D+00
 Coeff-En:   0.319D+00
 Coeff:     -0.118D+00 0.165D+00-0.289D-01-0.494D+00-0.236D+00 0.145D+01
 Coeff:     -0.110D+00-0.334D+00 0.142D+01 0.300D+00 0.141D+00-0.146D+01
 Coeff:      0.297D+00
 Gap=     0.002 Goal=   None    Shift=    0.000
 RMSDP=2.56D-04 MaxDP=1.01D-02 DE=-1.92D-03 OVMax= 9.90D-03

 Cycle  14  Pass 1  IDiag  1:
 Density matrix breaks symmetry, PCut= 1.00D-07
 Density has only Abelian symmetry.
 E= -340.346224949759     Delta-E=        0.000110137609 Rises=F Damp=F
 DIIS: error= 6.85D-03 at cycle  14 NSaved=  14.
 NSaved=14 IEnMin=13 EnMin= -340.346335087367     IErMin=13 ErrMin= 6.10D-03
 ErrMax= 6.85D-03  0.00D+00 EMaxC= 1.00D-01 BMatC= 4.45D-04 BMatP= 4.13D-04
 IDIUse=3 WtCom= 9.39D-01 WtEn= 6.10D-02
 EnCoef did   100 forward-backward iterations
 Rare condition: small coef for last iteration:  0.101D-15
 Coeff-Com: -0.115D+00 0.159D+00-0.369D-01-0.428D+00-0.202D+00 0.130D+01
 Coeff-Com: -0.475D-01-0.281D+00 0.123D+01 0.319D+00 0.684D-01-0.132D+01
 Coeff-Com:  0.168D+00 0.189D+00
 Coeff-En:   0.000D+00 0.000D+00 0.000D+00 0.105D-01 0.000D+00 0.170D+00
 Coeff-En:   0.000D+00 0.000D+00 0.000D+00 0.116D+00 0.157D+00 0.247D+00
 Coeff-En:   0.000D+00 0.300D+00
 Coeff:     -0.115D+00 0.159D+00-0.369D-01-0.428D+00-0.202D+00 0.130D+01
 Coeff:     -0.475D-01-0.281D+00 0.123D+01 0.319D+00 0.684D-01-0.132D+01
 Coeff:      0.168D+00 0.189D+00
 Gap=     0.001 Goal=   None    Shift=    0.000
 RMSDP=1.72D-05 MaxDP=4.61D-04 DE= 1.10D-04 OVMax= 6.74D-04

 Cycle  15  Pass 1  IDiag  1:
 Density matrix breaks symmetry, PCut= 1.00D-07
 Density has only Abelian symmetry.
 E= -340.346252806635     Delta-E=       -0.000027856876 Rises=F Damp=F
 DIIS: error= 6.74D-03 at cycle  15 NSaved=  15.
 NSaved=15 IEnMin=13 EnMin= -340.346335087367     IErMin=13 ErrMin= 6.10D-03
 ErrMax= 6.74D-03  0.00D+00 EMaxC= 1.00D-01 BMatC= 4.31D-04 BMatP= 4.13D-04
 IDIUse=3 WtCom= 9.39D-01 WtEn= 6.10D-02
 EnCoef did   100 forward-backward iterations
 Rare condition: small coef for last iteration:  0.709D-16
 Coeff-Com: -0.919D-01 0.127D+00-0.213D-01-0.351D+00-0.220D+00 0.126D+01
 Coeff-Com:  0.208D-03-0.587D-03 0.112D+00 0.203D-01 0.255D-02-0.169D+00
 Coeff-Com: -0.786D-01-0.569D+01 0.610D+01
 Coeff-En:   0.000D+00 0.000D+00 0.000D+00 0.105D-01 0.000D+00 0.170D+00
 Coeff-En:   0.000D+00 0.000D+00 0.000D+00 0.115D+00 0.157D+00 0.247D+00
 Coeff-En:   0.000D+00 0.000D+00 0.300D+00
 Coeff:     -0.919D-01 0.127D+00-0.213D-01-0.351D+00-0.220D+00 0.126D+01
 Coeff:      0.208D-03-0.587D-03 0.112D+00 0.203D-01 0.255D-02-0.169D+00
 Coeff:     -0.786D-01-0.569D+01 0.610D+01
 Gap=     0.003 Goal=   None    Shift=    0.000
 RMSDP=1.16D-02 MaxDP=3.99D-01 DE=-2.79D-05 OVMax= 9.14D-03

 Cycle  16  Pass 1  IDiag  1:
 Density matrix breaks symmetry, PCut= 1.00D-07
 Density has only Abelian symmetry.
 E= -340.332850959974     Delta-E=        0.013401846661 Rises=F Damp=F
 DIIS: error= 2.42D-02 at cycle  16 NSaved=  16.
 NSaved=16 IEnMin=13 EnMin= -340.346335087367     IErMin=13 ErrMin= 6.10D-03
 ErrMax= 2.42D-02  0.00D+00 EMaxC= 1.00D-01 BMatC= 9.00D-03 BMatP= 4.13D-04
 IDIUse=2 WtCom= 0.00D+00 WtEn= 1.00D+00
 EnCoef did   100 forward-backward iterations
 Rare condition: small coef for last iteration:  0.000D+00
 Coeff-En:   0.000D+00 0.000D+00 0.000D+00 0.404D-02 0.000D+00 0.171D+00
 Coeff-En:   0.000D+00 0.198D-01 0.480D-01 0.925D-01 0.474D-02 0.178D+00
 Coeff-En:   0.250D-02 0.000D+00 0.324D+00 0.156D+00
 Coeff:      0.000D+00 0.000D+00 0.000D+00 0.404D-02 0.000D+00 0.171D+00
 Coeff:      0.000D+00 0.198D-01 0.480D-01 0.925D-01 0.474D-02 0.178D+00
 Coeff:      0.250D-02 0.000D+00 0.324D+00 0.156D+00
 Gap=     0.001 Goal=   None    Shift=    0.000
 RMSDP=1.24D-02 MaxDP=4.26D-01 DE= 1.34D-02 OVMax= 9.62D-02

 Cycle  17  Pass 1  IDiag  1:
 Density matrix breaks symmetry, PCut= 1.00D-07
 Density has only Abelian symmetry.
 E= -340.343782987828     Delta-E=       -0.010932027854 Rises=F Damp=F
 DIIS: error= 9.62D-03 at cycle  17 NSaved=  17.
 NSaved=17 IEnMin=13 EnMin= -340.346335087367     IErMin=13 ErrMin= 6.10D-03
 ErrMax= 9.62D-03  0.00D+00 EMaxC= 1.00D-01 BMatC= 2.65D-03 BMatP= 4.13D-04
 IDIUse=3 WtCom= 9.39D-01 WtEn= 6.10D-02
 EnCoef did   100 forward-backward iterations
 Coeff-Com: -0.371D-01 0.537D-01-0.144D-01-0.250D+00-0.287D+00 0.869D+00
 Coeff-Com:  0.258D+00 0.371D+00-0.928D+00-0.310D+00 0.663D-01 0.269D+01
 Coeff-Com:  0.220D+00-0.590D+01 0.635D+01-0.207D+00-0.195D+01
 Coeff-En:   0.000D+00 0.000D+00 0.000D+00 0.352D+00 0.632D-04 0.195D-02
 Coeff-En:   0.000D+00 0.288D-02 0.248D+00 0.312D+00 0.208D-02 0.973D-04
 Coeff-En:   0.650D-03 0.353D-03 0.582D-02 0.511D-02 0.693D-01
 Coeff:     -0.348D-01 0.504D-01-0.135D-01-0.213D+00-0.270D+00 0.816D+00
 Coeff:      0.242D+00 0.349D+00-0.856D+00-0.272D+00 0.624D-01 0.252D+01
 Coeff:      0.207D+00-0.554D+01 0.596D+01-0.194D+00-0.182D+01
 Gap=     0.008 Goal=   None    Shift=    0.000
 RMSDP=1.24D-02 MaxDP=4.15D-01 DE=-1.09D-02 OVMax= 9.01D-02

 Cycle  18  Pass 1  IDiag  1:
 Density matrix breaks symmetry, PCut= 1.00D-07
 Density has only Abelian symmetry.
 E= -340.333493037273     Delta-E=        0.010289950555 Rises=F Damp=F
 DIIS: error= 2.34D-02 at cycle  18 NSaved=  18.
 NSaved=18 IEnMin=13 EnMin= -340.346335087367     IErMin=13 ErrMin= 6.10D-03
 ErrMax= 2.34D-02  0.00D+00 EMaxC= 1.00D-01 BMatC= 8.88D-03 BMatP= 4.13D-04
 IDIUse=2 WtCom= 0.00D+00 WtEn= 1.00D+00
 EnCoef did   100 forward-backward iterations
 Rare condition: small coef for last iteration:  0.469D-15
 Coeff-En:   0.000D+00 0.000D+00 0.000D+00 0.540D-02 0.000D+00 0.135D+00
 Coeff-En:   0.000D+00 0.566D-02 0.909D-02 0.104D+00 0.631D-01 0.000D+00
 Coeff-En:   0.365D-01 0.529D-03 0.316D+00 0.000D+00 0.222D+00 0.102D+00
 Coeff:      0.000D+00 0.000D+00 0.000D+00 0.540D-02 0.000D+00 0.135D+00
 Coeff:      0.000D+00 0.566D-02 0.909D-02 0.104D+00 0.631D-01 0.000D+00
 Coeff:      0.365D-01 0.529D-03 0.316D+00 0.000D+00 0.222D+00 0.102D+00
 Gap=     0.001 Goal=   None    Shift=    0.000
 RMSDP=1.24D-02 MaxDP=4.15D-01 DE= 1.03D-02 OVMax= 9.19D-02

 Cycle  19  Pass 1  IDiag  1:
 Density matrix breaks symmetry, PCut= 1.00D-07
 Density has only Abelian symmetry.
 E= -340.343903325660     Delta-E=       -0.010410288387 Rises=F Damp=F
 DIIS: error= 9.53D-03 at cycle  19 NSaved=  19.
 NSaved=19 IEnMin=13 EnMin= -340.346335087367     IErMin=13 ErrMin= 6.10D-03
 ErrMax= 9.53D-03  0.00D+00 EMaxC= 1.00D-01 BMatC= 2.57D-03 BMatP= 4.13D-04
 IDIUse=3 WtCom= 9.39D-01 WtEn= 6.10D-02
 EnCoef did   100 forward-backward iterations
 Coeff-Com: -0.236D-01 0.375D-01-0.162D-01-0.329D+00-0.420D+00 0.123D+01
 Coeff-Com:  0.155D+00 0.362D+00-0.858D+00-0.276D+00 0.626D+00 0.239D+01
 Coeff-Com:  0.390D+00-0.881D+00 0.969D+00 0.138D+00 0.247D+00-0.849D+00
 Coeff-Com: -0.189D+01
 Coeff-En:   0.000D+00 0.000D+00 0.000D+00 0.356D+00 0.164D-03 0.199D-02
 Coeff-En:   0.000D+00 0.157D-02 0.248D+00 0.310D+00 0.608D-02 0.192D-03
 Coeff-En:   0.458D-03 0.831D-03 0.568D-03 0.000D+00 0.424D-01 0.349D-02
 Coeff-En:   0.286D-01
 Coeff:     -0.221D-01 0.353D-01-0.152D-01-0.287D+00-0.394D+00 0.115D+01
 Coeff:      0.145D+00 0.340D+00-0.791D+00-0.240D+00 0.589D+00 0.224D+01
 Coeff:      0.367D+00-0.827D+00 0.910D+00 0.129D+00 0.234D+00-0.797D+00
 Coeff:     -0.177D+01
 Gap=     0.007 Goal=   None    Shift=    0.000
 RMSDP=1.24D-02 MaxDP=4.20D-01 DE=-1.04D-02 OVMax= 8.45D-02

 Cycle  20  Pass 1  IDiag  1:
 Density matrix breaks symmetry, PCut= 1.00D-07
 Density has only Abelian symmetry.
 E= -340.334956541508     Delta-E=        0.008946784152 Rises=F Damp=F
 DIIS: error= 2.23D-02 at cycle  20 NSaved=  20.
 NSaved=20 IEnMin=13 EnMin= -340.346335087367     IErMin=13 ErrMin= 6.10D-03
 ErrMax= 2.23D-02  0.00D+00 EMaxC= 1.00D-01 BMatC= 7.89D-03 BMatP= 4.13D-04
 IDIUse=2 WtCom= 0.00D+00 WtEn= 1.00D+00
 EnCoef did   100 forward-backward iterations
 Rare condition: small coef for last iteration:  0.927D-16
 Coeff-En:   0.000D+00 0.000D+00 0.000D+00 0.681D-02 0.000D+00 0.132D+00
 Coeff-En:   0.000D+00 0.558D-02 0.782D-02 0.103D+00 0.608D-01 0.000D+00
 Coeff-En:   0.365D-01 0.586D-03 0.316D+00 0.000D+00 0.000D+00 0.000D+00
 Coeff-En:   0.222D+00 0.108D+00
 Coeff:      0.000D+00 0.000D+00 0.000D+00 0.681D-02 0.000D+00 0.132D+00
 Coeff:      0.000D+00 0.558D-02 0.782D-02 0.103D+00 0.608D-01 0.000D+00
 Coeff:      0.365D-01 0.586D-03 0.316D+00 0.000D+00 0.000D+00 0.000D+00
 Coeff:      0.222D+00 0.108D+00
 Gap=     0.001 Goal=   None    Shift=    0.000
 RMSDP=1.24D-02 MaxDP=4.20D-01 DE= 8.95D-03 OVMax= 8.44D-02

 Cycle  21  Pass 1  IDiag  1:
 Density matrix breaks symmetry, PCut= 1.00D-07
 Density has only Abelian symmetry.
 E= -340.343878204200     Delta-E=       -0.008921662692 Rises=F Damp=F
 DIIS: error= 9.49D-03 at cycle  21 NSaved=  20.
 NSaved=20 IEnMin=13 EnMin= -340.346335087367     IErMin=13 ErrMin= 6.10D-03
 ErrMax= 9.49D-03  0.00D+00 EMaxC= 1.00D-01 BMatC= 2.59D-03 BMatP= 4.13D-04
 IDIUse=3 WtCom= 9.39D-01 WtEn= 6.10D-02
 EnCoef did   100 forward-backward iterations
 Coeff-Com: -0.192D-01 0.304D-01 0.835D-02-0.314D+00-0.434D+00 0.112D+01
 Coeff-Com:  0.993D-01 0.331D+00-0.103D+01-0.324D+00-0.566D-01 0.220D+01
 Coeff-Com:  0.296D+00-0.303D+01 0.332D+01-0.369D+00 0.421D+01-0.783D+00
 Coeff-Com:  0.117D+01-0.544D+01
 Coeff-En:   0.000D+00 0.000D+00 0.000D+00 0.354D+00 0.322D-03 0.743D-03
 Coeff-En:   0.000D+00 0.226D-02 0.226D+00 0.310D+00 0.483D-02 0.115D-04
 Coeff-En:   0.236D-02 0.750D-03 0.173D-02 0.000D+00 0.148D-02 0.000D+00
 Coeff-En:   0.445D-02 0.909D-01
 Coeff:     -0.181D-01 0.285D-01 0.785D-02-0.273D+00-0.408D+00 0.105D+01
 Coeff:      0.933D-01 0.310D+00-0.954D+00-0.285D+00-0.528D-01 0.207D+01
 Coeff:      0.278D+00-0.284D+01 0.312D+01-0.346D+00 0.396D+01-0.735D+00
 Coeff:      0.110D+01-0.510D+01
 Gap=     0.006 Goal=   None    Shift=    0.000
 RMSDP=1.24D-02 MaxDP=4.21D-01 DE=-8.92D-03 OVMax= 8.82D-02

 Cycle  22  Pass 1  IDiag  1:
 Density matrix breaks symmetry, PCut= 1.00D-07
 Density has only Abelian symmetry.
 E= -340.334318177240     Delta-E=        0.009560026960 Rises=F Damp=F
 DIIS: error= 2.28D-02 at cycle  22 NSaved=  20.
 NSaved=20 IEnMin=12 EnMin= -340.346335087367     IErMin=12 ErrMin= 6.10D-03
 ErrMax= 2.28D-02  0.00D+00 EMaxC= 1.00D-01 BMatC= 8.31D-03 BMatP= 4.13D-04
 IDIUse=2 WtCom= 0.00D+00 WtEn= 1.00D+00
 EnCoef did   100 forward-backward iterations
 Rare condition: small coef for last iteration: -0.903D-16
 Coeff-En:   0.000D+00 0.000D+00 0.627D-02 0.000D+00 0.136D+00 0.000D+00
 Coeff-En:   0.630D-02 0.106D-01 0.103D+00 0.617D-01 0.000D+00 0.362D-01
 Coeff-En:   0.559D-03 0.315D+00 0.000D+00 0.375D-02 0.000D+00 0.575D-02
 Coeff-En:   0.215D+00 0.101D+00
 Coeff:      0.000D+00 0.000D+00 0.627D-02 0.000D+00 0.136D+00 0.000D+00
 Coeff:      0.630D-02 0.106D-01 0.103D+00 0.617D-01 0.000D+00 0.362D-01
 Coeff:      0.559D-03 0.315D+00 0.000D+00 0.375D-02 0.000D+00 0.575D-02
 Coeff:      0.215D+00 0.101D+00
 Gap=     0.001 Goal=   None    Shift=    0.000
 RMSDP=1.24D-02 MaxDP=4.21D-01 DE= 9.56D-03 OVMax= 8.81D-02

 Cycle  23  Pass 1  IDiag  1:
 Density matrix breaks symmetry, PCut= 1.00D-07
 Density has only Abelian symmetry.
 E= -340.343876243880     Delta-E=       -0.009558066640 Rises=F Damp=F
 DIIS: error= 9.52D-03 at cycle  23 NSaved=  20.
 NSaved=20 IEnMin=12 EnMin= -340.346335087367     IErMin=12 ErrMin= 6.10D-03
 ErrMax= 9.52D-03  0.00D+00 EMaxC= 1.00D-01 BMatC= 2.59D-03 BMatP= 4.13D-04
 IDIUse=3 WtCom= 9.39D-01 WtEn= 6.10D-02
 EnCoef did   100 forward-backward iterations
 Coeff-Com:  0.389D-02 0.111D-01-0.304D+00-0.527D+00 0.117D+01 0.175D+00
 Coeff-Com:  0.408D+00-0.140D+01-0.373D+00-0.175D+00 0.299D+01 0.326D+00
 Coeff-Com: -0.351D+01 0.375D+01-0.296D+00 0.207D+01-0.101D+01 0.148D+01
 Coeff-Com: -0.607D-01-0.374D+01
 Coeff-En:   0.000D+00 0.000D+00 0.356D+00 0.194D-03 0.144D-03 0.000D+00
 Coeff-En:   0.114D-02 0.239D+00 0.311D+00 0.505D-02 0.103D-03 0.150D-02
 Coeff-En:   0.773D-03 0.971D-03 0.000D+00 0.418D-02 0.000D+00 0.222D-02
 Coeff-En:   0.211D-02 0.751D-01
 Coeff:      0.365D-02 0.105D-01-0.264D+00-0.494D+00 0.110D+01 0.164D+00
 Coeff:      0.383D+00-0.130D+01-0.331D+00-0.164D+00 0.281D+01 0.306D+00
 Coeff:     -0.330D+01 0.352D+01-0.278D+00 0.194D+01-0.947D+00 0.139D+01
 Coeff:     -0.568D-01-0.350D+01
 Gap=     0.001 Goal=   None    Shift=    0.000
 RMSDP=1.23D-02 MaxDP=4.17D-01 DE=-9.56D-03 OVMax= 8.22D-02

 Cycle  24  Pass 1  IDiag  1:
 Density matrix breaks symmetry, PCut= 1.00D-07
 Density has only Abelian symmetry.
 E= -340.335141409874     Delta-E=        0.008734834006 Rises=F Damp=F
 DIIS: error= 2.20D-02 at cycle  24 NSaved=  20.
 NSaved=20 IEnMin=11 EnMin= -340.346335087367     IErMin=11 ErrMin= 6.10D-03
 ErrMax= 2.20D-02  0.00D+00 EMaxC= 1.00D-01 BMatC= 7.87D-03 BMatP= 4.13D-04
 IDIUse=2 WtCom= 0.00D+00 WtEn= 1.00D+00
 EnCoef did   100 forward-backward iterations
 Rare condition: small coef for last iteration: -0.365D-15
 Coeff-En:   0.000D+00 0.703D-02 0.000D+00 0.125D+00 0.000D+00 0.477D-02
 Coeff-En:   0.474D-02 0.104D+00 0.548D-01 0.000D+00 0.366D-01 0.593D-03
 Coeff-En:   0.320D+00 0.000D+00 0.000D+00 0.000D+00 0.000D+00 0.000D+00
 Coeff-En:   0.227D+00 0.115D+00
 Coeff:      0.000D+00 0.703D-02 0.000D+00 0.125D+00 0.000D+00 0.477D-02
 Coeff:      0.474D-02 0.104D+00 0.548D-01 0.000D+00 0.366D-01 0.593D-03
 Coeff:      0.320D+00 0.000D+00 0.000D+00 0.000D+00 0.000D+00 0.000D+00
 Coeff:      0.227D+00 0.115D+00
 Gap=     0.001 Goal=   None    Shift=    0.000
 RMSDP=1.23D-02 MaxDP=4.17D-01 DE= 8.73D-03 OVMax= 8.27D-02

 Cycle  25  Pass 1  IDiag  1:
 Density matrix breaks symmetry, PCut= 1.00D-07
 Density has only Abelian symmetry.
 E= -340.343909746134     Delta-E=       -0.008768336261 Rises=F Damp=F
 DIIS: error= 9.45D-03 at cycle  25 NSaved=  20.
 NSaved=20 IEnMin=11 EnMin= -340.346335087367     IErMin=11 ErrMin= 6.10D-03
 ErrMax= 9.45D-03  0.00D+00 EMaxC= 1.00D-01 BMatC= 2.57D-03 BMatP= 4.13D-04
 IDIUse=3 WtCom= 9.39D-01 WtEn= 6.10D-02
 Large coefficients: NSaved= 20 BigCof=   10.04 CofMax=   10.00 Det=-3.05D-09
 Inversion failed.  Reducing to 19 matrices.
 EnCoef did   100 forward-backward iterations
 Coeff-Com: -0.147D+00-0.231D+00 0.453D+00 0.291D+00 0.439D+00-0.150D+01
 Coeff-Com: -0.250D+00-0.801D+00 0.359D+01 0.115D+00-0.891D+01 0.958D+01
 Coeff-Com:  0.247D+01 0.104D+01-0.289D+01-0.348D+01-0.295D+01 0.749D+01
 Coeff-Com: -0.330D+01
 Coeff-En:   0.352D+00 0.334D-03 0.351D-03 0.000D+00 0.191D-02 0.228D+00
 Coeff-En:   0.310D+00 0.301D-02 0.127D-03 0.240D-02 0.686D-03 0.452D-02
 Coeff-En:   0.000D+00 0.129D-02 0.000D+00 0.000D+00 0.000D+00 0.669D-02
 Coeff-En:   0.887D-01
 Coeff:     -0.116D+00-0.217D+00 0.425D+00 0.273D+00 0.413D+00-0.140D+01
 Coeff:     -0.216D+00-0.752D+00 0.337D+01 0.108D+00-0.837D+01 0.900D+01
 Coeff:      0.232D+01 0.973D+00-0.271D+01-0.327D+01-0.277D+01 0.703D+01
 Coeff:     -0.309D+01
 Gap=     0.001 Goal=   None    Shift=    0.000
 RMSDP=1.23D-02 MaxDP=4.15D-01 DE=-8.77D-03 OVMax= 7.37D-02

 Cycle  26  Pass 1  IDiag  1:
 Density matrix breaks symmetry, PCut= 1.00D-07
 Density has only Abelian symmetry.
 E= -340.336522111137     Delta-E=        0.007387634997 Rises=F Damp=F
 DIIS: error= 2.07D-02 at cycle  26 NSaved=  20.
 NSaved=20 IEnMin=10 EnMin= -340.346335087367     IErMin=10 ErrMin= 6.10D-03
 ErrMax= 2.07D-02  0.00D+00 EMaxC= 1.00D-01 BMatC= 7.00D-03 BMatP= 4.13D-04
 IDIUse=2 WtCom= 0.00D+00 WtEn= 1.00D+00
 EnCoef did   100 forward-backward iterations
 Rare condition: small coef for last iteration:  0.347D-15
 Coeff-En:   0.842D-02 0.000D+00 0.113D+00 0.000D+00 0.408D-02 0.230D-03
 Coeff-En:   0.104D+00 0.439D-01 0.000D+00 0.367D-01 0.638D-03 0.326D+00
 Coeff-En:   0.000D+00 0.000D+00 0.000D+00 0.000D+00 0.000D+00 0.000D+00
 Coeff-En:   0.233D+00 0.130D+00
 Coeff:      0.842D-02 0.000D+00 0.113D+00 0.000D+00 0.408D-02 0.230D-03
 Coeff:      0.104D+00 0.439D-01 0.000D+00 0.367D-01 0.638D-03 0.326D+00
 Coeff:      0.000D+00 0.000D+00 0.000D+00 0.000D+00 0.000D+00 0.000D+00
 Coeff:      0.233D+00 0.130D+00
 Gap=     0.001 Goal=   None    Shift=    0.000
 RMSDP=1.23D-02 MaxDP=4.15D-01 DE= 7.39D-03 OVMax= 7.43D-02

 Cycle  27  Pass 1  IDiag  1:
 Density matrix breaks symmetry, PCut= 1.00D-07
 Density has only Abelian symmetry.
 E= -340.343931872223     Delta-E=       -0.007409761086 Rises=F Damp=F
 DIIS: error= 9.37D-03 at cycle  27 NSaved=  20.
 NSaved=20 IEnMin=10 EnMin= -340.346335087367     IErMin=10 ErrMin= 6.10D-03
 ErrMax= 9.37D-03  0.00D+00 EMaxC= 1.00D-01 BMatC= 2.55D-03 BMatP= 4.13D-04
 IDIUse=3 WtCom= 9.39D-01 WtEn= 6.10D-02
 EnCoef did   100 forward-backward iterations
 Coeff-Com: -0.154D+00-0.225D+00 0.415D+00 0.249D+00 0.388D+00-0.139D+01
 Coeff-Com: -0.217D+00-0.586D+00 0.321D+01 0.205D+00-0.846D+01 0.912D+01
 Coeff-Com:  0.228D+01 0.182D+01-0.249D+01-0.347D+01-0.290D+01 0.706D+01
 Coeff-Com: -0.540D-01-0.380D+01
 Coeff-En:   0.347D+00 0.277D-03 0.425D-04 0.000D+00 0.209D-02 0.183D+00
 Coeff-En:   0.309D+00 0.379D-03 0.124D-03 0.293D-02 0.633D-03 0.897D-02
 Coeff-En:   0.000D+00 0.269D-02 0.000D+00 0.000D+00 0.000D+00 0.000D+00
 Coeff-En:   0.104D-01 0.132D+00
 Coeff:     -0.124D+00-0.212D+00 0.389D+00 0.234D+00 0.364D+00-0.129D+01
 Coeff:     -0.185D+00-0.550D+00 0.301D+01 0.192D+00-0.794D+01 0.857D+01
 Coeff:      0.214D+01 0.171D+01-0.233D+01-0.326D+01-0.272D+01 0.663D+01
 Coeff:     -0.500D-01-0.356D+01
 Gap=     0.001 Goal=   None    Shift=    0.000
 RMSDP=1.24D-02 MaxDP=4.19D-01 DE=-7.41D-03 OVMax= 8.02D-02

 Cycle  28  Pass 1  IDiag  1:
 Density matrix breaks symmetry, PCut= 1.00D-07
 Density has only Abelian symmetry.
 E= -340.335743275290     Delta-E=        0.008188596933 Rises=F Damp=F
 DIIS: error= 2.16D-02 at cycle  28 NSaved=  20.
 NSaved=20 IEnMin= 9 EnMin= -340.346335087367     IErMin= 9 ErrMin= 6.10D-03
 ErrMax= 2.16D-02  0.00D+00 EMaxC= 1.00D-01 BMatC= 7.44D-03 BMatP= 4.13D-04
 IDIUse=2 WtCom= 0.00D+00 WtEn= 1.00D+00
 EnCoef did   100 forward-backward iterations
 Rare condition: small coef for last iteration:  0.910D-16
 Coeff-En:   0.772D-02 0.000D+00 0.122D+00 0.571D-02 0.640D-02 0.103D+00
 Coeff-En:   0.489D-01 0.000D+00 0.361D-01 0.608D-03 0.322D+00 0.000D+00
 Coeff-En:   0.131D-01 0.000D+00 0.000D+00 0.000D+00 0.000D+00 0.138D-01
 Coeff-En:   0.211D+00 0.110D+00
 Coeff:      0.772D-02 0.000D+00 0.122D+00 0.571D-02 0.640D-02 0.103D+00
 Coeff:      0.489D-01 0.000D+00 0.361D-01 0.608D-03 0.322D+00 0.000D+00
 Coeff:      0.131D-01 0.000D+00 0.000D+00 0.000D+00 0.000D+00 0.138D-01
 Coeff:      0.211D+00 0.110D+00
 Gap=     0.001 Goal=   None    Shift=    0.000
 RMSDP=1.24D-02 MaxDP=4.19D-01 DE= 8.19D-03 OVMax= 7.98D-02

 Cycle  29  Pass 1  IDiag  1:
 Density matrix breaks symmetry, PCut= 1.00D-07
 Density has only Abelian symmetry.
 E= -340.343901818006     Delta-E=       -0.008158542716 Rises=F Damp=F
 DIIS: error= 9.43D-03 at cycle  29 NSaved=  20.
 NSaved=20 IEnMin= 9 EnMin= -340.346335087367     IErMin= 9 ErrMin= 6.10D-03
 ErrMax= 9.43D-03  0.00D+00 EMaxC= 1.00D-01 BMatC= 2.57D-03 BMatP= 4.13D-04
 IDIUse=3 WtCom= 9.39D-01 WtEn= 6.10D-02
 Large coefficients: NSaved= 20 BigCof=   15.82 CofMax=   10.00 Det=-9.05D-10
 Inversion failed.  Reducing to 19 matrices.
 EnCoef did   100 forward-backward iterations
 Coeff-Com: -0.290D+00-0.424D+00 0.107D+01 0.339D+00-0.154D+01-0.370D+00
 Coeff-Com:  0.175D+00 0.229D+01 0.292D+00-0.400D+01 0.435D+01 0.697D+01
 Coeff-Com: -0.155D+01 0.179D+01-0.115D+01 0.298D+01-0.440D+00-0.183D+01
 Coeff-Com: -0.766D+01
 Coeff-En:   0.350D+00 0.585D-03 0.107D-02 0.220D-02 0.198D+00 0.310D+00
 Coeff-En:   0.911D-03 0.134D-03 0.903D-03 0.600D-03 0.696D-02 0.216D-02
 Coeff-En:   0.000D+00 0.000D+00 0.000D+00 0.000D+00 0.396D-02 0.507D-02
 Coeff-En:   0.118D+00
 Coeff:     -0.251D+00-0.398D+00 0.100D+01 0.319D+00-0.144D+01-0.329D+00
 Coeff:      0.164D+00 0.215D+01 0.274D+00-0.376D+01 0.409D+01 0.655D+01
 Coeff:     -0.146D+01 0.168D+01-0.108D+01 0.280D+01-0.413D+00-0.172D+01
 Coeff:     -0.718D+01
 Gap=     0.000 Goal=   None    Shift=    0.000
 RMSDP=1.98D-03 MaxDP=8.15D-02 DE=-8.16D-03 OVMax= 9.27D-02

 Cycle  30  Pass 1  IDiag  1:
 Density matrix breaks symmetry, PCut= 1.00D-07
 Density has only Abelian symmetry.
 E= -340.334069424243     Delta-E=        0.009832393763 Rises=F Damp=F
 DIIS: error= 2.31D-02 at cycle  30 NSaved=  20.
 NSaved=20 IEnMin= 9 EnMin= -340.346335087367     IErMin= 9 ErrMin= 6.10D-03
 ErrMax= 2.31D-02  0.00D+00 EMaxC= 1.00D-01 BMatC= 8.16D-03 BMatP= 4.13D-04
 IDIUse=2 WtCom= 0.00D+00 WtEn= 1.00D+00
 EnCoef did   100 forward-backward iterations
 Rare condition: small coef for last iteration:  0.274D-15
 Coeff-En:   0.372D-02 0.000D+00 0.155D+00 0.440D-02 0.963D-02 0.107D+00
 Coeff-En:   0.104D+00 0.000D+00 0.390D-01 0.478D-03 0.305D+00 0.176D+00
 Coeff-En:   0.000D+00 0.000D+00 0.000D+00 0.000D+00 0.885D-02 0.460D-01
 Coeff-En:   0.000D+00 0.397D-01
 Coeff:      0.372D-02 0.000D+00 0.155D+00 0.440D-02 0.963D-02 0.107D+00
 Coeff:      0.104D+00 0.000D+00 0.390D-01 0.478D-03 0.305D+00 0.176D+00
 Coeff:      0.000D+00 0.000D+00 0.000D+00 0.000D+00 0.885D-02 0.460D-01
 Coeff:      0.000D+00 0.397D-01
 Gap=     0.001 Goal=   None    Shift=    0.000
 RMSDP=1.93D-03 MaxDP=7.95D-02 DE= 9.83D-03 OVMax= 9.12D-02

 Cycle  31  Pass 1  IDiag  1:
 Density matrix breaks symmetry, PCut= 1.00D-07
 Density has only Abelian symmetry.
 E= -340.343820877766     Delta-E=       -0.009751453523 Rises=F Damp=F
 DIIS: error= 9.80D-03 at cycle  31 NSaved=  20.
 NSaved=20 IEnMin= 9 EnMin= -340.346335087367     IErMin= 9 ErrMin= 6.10D-03
 ErrMax= 9.80D-03  0.00D+00 EMaxC= 1.00D-01 BMatC= 2.63D-03 BMatP= 4.13D-04
 IDIUse=3 WtCom= 9.39D-01 WtEn= 6.10D-02
 Large coefficients: NSaved= 20 BigCof=   12.21 CofMax=   10.00 Det=-1.54D-09
 Inversion failed.  Reducing to 19 matrices.
 Large coefficients: NSaved= 19 BigCof=   12.38 CofMax=   10.00 Det=-2.52D-09
 Inversion failed.  Reducing to 18 matrices.
 Large coefficients: NSaved= 18 BigCof=   13.26 CofMax=   10.00 Det=-9.81D-09
 Inversion failed.  Reducing to 17 matrices.
 Large coefficients: NSaved= 17 BigCof=   13.42 CofMax=   10.00 Det=-1.31D-08
 Inversion failed.  Reducing to 16 matrices.
 Large coefficients: NSaved= 16 BigCof=   13.17 CofMax=   10.00 Det=-1.42D-08
 Inversion failed.  Reducing to 15 matrices.
 Large coefficients: NSaved= 15 BigCof=   12.97 CofMax=   10.00 Det=-1.43D-08
 Inversion failed.  Reducing to 14 matrices.
 EnCoef did   100 forward-backward iterations
 Coeff-Com: -0.876D-01-0.362D+00 0.624D+00-0.265D+00-0.221D+01 0.274D+00
 Coeff-Com:  0.216D+01 0.218D+00-0.634D+01 0.672D+01-0.617D+01 0.709D-01
 Coeff-Com:  0.199D+00 0.617D+01
 Coeff-En:   0.357D+00 0.412D-04 0.118D-02 0.230D-02 0.253D+00 0.304D+00
 Coeff-En:   0.275D-03 0.168D-02 0.115D-02 0.407D-03 0.653D-01 0.144D-01
 Coeff-En:   0.000D+00 0.911D-04
 Coeff:     -0.605D-01-0.339D+00 0.586D+00-0.248D+00-0.206D+01 0.276D+00
 Coeff:      0.203D+01 0.205D+00-0.595D+01 0.631D+01-0.579D+01 0.674D-01
 Coeff:      0.187D+00 0.580D+01
 Gap=     0.001 Goal=   None    Shift=    0.000
 RMSDP=1.23D-02 MaxDP=4.09D-01 DE=-9.75D-03 OVMax= 5.99D-02

 Cycle  32  Pass 1  IDiag  1:
 Density matrix breaks symmetry, PCut= 1.00D-07
 Density has only Abelian symmetry.
 E= -340.338131811432     Delta-E=        0.005689066334 Rises=F Damp=F
 DIIS: error= 1.90D-02 at cycle  32 NSaved=  15.
 NSaved=15 IEnMin= 8 EnMin= -340.346335087367     IErMin= 8 ErrMin= 6.10D-03
 ErrMax= 1.90D-02  0.00D+00 EMaxC= 1.00D-01 BMatC= 6.03D-03 BMatP= 4.13D-04
 IDIUse=2 WtCom= 0.00D+00 WtEn= 1.00D+00
 EnCoef did   100 forward-backward iterations
 Rare condition: small coef for last iteration: -0.366D-15
 Coeff-En:   0.126D-01 0.000D+00 0.816D-01 0.734D-02 0.000D+00 0.127D+00
 Coeff-En:   0.000D+00 0.364D-01 0.682D-03 0.338D+00 0.000D+00 0.000D+00
 Coeff-En:   0.000D+00 0.242D+00 0.155D+00
 Coeff:      0.126D-01 0.000D+00 0.816D-01 0.734D-02 0.000D+00 0.127D+00
 Coeff:      0.000D+00 0.364D-01 0.682D-03 0.338D+00 0.000D+00 0.000D+00
 Coeff:      0.000D+00 0.242D+00 0.155D+00
 Gap=     0.001 Goal=   None    Shift=    0.000
 RMSDP=1.22D-02 MaxDP=4.09D-01 DE= 5.69D-03 OVMax= 6.31D-02

 Cycle  33  Pass 1  IDiag  1:
 Density matrix breaks symmetry, PCut= 1.00D-07
 Density has only Abelian symmetry.
 E= -340.344013907736     Delta-E=       -0.005882096304 Rises=F Damp=F
 DIIS: error= 9.01D-03 at cycle  33 NSaved=  16.
 NSaved=16 IEnMin= 8 EnMin= -340.346335087367     IErMin= 8 ErrMin= 6.10D-03
 ErrMax= 9.01D-03  0.00D+00 EMaxC= 1.00D-01 BMatC= 2.48D-03 BMatP= 4.13D-04
 IDIUse=3 WtCom= 9.39D-01 WtEn= 6.10D-02
 Large coefficients: NSaved= 16 BigCof=   10.77 CofMax=   10.00 Det=-9.78D-09
 Inversion failed.  Reducing to 15 matrices.
 EnCoef did   100 forward-backward iterations
 Coeff-Com: -0.138D+00-0.183D+00 0.250D+00-0.723D+00-0.113D+01 0.633D+00
 Coeff-Com:  0.539D+00 0.347D+00-0.704D+01 0.757D+01-0.930D+00-0.633D+00
 Coeff-Com:  0.520D+01 0.940D+00-0.370D+01
 Coeff-En:   0.333D+00 0.236D-02 0.120D-02 0.336D-03 0.803D-04 0.319D+00
 Coeff-En:   0.300D-03 0.856D-02 0.305D-02 0.440D-02 0.592D-05 0.000D+00
 Coeff-En:   0.000D+00 0.484D-02 0.323D+00
 Coeff:     -0.109D+00-0.172D+00 0.234D+00-0.679D+00-0.106D+01 0.614D+00
 Coeff:      0.506D+00 0.326D+00-0.661D+01 0.711D+01-0.873D+00-0.594D+00
 Coeff:      0.488D+01 0.883D+00-0.345D+01
 Gap=     0.002 Goal=   None    Shift=    0.000
 RMSDP=1.30D-03 MaxDP=5.90D-02 DE=-5.88D-03 OVMax= 6.79D-02

 Cycle  34  Pass 1  IDiag  1:
 Density matrix breaks symmetry, PCut= 1.00D-07
 Density has only Abelian symmetry.
 E= -340.336932448424     Delta-E=        0.007081459312 Rises=F Damp=F
 DIIS: error= 1.98D-02 at cycle  34 NSaved=  16.
 NSaved=16 IEnMin= 8 EnMin= -340.346335087367     IErMin= 8 ErrMin= 6.10D-03
 ErrMax= 1.98D-02  0.00D+00 EMaxC= 1.00D-01 BMatC= 6.96D-03 BMatP= 4.13D-04
 IDIUse=2 WtCom= 0.00D+00 WtEn= 1.00D+00
 EnCoef did   100 forward-backward iterations
 Rare condition: small coef for last iteration:  0.230D-15
 Coeff-En:   0.116D-01 0.000D+00 0.859D-01 0.455D-02 0.000D+00 0.180D+00
 Coeff-En:   0.000D+00 0.369D-01 0.453D-03 0.337D+00 0.603D-01 0.385D-01
 Coeff-En:   0.104D+00 0.735D-01 0.000D+00 0.677D-01
 Coeff:      0.116D-01 0.000D+00 0.859D-01 0.455D-02 0.000D+00 0.180D+00
 Coeff:      0.000D+00 0.369D-01 0.453D-03 0.337D+00 0.603D-01 0.385D-01
 Coeff:      0.104D+00 0.735D-01 0.000D+00 0.677D-01
 Gap=     0.001 Goal=   None    Shift=    0.000
 RMSDP=1.30D-03 MaxDP=5.88D-02 DE= 7.08D-03 OVMax= 6.82D-02

 Cycle  35  Pass 1  IDiag  1:
 Density matrix breaks symmetry, PCut= 1.00D-07
 Density has only Abelian symmetry.
 E= -340.343973229534     Delta-E=       -0.007040781110 Rises=F Damp=F
 DIIS: error= 9.11D-03 at cycle  35 NSaved=  17.
 NSaved=17 IEnMin= 8 EnMin= -340.346335087367     IErMin= 8 ErrMin= 6.10D-03
 ErrMax= 9.11D-03  0.00D+00 EMaxC= 1.00D-01 BMatC= 2.52D-03 BMatP= 4.13D-04
 IDIUse=3 WtCom= 9.39D-01 WtEn= 6.10D-02
 Large coefficients: NSaved= 17 BigCof=   10.54 CofMax=   10.00 Det=-3.83D-09
 Inversion failed.  Reducing to 16 matrices.
 EnCoef did   100 forward-backward iterations
 Coeff-Com: -0.148D+00-0.264D+00 0.471D+00-0.782D+00-0.109D+01 0.691D+00
 Coeff-Com: -0.750D-01 0.416D+00-0.531D+01 0.565D+01-0.117D+01 0.550D+01
 Coeff-Com:  0.291D+00-0.210D+01-0.101D+00-0.977D+00
 Coeff-En:   0.334D+00 0.123D-02 0.160D-03 0.450D-03 0.265D-03 0.318D+00
 Coeff-En:   0.000D+00 0.941D-02 0.274D-02 0.614D-02 0.154D-03 0.000D+00
 Coeff-En:   0.529D-02 0.197D+00 0.000D+00 0.125D+00
 Coeff:     -0.119D+00-0.248D+00 0.442D+00-0.734D+00-0.102D+01 0.668D+00
 Coeff:     -0.704D-01 0.392D+00-0.499D+01 0.531D+01-0.110D+01 0.516D+01
 Coeff:      0.274D+00-0.196D+01-0.945D-01-0.909D+00
 Gap=     0.002 Goal=   None    Shift=    0.000
 RMSDP=1.33D-03 MaxDP=6.00D-02 DE=-7.04D-03 OVMax= 6.95D-02

 Cycle  36  Pass 1  IDiag  1:
 Density matrix breaks symmetry, PCut= 1.00D-07
 Density has only Abelian symmetry.
 E= -340.336897830511     Delta-E=        0.007075399023 Rises=F Damp=F
 DIIS: error= 2.00D-02 at cycle  36 NSaved=  17.
 NSaved=17 IEnMin= 8 EnMin= -340.346335087367     IErMin= 8 ErrMin= 6.10D-03
 ErrMax= 2.00D-02  0.00D+00 EMaxC= 1.00D-01 BMatC= 6.94D-03 BMatP= 4.13D-04
 IDIUse=2 WtCom= 0.00D+00 WtEn= 1.00D+00
 EnCoef did   100 forward-backward iterations
 Rare condition: small coef for last iteration:  0.173D-15
 Coeff-En:   0.119D-01 0.000D+00 0.847D-01 0.401D-02 0.000D+00 0.197D+00
 Coeff-En:   0.000D+00 0.375D-01 0.395D-03 0.335D+00 0.000D+00 0.143D+00
 Coeff-En:   0.974D-01 0.000D+00 0.000D+00 0.000D+00 0.894D-01
 Coeff:      0.119D-01 0.000D+00 0.847D-01 0.401D-02 0.000D+00 0.197D+00
 Coeff:      0.000D+00 0.375D-01 0.395D-03 0.335D+00 0.000D+00 0.143D+00
 Coeff:      0.974D-01 0.000D+00 0.000D+00 0.000D+00 0.894D-01
 Gap=     0.001 Goal=   None    Shift=    0.000
 RMSDP=1.34D-03 MaxDP=6.02D-02 DE= 7.08D-03 OVMax= 6.98D-02

 Cycle  37  Pass 1  IDiag  1:
 Density matrix breaks symmetry, PCut= 1.00D-07
 Density has only Abelian symmetry.
 E= -340.343983836981     Delta-E=       -0.007086006469 Rises=F Damp=F
 DIIS: error= 9.08D-03 at cycle  37 NSaved=  18.
 NSaved=18 IEnMin= 8 EnMin= -340.346335087367     IErMin= 8 ErrMin= 6.10D-03
 ErrMax= 9.08D-03  0.00D+00 EMaxC= 1.00D-01 BMatC= 2.52D-03 BMatP= 4.13D-04
 IDIUse=3 WtCom= 9.39D-01 WtEn= 6.10D-02
 Large coefficients: NSaved= 18 BigCof=   61.06 CofMax=   10.00 Det=-4.67D-11
 Inversion failed.  Reducing to 17 matrices.
 Large coefficients: NSaved= 17 BigCof=   59.64 CofMax=   10.00 Det=-5.45D-11
 Inversion failed.  Reducing to 16 matrices.
 Large coefficients: NSaved= 16 BigCof=   83.03 CofMax=   10.00 Det=-7.33D-11
 Inversion failed.  Reducing to 15 matrices.
 Large coefficients: NSaved= 15 BigCof=   83.25 CofMax=   10.00 Det=-7.33D-11
 Inversion failed.  Reducing to 14 matrices.
 Large coefficients: NSaved= 14 BigCof=  128.73 CofMax=   10.00 Det=-1.38D-10
 Inversion failed.  Reducing to 13 matrices.
 Large coefficients: NSaved= 13 BigCof=  144.14 CofMax=   10.00 Det=-1.40D-10
 Inversion failed.  Reducing to 12 matrices.
 Large coefficients: NSaved= 12 BigCof=   65.84 CofMax=   10.00 Det=-1.57D-10
 Inversion failed.  Reducing to 11 matrices.
 Large coefficients: NSaved= 11 BigCof=   47.76 CofMax=   10.00 Det=-8.57D-10
 Inversion failed.  Reducing to 10 matrices.
 Large coefficients: NSaved= 10 BigCof=   57.57 CofMax=   10.00 Det=-1.44D-09
 Inversion failed.  Reducing to  9 matrices.
 EnCoef did   100 forward-backward iterations
 Coeff-Com: -0.633D+00-0.191D-02 0.422D+01 0.204D+01-0.942D+01 0.897D+01
 Coeff-Com:  0.382D+01 0.229D+00-0.823D+01
 Coeff-En:   0.355D+00 0.313D+00 0.303D-02 0.464D-02 0.685D-02 0.547D-02
 Coeff-En:   0.790D-01 0.000D+00 0.233D+00
 Coeff:     -0.573D+00 0.173D-01 0.396D+01 0.192D+01-0.885D+01 0.843D+01
 Coeff:      0.359D+01 0.215D+00-0.771D+01
 Gap=     0.000 Goal=   None    Shift=    0.000
 RMSDP=1.89D-03 MaxDP=7.99D-02 DE=-7.09D-03 OVMax= 8.96D-02

 Cycle  38  Pass 1  IDiag  1:
 Density matrix breaks symmetry, PCut= 1.00D-07
 Density has only Abelian symmetry.
 E= -340.334860355884     Delta-E=        0.009123481097 Rises=F Damp=F
 DIIS: error= 2.23D-02 at cycle  38 NSaved=  10.
 NSaved=10 IEnMin= 4 EnMin= -340.346335087367     IErMin= 4 ErrMin= 6.10D-03
 ErrMax= 2.23D-02  0.00D+00 EMaxC= 1.00D-01 BMatC= 7.82D-03 BMatP= 4.13D-04
 IDIUse=2 WtCom= 0.00D+00 WtEn= 1.00D+00
 EnCoef did   100 forward-backward iterations
 Rare condition: small coef for last iteration: -0.482D-15
 Coeff-En:   0.129D+00 0.299D+00 0.762D-01 0.366D-01 0.000D+00 0.311D+00
 Coeff-En:   0.000D+00 0.000D+00 0.000D+00 0.148D+00
 Coeff:      0.129D+00 0.299D+00 0.762D-01 0.366D-01 0.000D+00 0.311D+00
 Coeff:      0.000D+00 0.000D+00 0.000D+00 0.148D+00
 Gap=     0.000 Goal=   None    Shift=    0.000
 RMSDP=1.86D-03 MaxDP=7.79D-02 DE= 9.12D-03 OVMax= 8.67D-02

 Cycle  39  Pass 1  IDiag  1:
 Density matrix breaks symmetry, PCut= 1.00D-07
 Density has only Abelian symmetry.
 E= -340.343737965424     Delta-E=       -0.008877609540 Rises=F Damp=F
 DIIS: error= 9.37D-03 at cycle  39 NSaved=  11.
 NSaved=11 IEnMin= 4 EnMin= -340.346335087367     IErMin= 4 ErrMin= 6.10D-03
 ErrMax= 9.37D-03  0.00D+00 EMaxC= 1.00D-01 BMatC= 2.67D-03 BMatP= 4.13D-04
 IDIUse=3 WtCom= 9.39D-01 WtEn= 6.10D-02
 Large coefficients: NSaved= 11 BigCof=   12.10 CofMax=   10.00 Det=-3.27D-08
 Inversion failed.  Reducing to 10 matrices.
 Large coefficients: NSaved= 10 BigCof=   13.07 CofMax=   10.00 Det=-5.06D-08
 Inversion failed.  Reducing to  9 matrices.
 Large coefficients: NSaved=  9 BigCof=   12.73 CofMax=   10.00 Det=-5.31D-08
 Inversion failed.  Reducing to  8 matrices.
 Large coefficients: NSaved=  8 BigCof=   11.36 CofMax=   10.00 Det=-5.54D-08
 Inversion failed.  Reducing to  7 matrices.
 Large coefficients: NSaved=  7 BigCof=   26.78 CofMax=   10.00 Det=-6.43D-08
 Inversion failed.  Reducing to  6 matrices.
 Large coefficients: NSaved=  6 BigCof=   35.08 CofMax=   10.00 Det=-1.17D-07
 Inversion failed.  Reducing to  5 matrices.
 Large coefficients: NSaved=  5 BigCof=   31.32 CofMax=   10.00 Det=-2.18D-07
 Inversion failed.  Reducing to  4 matrices.
 EnCoef did   100 forward-backward iterations
 Coeff-Com:  0.597D+00 0.648D+00 0.295D+00-0.540D+00
 Coeff-En:   0.537D+00 0.245D-01 0.000D+00 0.438D+00
 Coeff:      0.593D+00 0.610D+00 0.277D+00-0.480D+00
 Gap=     0.002 Goal=   None    Shift=    0.000
 RMSDP=2.59D-03 MaxDP=1.10D-01 DE=-8.88D-03 OVMax= 1.20D-01

 Cycle  40  Pass 1  IDiag  1:
 Density matrix breaks symmetry, PCut= 1.00D-07
 Density has only Abelian symmetry.
 E= -340.328459005444     Delta-E=        0.015278959980 Rises=F Damp=F
 DIIS: error= 2.66D-02 at cycle  40 NSaved=   5.
 NSaved= 5 IEnMin= 1 EnMin= -340.346335087367     IErMin= 1 ErrMin= 6.10D-03
 ErrMax= 2.66D-02  0.00D+00 EMaxC= 1.00D-01 BMatC= 1.18D-02 BMatP= 4.13D-04
 IDIUse=2 WtCom= 0.00D+00 WtEn= 1.00D+00
 EnCoef did   100 forward-backward iterations
 Rare condition: small coef for last iteration: -0.129D-15
 Coeff-En:   0.741D-01 0.681D+00 0.000D+00 0.000D+00 0.245D+00
 Coeff:      0.741D-01 0.681D+00 0.000D+00 0.000D+00 0.245D+00
 Gap=     0.000 Goal=   None    Shift=    0.000
 RMSDP=1.25D-02 MaxDP=4.40D-01 DE= 1.53D-02 OVMax= 7.65D-02

 Cycle  41  Pass 1  IDiag  1:
 Density matrix breaks symmetry, PCut= 1.00D-07
 Density has only Abelian symmetry.
 E= -340.339625680597     Delta-E=       -0.011166675153 Rises=F Damp=F
 DIIS: error= 1.57D-02 at cycle  41 NSaved=   6.
 NSaved= 6 IEnMin= 1 EnMin= -340.346335087367     IErMin= 1 ErrMin= 6.10D-03
 ErrMax= 1.57D-02  0.00D+00 EMaxC= 1.00D-01 BMatC= 5.44D-03 BMatP= 4.13D-04
 IDIUse=2 WtCom= 0.00D+00 WtEn= 1.00D+00
 EnCoef did   100 forward-backward iterations
 Coeff-En:   0.456D+00 0.908D-03 0.000D+00 0.263D+00 0.368D-02 0.276D+00
 Coeff:      0.456D+00 0.908D-03 0.000D+00 0.263D+00 0.368D-02 0.276D+00
 Gap=     0.000 Goal=   None    Shift=    0.000
 RMSDP=1.22D-02 MaxDP=4.03D-01 DE=-1.12D-02 OVMax= 4.94D-02

 Cycle  42  Pass 1  IDiag  1:
 Density matrix breaks symmetry, PCut= 1.00D-07
 Density has only Abelian symmetry.
 E= -340.344369845970     Delta-E=       -0.004744165373 Rises=F Damp=F
 DIIS: error= 8.81D-03 at cycle  42 NSaved=   7.
 NSaved= 7 IEnMin= 1 EnMin= -340.346335087367     IErMin= 1 ErrMin= 6.10D-03
 ErrMax= 8.81D-03  0.00D+00 EMaxC= 1.00D-01 BMatC= 2.23D-03 BMatP= 4.13D-04
 IDIUse=3 WtCom= 9.39D-01 WtEn= 6.10D-02
 EnCoef did   100 forward-backward iterations
 Rare condition: small coef for last iteration:  0.333D-15
 Coeff-Com:  0.550D+00 0.703D+00-0.391D+00-0.349D+01 0.643D+00-0.694D-01
 Coeff-Com:  0.306D+01
 Coeff-En:   0.484D-01 0.416D+00 0.000D+00 0.000D+00 0.000D+00 0.217D+00
 Coeff-En:   0.318D+00
 Coeff:      0.550D+00 0.703D+00-0.391D+00-0.349D+01 0.643D+00-0.694D-01
 Coeff:      0.306D+01
 Gap=     0.002 Goal=   None    Shift=    0.000
 RMSDP=2.92D-03 MaxDP=1.27D-01 DE=-4.74D-03 OVMax= 1.42D-01

 Cycle  43  Pass 1  IDiag  1:
 Density matrix breaks symmetry, PCut= 1.00D-07
 Density has only Abelian symmetry.
 E= -340.325606012756     Delta-E=        0.018763833214 Rises=F Damp=F
 DIIS: error= 2.91D-02 at cycle  43 NSaved=   8.
 NSaved= 8 IEnMin= 1 EnMin= -340.346335087367     IErMin= 1 ErrMin= 6.10D-03
 ErrMax= 2.91D-02  0.00D+00 EMaxC= 1.00D-01 BMatC= 1.32D-02 BMatP= 4.13D-04
 IDIUse=2 WtCom= 0.00D+00 WtEn= 1.00D+00
 EnCoef did   100 forward-backward iterations
 Rare condition: small coef for last iteration:  0.000D+00
 Coeff-En:   0.568D-01 0.475D+00 0.000D+00 0.277D+00 0.131D-01 0.137D+00
 Coeff-En:   0.000D+00 0.421D-01
 Coeff:      0.568D-01 0.475D+00 0.000D+00 0.277D+00 0.131D-01 0.137D+00
 Coeff:      0.000D+00 0.421D-01
 Gap=     0.001 Goal=   None    Shift=    0.000
 RMSDP=1.26D-02 MaxDP=4.46D-01 DE= 1.88D-02 OVMax= 8.02D-02

 Cycle  44  Pass 1  IDiag  1:
 Density matrix breaks symmetry, PCut= 1.00D-07
 Density has only Abelian symmetry.
 E= -340.342666250479     Delta-E=       -0.017060237723 Rises=F Damp=F
 DIIS: error= 1.07D-02 at cycle  44 NSaved=   9.
 NSaved= 9 IEnMin= 1 EnMin= -340.346335087367     IErMin= 1 ErrMin= 6.10D-03
 ErrMax= 1.07D-02  0.00D+00 EMaxC= 1.00D-01 BMatC= 3.39D-03 BMatP= 4.13D-04
 IDIUse=2 WtCom= 0.00D+00 WtEn= 1.00D+00
 EnCoef did   100 forward-backward iterations
 Coeff-En:   0.406D+00 0.100D-02 0.000D+00 0.278D+00 0.000D+00 0.975D-03
 Coeff-En:   0.103D-02 0.249D-02 0.310D+00
 Coeff:      0.406D+00 0.100D-02 0.000D+00 0.278D+00 0.000D+00 0.975D-03
 Coeff:      0.103D-02 0.249D-02 0.310D+00
 Gap=     0.000 Goal=   None    Shift=    0.000
 RMSDP=1.21D-02 MaxDP=3.97D-01 DE=-1.71D-02 OVMax= 3.04D-02

 Cycle  45  Pass 1  IDiag  1:
 Density matrix breaks symmetry, PCut= 1.00D-07
 Density has only Abelian symmetry.
 E= -340.344544913679     Delta-E=       -0.001878663199 Rises=F Damp=F
 DIIS: error= 7.79D-03 at cycle  45 NSaved=  10.
 NSaved=10 IEnMin= 1 EnMin= -340.346335087367     IErMin= 1 ErrMin= 6.10D-03
 ErrMax= 7.79D-03  0.00D+00 EMaxC= 1.00D-01 BMatC= 2.08D-03 BMatP= 4.13D-04
 IDIUse=3 WtCom= 9.39D-01 WtEn= 6.10D-02
 EnCoef did   100 forward-backward iterations
 Rare condition: small coef for last iteration: -0.550D-15
 Coeff-Com: -0.224D+00 0.104D+01 0.182D+01-0.425D+01 0.899D+00-0.275D+00
 Coeff-Com:  0.247D+01-0.175D+01 0.291D+00 0.979D+00
 Coeff-En:   0.457D-01 0.360D+00 0.000D+00 0.000D+00 0.000D+00 0.000D+00
 Coeff-En:   0.000D+00 0.000D+00 0.275D+00 0.319D+00
 Coeff:     -0.224D+00 0.104D+01 0.182D+01-0.425D+01 0.899D+00-0.275D+00
 Coeff:      0.247D+01-0.175D+01 0.291D+00 0.979D+00
 Gap=     0.001 Goal=   None    Shift=    0.000
 RMSDP=1.23D-02 MaxDP=4.07D-01 DE=-1.88D-03 OVMax= 7.96D-02

 Cycle  46  Pass 1  IDiag  1:
 Density matrix breaks symmetry, PCut= 1.00D-07
 Density has only Abelian symmetry.
 E= -340.337006076112     Delta-E=        0.007538837566 Rises=F Damp=F
 DIIS: error= 1.99D-02 at cycle  46 NSaved=  11.
 NSaved=11 IEnMin= 1 EnMin= -340.346335087367     IErMin= 1 ErrMin= 6.10D-03
 ErrMax= 1.99D-02  0.00D+00 EMaxC= 1.00D-01 BMatC= 6.89D-03 BMatP= 4.13D-04
 IDIUse=2 WtCom= 0.00D+00 WtEn= 1.00D+00
 EnCoef did   100 forward-backward iterations
 Rare condition: small coef for last iteration:  0.000D+00
 Coeff-En:   0.476D-01 0.402D+00 0.000D+00 0.000D+00 0.000D+00 0.000D+00
 Coeff-En:   0.919D-01 0.000D+00 0.107D+00 0.224D+00 0.128D+00
 Coeff:      0.476D-01 0.402D+00 0.000D+00 0.000D+00 0.000D+00 0.000D+00
 Coeff:      0.919D-01 0.000D+00 0.107D+00 0.224D+00 0.128D+00
 Gap=     0.000 Goal=   None    Shift=    0.000
 RMSDP=1.23D-02 MaxDP=4.09D-01 DE= 7.54D-03 OVMax= 7.28D-02

 Cycle  47  Pass 1  IDiag  1:
 Density matrix breaks symmetry, PCut= 1.00D-07
 Density has only Abelian symmetry.
 E= -340.344566741062     Delta-E=       -0.007560664949 Rises=F Damp=F
 DIIS: error= 8.49D-03 at cycle  47 NSaved=  12.
 NSaved=12 IEnMin= 1 EnMin= -340.346335087367     IErMin= 1 ErrMin= 6.10D-03
 ErrMax= 8.49D-03  0.00D+00 EMaxC= 1.00D-01 BMatC= 2.04D-03 BMatP= 4.13D-04
 IDIUse=3 WtCom= 9.39D-01 WtEn= 6.10D-02
 EnCoef did   100 forward-backward iterations
 Rare condition: small coef for last iteration:  0.000D+00
 Coeff-Com:  0.487D+00 0.817D-01-0.859D+00 0.165D+00-0.104D+01 0.239D+00
 Coeff-Com: -0.486D+01 0.105D+01-0.505D+00-0.127D+01 0.263D+00 0.724D+01
 Coeff-En:   0.483D-01 0.406D+00 0.000D+00 0.000D+00 0.000D+00 0.000D+00
 Coeff-En:   0.101D+00 0.000D+00 0.117D+00 0.260D-01 0.107D+00 0.195D+00
 Coeff:      0.487D+00 0.817D-01-0.859D+00 0.165D+00-0.104D+01 0.239D+00
 Coeff:     -0.486D+01 0.105D+01-0.505D+00-0.127D+01 0.263D+00 0.724D+01
 Gap=     0.001 Goal=   None    Shift=    0.000
 RMSDP=1.20D-02 MaxDP=4.09D-01 DE=-7.56D-03 OVMax= 3.86D-02

 Cycle  48  Pass 1  IDiag  1:
 Density matrix breaks symmetry, PCut= 1.00D-07
 Density has only Abelian symmetry.
 E= -340.338392918094     Delta-E=        0.006173822968 Rises=F Damp=F
 DIIS: error= 1.54D-02 at cycle  48 NSaved=  13.
 NSaved=13 IEnMin= 1 EnMin= -340.346335087367     IErMin= 1 ErrMin= 6.10D-03
 ErrMax= 1.54D-02  0.00D+00 EMaxC= 1.00D-01 BMatC= 6.26D-03 BMatP= 4.13D-04
 IDIUse=2 WtCom= 0.00D+00 WtEn= 1.00D+00
 EnCoef did   100 forward-backward iterations
 Coeff-En:   0.422D+00 0.155D-03 0.000D+00 0.298D+00 0.000D+00 0.124D-01
 Coeff-En:   0.141D-03 0.000D+00 0.220D-03 0.278D-02 0.000D+00 0.354D-03
 Coeff-En:   0.265D+00
 Coeff:      0.422D+00 0.155D-03 0.000D+00 0.298D+00 0.000D+00 0.124D-01
 Coeff:      0.141D-03 0.000D+00 0.220D-03 0.278D-02 0.000D+00 0.354D-03
 Coeff:      0.265D+00
 Gap=     0.001 Goal=   None    Shift=    0.000
 RMSDP=1.20D-02 MaxDP=4.04D-01 DE= 6.17D-03 OVMax= 4.78D-02

 Cycle  49  Pass 1  IDiag  1:
 Density matrix breaks symmetry, PCut= 1.00D-07
 Density has only Abelian symmetry.
 E= -340.344885963559     Delta-E=       -0.006493045465 Rises=F Damp=F
 DIIS: error= 8.30D-03 at cycle  49 NSaved=  14.
 NSaved=14 IEnMin= 1 EnMin= -340.346335087367     IErMin= 1 ErrMin= 6.10D-03
 ErrMax= 8.30D-03  0.00D+00 EMaxC= 1.00D-01 BMatC= 1.84D-03 BMatP= 4.13D-04
 IDIUse=3 WtCom= 9.39D-01 WtEn= 6.10D-02
 EnCoef did   100 forward-backward iterations
 Rare condition: small coef for last iteration:  0.000D+00
 Coeff-Com:  0.444D+00 0.159D+00-0.669D+00 0.756D+00-0.754D+00-0.765D+00
 Coeff-Com: -0.408D+01 0.830D+00 0.628D+00-0.177D+01 0.598D+00 0.576D+01
 Coeff-Com: -0.358D+00 0.214D+00
 Coeff-En:   0.462D-01 0.370D+00 0.000D+00 0.000D+00 0.000D+00 0.000D+00
 Coeff-En:   0.000D+00 0.000D+00 0.173D-01 0.335D-02 0.000D+00 0.000D+00
 Coeff-En:   0.223D+00 0.339D+00
 Coeff:      0.444D+00 0.159D+00-0.669D+00 0.756D+00-0.754D+00-0.765D+00
 Coeff:     -0.408D+01 0.830D+00 0.628D+00-0.177D+01 0.598D+00 0.576D+01
 Coeff:     -0.358D+00 0.214D+00
 Gap=     0.000 Goal=   None    Shift=    0.000
 RMSDP=1.21D-02 MaxDP=4.04D-01 DE=-6.49D-03 OVMax= 5.35D-02

 Cycle  50  Pass 1  IDiag  1:
 Density matrix breaks symmetry, PCut= 1.00D-07
 Density has only Abelian symmetry.
 E= -340.339625443624     Delta-E=        0.005260519935 Rises=F Damp=F
 DIIS: error= 1.60D-02 at cycle  50 NSaved=  15.
 NSaved=15 IEnMin= 1 EnMin= -340.346335087367     IErMin= 1 ErrMin= 6.10D-03
 ErrMax= 1.60D-02  0.00D+00 EMaxC= 1.00D-01 BMatC= 5.27D-03 BMatP= 4.13D-04
 IDIUse=2 WtCom= 0.00D+00 WtEn= 1.00D+00
 EnCoef did   100 forward-backward iterations
 Rare condition: small coef for last iteration:  0.000D+00
 Coeff-En:   0.460D-01 0.381D+00 0.000D+00 0.000D+00 0.000D+00 0.000D+00
 Coeff-En:   0.234D-01 0.000D+00 0.422D-01 0.304D-01 0.000D+00 0.000D+00
 Coeff-En:   0.183D-01 0.273D+00 0.186D+00
 Coeff:      0.460D-01 0.381D+00 0.000D+00 0.000D+00 0.000D+00 0.000D+00
 Coeff:      0.234D-01 0.000D+00 0.422D-01 0.304D-01 0.000D+00 0.000D+00
 Coeff:      0.183D-01 0.273D+00 0.186D+00
 Gap=     0.000 Goal=   None    Shift=    0.000
 RMSDP=1.21D-02 MaxDP=4.07D-01 DE= 5.26D-03 OVMax= 4.80D-02

 Cycle  51  Pass 1  IDiag  1:
 Density matrix breaks symmetry, PCut= 1.00D-07
 Density has only Abelian symmetry.
 E= -340.344754195360     Delta-E=       -0.005128751736 Rises=F Damp=F
 DIIS: error= 8.10D-03 at cycle  51 NSaved=  16.
 NSaved=16 IEnMin= 1 EnMin= -340.346335087367     IErMin= 1 ErrMin= 6.10D-03
 ErrMax= 8.10D-03  0.00D+00 EMaxC= 1.00D-01 BMatC= 1.90D-03 BMatP= 4.13D-04
 IDIUse=3 WtCom= 9.39D-01 WtEn= 6.10D-02
 Large coefficients: NSaved= 16 BigCof=   19.97 CofMax=   10.00 Det=-3.93D-09
 Inversion failed.  Reducing to 15 matrices.
 Large coefficients: NSaved= 15 BigCof=   23.01 CofMax=   10.00 Det=-4.48D-09
 Inversion failed.  Reducing to 14 matrices.
 Large coefficients: NSaved= 14 BigCof=   22.96 CofMax=   10.00 Det=-8.34D-09
 Inversion failed.  Reducing to 13 matrices.
 Large coefficients: NSaved= 13 BigCof=   20.38 CofMax=   10.00 Det=-8.64D-09
 Inversion failed.  Reducing to 12 matrices.
 Large coefficients: NSaved= 12 BigCof=   24.54 CofMax=   10.00 Det=-1.93D-08
 Inversion failed.  Reducing to 11 matrices.
 Large coefficients: NSaved= 11 BigCof=   25.37 CofMax=   10.00 Det=-2.39D-08
 Inversion failed.  Reducing to 10 matrices.
 Large coefficients: NSaved= 10 BigCof=   25.77 CofMax=   10.00 Det=-2.43D-08
 Inversion failed.  Reducing to  9 matrices.
 Large coefficients: NSaved=  9 BigCof=   23.70 CofMax=   10.00 Det=-2.48D-08
 Inversion failed.  Reducing to  8 matrices.
 Large coefficients: NSaved=  8 BigCof=   27.45 CofMax=   10.00 Det=-3.12D-08
 Inversion failed.  Reducing to  7 matrices.
 Large coefficients: NSaved=  7 BigCof=   30.18 CofMax=   10.00 Det=-4.02D-08
 Inversion failed.  Reducing to  6 matrices.
 Large coefficients: NSaved=  6 BigCof=   25.61 CofMax=   10.00 Det=-4.55D-07
 Inversion failed.  Reducing to  5 matrices.
 EnCoef did   100 forward-backward iterations
 Coeff-Com:  0.591D+00 0.486D+00-0.321D+01-0.288D-01 0.316D+01
 Coeff-En:   0.412D+00 0.134D-01 0.534D-01 0.284D+00 0.237D+00
 Coeff:      0.580D+00 0.457D+00-0.301D+01-0.972D-02 0.298D+01
 Gap=     0.001 Goal=   None    Shift=    0.000
 RMSDP=2.23D-03 MaxDP=9.69D-02 DE=-5.13D-03 OVMax= 1.01D-01

 Cycle  52  Pass 1  IDiag  1:
 Density matrix breaks symmetry, PCut= 1.00D-07
 Density has only Abelian symmetry.
 E= -340.333511585114     Delta-E=        0.011242610246 Rises=F Damp=F
 DIIS: error= 2.26D-02 at cycle  52 NSaved=   6.
 NSaved= 6 IEnMin= 1 EnMin= -340.346335087367     IErMin= 1 ErrMin= 6.10D-03
 ErrMax= 2.26D-02  0.00D+00 EMaxC= 1.00D-01 BMatC= 8.69D-03 BMatP= 4.13D-04
 IDIUse=2 WtCom= 0.00D+00 WtEn= 1.00D+00
 EnCoef did   100 forward-backward iterations
 Rare condition: small coef for last iteration: -0.137D-14
 Coeff-En:   0.591D-01 0.446D+00 0.279D+00 0.134D+00 0.000D+00 0.823D-01
 Coeff:      0.591D-01 0.446D+00 0.279D+00 0.134D+00 0.000D+00 0.823D-01
 Gap=     0.000 Goal=   None    Shift=    0.000
 RMSDP=1.25D-02 MaxDP=4.43D-01 DE= 1.12D-02 OVMax= 8.78D-02

 Cycle  53  Pass 1  IDiag  1:
 Density matrix breaks symmetry, PCut= 1.00D-07
 Density has only Abelian symmetry.
 E= -340.342695739379     Delta-E=       -0.009184154265 Rises=F Damp=F
 DIIS: error= 1.02D-02 at cycle  53 NSaved=   7.
 NSaved= 7 IEnMin= 1 EnMin= -340.346335087367     IErMin= 1 ErrMin= 6.10D-03
 ErrMax= 1.02D-02  0.00D+00 EMaxC= 1.00D-01 BMatC= 3.39D-03 BMatP= 4.13D-04
 IDIUse=2 WtCom= 0.00D+00 WtEn= 1.00D+00
 EnCoef did   100 forward-backward iterations
 Coeff-En:   0.397D+00 0.210D-02 0.458D-01 0.200D-01 0.242D+00 0.563D-02
 Coeff-En:   0.288D+00
 Coeff:      0.397D+00 0.210D-02 0.458D-01 0.200D-01 0.242D+00 0.563D-02
 Coeff:      0.288D+00
 Gap=     0.000 Goal=   None    Shift=    0.000
 RMSDP=1.21D-02 MaxDP=3.97D-01 DE=-9.18D-03 OVMax= 2.99D-02

 Cycle  54  Pass 1  IDiag  1:
 Density matrix breaks symmetry, PCut= 1.00D-07
 Density has only Abelian symmetry.
 E= -340.344564564917     Delta-E=       -0.001868825538 Rises=F Damp=F
 DIIS: error= 7.60D-03 at cycle  54 NSaved=   8.
 NSaved= 8 IEnMin= 1 EnMin= -340.346335087367     IErMin= 1 ErrMin= 6.10D-03
 ErrMax= 7.60D-03  0.00D+00 EMaxC= 1.00D-01 BMatC= 2.04D-03 BMatP= 4.13D-04
 IDIUse=3 WtCom= 9.39D-01 WtEn= 6.10D-02
 EnCoef did   100 forward-backward iterations
 Coeff-Com:  0.266D+00 0.671D+00-0.237D+01-0.201D+00 0.566D+01-0.166D+00
 Coeff-Com:  0.177D+00-0.304D+01
 Coeff-En:   0.384D+00 0.910D-03 0.137D-03 0.348D-03 0.301D-03 0.243D-02
 Coeff-En:   0.319D+00 0.293D+00
 Coeff:      0.273D+00 0.630D+00-0.222D+01-0.189D+00 0.531D+01-0.156D+00
 Coeff:      0.186D+00-0.283D+01
 Gap=     0.001 Goal=   None    Shift=    0.000
 RMSDP=1.24D-02 MaxDP=4.18D-01 DE=-1.87D-03 OVMax= 9.53D-02

 Cycle  55  Pass 1  IDiag  1:
 Density matrix breaks symmetry, PCut= 1.00D-07
 Density has only Abelian symmetry.
 E= -340.335132398489     Delta-E=        0.009432166428 Rises=F Damp=F
 DIIS: error= 2.21D-02 at cycle  55 NSaved=   9.
 NSaved= 9 IEnMin= 1 EnMin= -340.346335087367     IErMin= 1 ErrMin= 6.10D-03
 ErrMax= 2.21D-02  0.00D+00 EMaxC= 1.00D-01 BMatC= 7.86D-03 BMatP= 4.13D-04
 IDIUse=2 WtCom= 0.00D+00 WtEn= 1.00D+00
 EnCoef did   100 forward-backward iterations
 Rare condition: small coef for last iteration: -0.412D-15
 Coeff-En:   0.503D-01 0.398D+00 0.535D-01 0.249D-01 0.101D+00 0.000D+00
 Coeff-En:   0.115D+00 0.173D+00 0.831D-01
 Coeff:      0.503D-01 0.398D+00 0.535D-01 0.249D-01 0.101D+00 0.000D+00
 Coeff:      0.115D+00 0.173D+00 0.831D-01
 Gap=     0.001 Goal=   None    Shift=    0.000
 RMSDP=1.78D-03 MaxDP=7.79D-02 DE= 9.43D-03 OVMax= 2.89D-02

 Cycle  56  Pass 1  IDiag  1:
 Density matrix breaks symmetry, PCut= 1.00D-07
 Density has only Abelian symmetry.
 E= -340.343725358911     Delta-E=       -0.008592960423 Rises=F Damp=F
 DIIS: error= 8.78D-03 at cycle  56 NSaved=  10.
 NSaved=10 IEnMin= 1 EnMin= -340.346335087367     IErMin= 1 ErrMin= 6.10D-03
 ErrMax= 8.78D-03  0.00D+00 EMaxC= 1.00D-01 BMatC= 2.62D-03 BMatP= 4.13D-04
 IDIUse=3 WtCom= 9.39D-01 WtEn= 6.10D-02
 EnCoef did   100 forward-backward iterations
 Coeff-Com:  0.712D+00-0.258D-01-0.133D+01 0.656D-01 0.378D+01-0.151D+00
 Coeff-Com: -0.301D+01-0.224D+01 0.136D+00 0.307D+01
 Coeff-En:   0.381D+00 0.209D-02 0.000D+00 0.132D-03 0.000D+00 0.000D+00
 Coeff-En:   0.319D+00 0.297D+00 0.000D+00 0.101D-02
 Coeff:      0.692D+00-0.241D-01-0.125D+01 0.616D-01 0.355D+01-0.142D+00
 Coeff:     -0.281D+01-0.209D+01 0.127D+00 0.288D+01
 Gap=     0.002 Goal=   None    Shift=    0.000
 RMSDP=1.21D-02 MaxDP=3.93D-01 DE=-8.59D-03 OVMax= 5.20D-02

 Cycle  57  Pass 1  IDiag  1:
 Density matrix breaks symmetry, PCut= 1.00D-07
 Density has only Abelian symmetry.
 E= -340.338958310264     Delta-E=        0.004767048647 Rises=F Damp=F
 DIIS: error= 1.71D-02 at cycle  57 NSaved=  11.
 NSaved=11 IEnMin= 1 EnMin= -340.346335087367     IErMin= 1 ErrMin= 6.10D-03
 ErrMax= 1.71D-02  0.00D+00 EMaxC= 1.00D-01 BMatC= 5.70D-03 BMatP= 4.13D-04
 IDIUse=2 WtCom= 0.00D+00 WtEn= 1.00D+00
 EnCoef did   100 forward-backward iterations
 Rare condition: small coef for last iteration:  0.221D-14
 Coeff-En:   0.444D-01 0.385D+00 0.180D-01 0.000D+00 0.506D-01 0.000D+00
 Coeff-En:   0.631D-01 0.948D-01 0.000D+00 0.200D+00 0.144D+00
 Coeff:      0.444D-01 0.385D+00 0.180D-01 0.000D+00 0.506D-01 0.000D+00
 Coeff:      0.631D-01 0.948D-01 0.000D+00 0.200D+00 0.144D+00
 Gap=     0.000 Goal=   None    Shift=    0.000
 RMSDP=1.21D-02 MaxDP=3.95D-01 DE= 4.77D-03 OVMax= 5.61D-02

 Cycle  58  Pass 1  IDiag  1:
 Density matrix breaks symmetry, PCut= 1.00D-07
 Density has only Abelian symmetry.
 E= -340.344237678272     Delta-E=       -0.005279368008 Rises=F Damp=F
 DIIS: error= 8.35D-03 at cycle  58 NSaved=  12.
 NSaved=12 IEnMin= 1 EnMin= -340.346335087367     IErMin= 1 ErrMin= 6.10D-03
 ErrMax= 8.35D-03  0.00D+00 EMaxC= 1.00D-01 BMatC= 2.26D-03 BMatP= 4.13D-04
 IDIUse=3 WtCom= 9.39D-01 WtEn= 6.10D-02
 EnCoef did   100 forward-backward iterations
 Rare condition: small coef for last iteration: -0.276D-15
 Coeff-Com: -0.115D-01 0.534D+00-0.966D+00 0.942D+00 0.435D+01-0.288D+00
 Coeff-Com: -0.123D+01-0.331D+01-0.433D+00-0.445D+01 0.341D+00 0.552D+01
 Coeff-En:   0.442D-01 0.383D+00 0.178D-01 0.000D+00 0.434D-01 0.000D+00
 Coeff-En:   0.573D-01 0.933D-01 0.000D+00 0.000D+00 0.147D+00 0.213D+00
 Coeff:     -0.115D-01 0.534D+00-0.966D+00 0.942D+00 0.435D+01-0.288D+00
 Coeff:     -0.123D+01-0.331D+01-0.433D+00-0.445D+01 0.341D+00 0.552D+01
 Gap=     0.001 Goal=   None    Shift=    0.000
 RMSDP=1.20D-02 MaxDP=3.95D-01 DE=-5.28D-03 OVMax= 3.63D-02

 Cycle  59  Pass 1  IDiag  1:
 Density matrix breaks symmetry, PCut= 1.00D-07
 Density has only Abelian symmetry.
 E= -340.340597006889     Delta-E=        0.003640671384 Rises=F Damp=F
 DIIS: error= 1.38D-02 at cycle  59 NSaved=  13.
 NSaved=13 IEnMin= 1 EnMin= -340.346335087367     IErMin= 1 ErrMin= 6.10D-03
 ErrMax= 1.38D-02  0.00D+00 EMaxC= 1.00D-01 BMatC= 4.68D-03 BMatP= 4.13D-04
 IDIUse=2 WtCom= 0.00D+00 WtEn= 1.00D+00
 EnCoef did   100 forward-backward iterations
 Coeff-En:   0.404D+00 0.710D-02 0.921D-02 0.339D-03 0.000D+00 0.000D+00
 Coeff-En:   0.317D+00 0.850D-02 0.000D+00 0.124D-02 0.000D+00 0.332D-02
 Coeff-En:   0.249D+00
 Coeff:      0.404D+00 0.710D-02 0.921D-02 0.339D-03 0.000D+00 0.000D+00
 Coeff:      0.317D+00 0.850D-02 0.000D+00 0.124D-02 0.000D+00 0.332D-02
 Coeff:      0.249D+00
 Gap=     0.001 Goal=   None    Shift=    0.000
 RMSDP=8.88D-04 MaxDP=3.07D-02 DE= 3.64D-03 OVMax= 3.96D-02

 Cycle  60  Pass 1  IDiag  1:
 Density matrix breaks symmetry, PCut= 1.00D-07
 Density has only Abelian symmetry.
 E= -340.344681203771     Delta-E=       -0.004084196883 Rises=F Damp=F
 DIIS: error= 8.17D-03 at cycle  60 NSaved=  14.
 NSaved=14 IEnMin= 1 EnMin= -340.346335087367     IErMin= 1 ErrMin= 6.10D-03
 ErrMax= 8.17D-03  0.00D+00 EMaxC= 1.00D-01 BMatC= 2.03D-03 BMatP= 4.13D-04
 IDIUse=3 WtCom= 9.39D-01 WtEn= 6.10D-02
 EnCoef did   100 forward-backward iterations
 Rare condition: small coef for last iteration:  0.148D-15
 Coeff-Com:  0.319D+00 0.978D-01-0.375D+00 0.500D+00 0.253D+01 0.758D+00
 Coeff-Com: -0.143D+01 0.155D+01-0.189D+00-0.178D+01-0.326D+01 0.315D+01
 Coeff-Com:  0.246D+01-0.334D+01
 Coeff-En:   0.463D-01 0.341D+00 0.000D+00 0.000D+00 0.000D+00 0.000D+00
 Coeff-En:   0.000D+00 0.265D-02 0.000D+00 0.000D+00 0.000D+00 0.299D+00
 Coeff-En:   0.000D+00 0.311D+00
 Coeff:      0.319D+00 0.978D-01-0.375D+00 0.500D+00 0.253D+01 0.758D+00
 Coeff:     -0.143D+01 0.155D+01-0.189D+00-0.178D+01-0.326D+01 0.315D+01
 Coeff:      0.246D+01-0.334D+01
 Gap=     0.000 Goal=   None    Shift=    0.000
 RMSDP=1.20D-02 MaxDP=3.97D-01 DE=-4.08D-03 OVMax= 2.88D-02

 Cycle  61  Pass 1  IDiag  1:
 Density matrix breaks symmetry, PCut= 1.00D-07
 Density has only Abelian symmetry.
 E= -340.342327108137     Delta-E=        0.002354095634 Rises=F Damp=F
 DIIS: error= 1.13D-02 at cycle  61 NSaved=  15.
 NSaved=15 IEnMin= 1 EnMin= -340.346335087367     IErMin= 1 ErrMin= 6.10D-03
 ErrMax= 1.13D-02  0.00D+00 EMaxC= 1.00D-01 BMatC= 3.44D-03 BMatP= 4.13D-04
 IDIUse=2 WtCom= 0.00D+00 WtEn= 1.00D+00
 EnCoef did   100 forward-backward iterations
 Coeff-En:   0.405D+00 0.651D-02 0.000D+00 0.559D-02 0.000D+00 0.000D+00
 Coeff-En:   0.959D-04 0.292D-02 0.000D+00 0.373D-04 0.000D+00 0.273D-02
 Coeff-En:   0.255D+00 0.111D-01 0.311D+00
 Coeff:      0.405D+00 0.651D-02 0.000D+00 0.559D-02 0.000D+00 0.000D+00
 Coeff:      0.959D-04 0.292D-02 0.000D+00 0.373D-04 0.000D+00 0.273D-02
 Coeff:      0.255D+00 0.111D-01 0.311D+00
 Gap=     0.001 Goal=   None    Shift=    0.000
 RMSDP=1.21D-02 MaxDP=3.98D-01 DE= 2.35D-03 OVMax= 2.75D-02

 Cycle  62  Pass 1  IDiag  1:
 Density matrix breaks symmetry, PCut= 1.00D-07
 Density has only Abelian symmetry.
 E= -340.344788156898     Delta-E=       -0.002461048761 Rises=F Damp=F
 DIIS: error= 8.46D-03 at cycle  62 NSaved=  16.
 NSaved=16 IEnMin= 1 EnMin= -340.346335087367     IErMin= 1 ErrMin= 6.10D-03
 ErrMax= 8.46D-03  0.00D+00 EMaxC= 1.00D-01 BMatC= 1.97D-03 BMatP= 4.13D-04
 IDIUse=3 WtCom= 9.39D-01 WtEn= 6.10D-02
 EnCoef did   100 forward-backward iterations
 Rare condition: small coef for last iteration:  0.000D+00
 Coeff-Com:  0.190D+00 0.725D-01-0.289D+01-0.227D+01 0.154D+01 0.519D+00
 Coeff-Com: -0.342D+01 0.459D+01 0.780D+00 0.524D+01-0.153D+01-0.192D+01
 Coeff-Com:  0.474D+00-0.571D+01 0.205D+01 0.327D+01
 Coeff-En:   0.456D-01 0.344D+00 0.000D+00 0.000D+00 0.000D+00 0.000D+00
 Coeff-En:   0.000D+00 0.000D+00 0.000D+00 0.000D+00 0.000D+00 0.789D-03
 Coeff-En:   0.000D+00 0.000D+00 0.277D+00 0.332D+00
 Coeff:      0.190D+00 0.725D-01-0.289D+01-0.227D+01 0.154D+01 0.519D+00
 Coeff:     -0.342D+01 0.459D+01 0.780D+00 0.524D+01-0.153D+01-0.192D+01
 Coeff:      0.474D+00-0.571D+01 0.205D+01 0.327D+01
 Gap=     0.001 Goal=   None    Shift=    0.000
 RMSDP=9.93D-04 MaxDP=3.85D-02 DE=-2.46D-03 OVMax= 4.95D-02

 Cycle  63  Pass 1  IDiag  1:
 Density matrix breaks symmetry, PCut= 1.00D-07
 Density has only Abelian symmetry.
 E= -340.342088830712     Delta-E=        0.002699326186 Rises=F Damp=F
 DIIS: error= 1.29D-02 at cycle  63 NSaved=  17.
 NSaved=17 IEnMin= 1 EnMin= -340.346335087367     IErMin= 1 ErrMin= 6.10D-03
 ErrMax= 1.29D-02  0.00D+00 EMaxC= 1.00D-01 BMatC= 3.53D-03 BMatP= 4.13D-04
 IDIUse=2 WtCom= 0.00D+00 WtEn= 1.00D+00
 EnCoef did   100 forward-backward iterations
 Coeff-En:   0.407D+00 0.505D-02 0.000D+00 0.115D-02 0.000D+00 0.000D+00
 Coeff-En:   0.291D-03 0.266D-02 0.000D+00 0.123D-04 0.000D+00 0.195D-03
 Coeff-En:   0.259D+00 0.000D+00 0.318D+00 0.628D-03 0.622D-02
 Coeff:      0.407D+00 0.505D-02 0.000D+00 0.115D-02 0.000D+00 0.000D+00
 Coeff:      0.291D-03 0.266D-02 0.000D+00 0.123D-04 0.000D+00 0.195D-03
 Coeff:      0.259D+00 0.000D+00 0.318D+00 0.628D-03 0.622D-02
 Gap=     0.000 Goal=   None    Shift=    0.000
 RMSDP=9.94D-04 MaxDP=3.85D-02 DE= 2.70D-03 OVMax= 4.96D-02

 Cycle  64  Pass 1  IDiag  1:
 Density matrix breaks symmetry, PCut= 1.00D-07
 Density has only Abelian symmetry.
 E= -340.344791557264     Delta-E=       -0.002702726551 Rises=F Damp=F
 DIIS: error= 8.47D-03 at cycle  64 NSaved=  18.
 NSaved=18 IEnMin= 1 EnMin= -340.346335087367     IErMin= 1 ErrMin= 6.10D-03
 ErrMax= 8.47D-03  0.00D+00 EMaxC= 1.00D-01 BMatC= 1.97D-03 BMatP= 4.13D-04
 IDIUse=3 WtCom= 9.39D-01 WtEn= 6.10D-02
 Large coefficients: NSaved= 18 BigCof=   24.81 CofMax=   10.00 Det=-4.91D-11
 Inversion failed.  Reducing to 17 matrices.
 Large coefficients: NSaved= 17 BigCof=   44.78 CofMax=   10.00 Det=-5.39D-11
 Inversion failed.  Reducing to 16 matrices.
 EnCoef did   100 forward-backward iterations
 Rare condition: small coef for last iteration:  0.144D-14
 Coeff-Com: -0.145D-01 0.348D+00-0.149D+01-0.890D-01 0.433D+01-0.137D+01
 Coeff-Com:  0.153D+00-0.136D+01-0.246D+00 0.254D+01-0.469D+00-0.391D+01
 Coeff-Com:  0.580D+00-0.787D+01 0.482D+00 0.937D+01
 Coeff-En:   0.456D-01 0.344D+00 0.000D+00 0.000D+00 0.000D+00 0.000D+00
 Coeff-En:   0.000D+00 0.000D+00 0.000D+00 0.693D-03 0.000D+00 0.000D+00
[...]

 Cycle 112  Pass 1  IDiag  1:
 Density matrix breaks symmetry, PCut= 1.00D-07
 Density has only Abelian symmetry.
 E= -340.343957129409     Delta-E=       -0.011551856600 Rises=F Damp=F
 DIIS: error= 8.56D-03 at cycle 112 NSaved=  13.
 NSaved=13 IEnMin= 1 EnMin= -340.346335087367     IErMin= 1 ErrMin= 6.10D-03
 ErrMax= 8.56D-03  0.00D+00 EMaxC= 1.00D-01 BMatC= 2.40D-03 BMatP= 4.13D-04
 IDIUse=3 WtCom= 9.39D-01 WtEn= 6.10D-02
 Large coefficients: NSaved= 13 BigCof= 7520.66 CofMax=   10.00 Det=-2.25D-14
 Inversion failed.  Reducing to 12 matrices.
 Large coefficients: NSaved= 12 BigCof= 6059.92 CofMax=   10.00 Det=-2.31D-14
 Inversion failed.  Reducing to 11 matrices.
 EnCoef did   100 forward-backward iterations
 Coeff-Com:  0.338D+00 0.732D+00-0.173D+01 0.944D+00-0.234D+00 0.136D+01
 Coeff-Com: -0.482D+01 0.558D+01 0.551D+01-0.583D-01-0.662D+01
 Coeff-En:   0.353D+00 0.644D-02 0.000D+00 0.699D-04 0.101D-01 0.760D-02
 Coeff-En:   0.300D+00 0.815D-03 0.139D+00 0.000D+00 0.183D+00
 Coeff:      0.339D+00 0.688D+00-0.162D+01 0.887D+00-0.219D+00 0.127D+01
 Coeff:     -0.451D+01 0.524D+01 0.518D+01-0.547D-01-0.620D+01
 Gap=     0.002 Goal=   None    Shift=    0.000
 RMSDP=2.32D-03 MaxDP=9.81D-02 DE=-1.16D-02 OVMax= 1.07D-01

 Cycle 113  Pass 1  IDiag  1:
 Density matrix breaks symmetry, PCut= 1.00D-07
 Density has only Abelian symmetry.
 E= -340.332411263309     Delta-E=        0.011545866101 Rises=F Damp=F
 DIIS: error= 2.44D-02 at cycle 113 NSaved=  12.
 NSaved=12 IEnMin= 1 EnMin= -340.346335087367     IErMin= 1 ErrMin= 6.10D-03
 ErrMax= 2.44D-02  0.00D+00 EMaxC= 1.00D-01 BMatC= 9.32D-03 BMatP= 4.13D-04
 IDIUse=2 WtCom= 0.00D+00 WtEn= 1.00D+00
 EnCoef did   100 forward-backward iterations
 Rare condition: small coef for last iteration:  0.443D-15
 Coeff-En:   0.510D-01 0.366D+00 0.000D+00 0.126D+00 0.000D+00 0.211D+00
 Coeff-En:   0.255D-01 0.164D+00 0.000D+00 0.000D+00 0.000D+00 0.557D-01
 Coeff:      0.510D-01 0.366D+00 0.000D+00 0.126D+00 0.000D+00 0.211D+00
 Coeff:      0.255D-01 0.164D+00 0.000D+00 0.000D+00 0.000D+00 0.557D-01
 Gap=     0.003 Goal=   None    Shift=    0.000
 RMSDP=2.32D-03 MaxDP=9.81D-02 DE= 1.15D-02 OVMax= 4.45D-02

 Cycle 114  Pass 1  IDiag  1:
 Density matrix breaks symmetry, PCut= 1.00D-07
 Density has only Abelian symmetry.
 E= -340.343957106682     Delta-E=       -0.011545843373 Rises=F Damp=F
 DIIS: error= 8.56D-03 at cycle 114 NSaved=  13.
 NSaved=13 IEnMin= 1 EnMin= -340.346335087367     IErMin= 1 ErrMin= 6.10D-03
 ErrMax= 8.56D-03  0.00D+00 EMaxC= 1.00D-01 BMatC= 2.40D-03 BMatP= 4.13D-04
 IDIUse=3 WtCom= 9.39D-01 WtEn= 6.10D-02
 Large coefficients: NSaved= 13 BigCof=22815.94 CofMax=   10.00 Det=-2.46D-15
 Inversion failed.  Reducing to 12 matrices.
 Large coefficients: NSaved= 12 BigCof=18406.61 CofMax=   10.00 Det=-2.53D-15
 Inversion failed.  Reducing to 11 matrices.
 EnCoef did   100 forward-backward iterations
 Coeff-Com:  0.339D+00 0.732D+00-0.173D+01 0.944D+00-0.234D+00 0.136D+01
 Coeff-Com: -0.482D+01 0.558D+01 0.551D+01-0.583D-01-0.663D+01
 Coeff-En:   0.353D+00 0.644D-02 0.000D+00 0.709D-04 0.101D-01 0.760D-02
 Coeff-En:   0.300D+00 0.817D-03 0.139D+00 0.000D+00 0.183D+00
 Coeff:      0.340D+00 0.688D+00-0.162D+01 0.887D+00-0.219D+00 0.127D+01
 Coeff:     -0.451D+01 0.524D+01 0.519D+01-0.547D-01-0.621D+01
 Gap=     0.002 Goal=   None    Shift=    0.000
 RMSDP=2.32D-03 MaxDP=9.81D-02 DE=-1.15D-02 OVMax= 1.07D-01

 Cycle 115  Pass 1  IDiag  1:
 Density matrix breaks symmetry, PCut= 1.00D-07
 Density has only Abelian symmetry.
 E= -340.332409286742     Delta-E=        0.011547819940 Rises=F Damp=F
 DIIS: error= 2.44D-02 at cycle 115 NSaved=  12.
 NSaved=12 IEnMin= 1 EnMin= -340.346335087367     IErMin= 1 ErrMin= 6.10D-03
 ErrMax= 2.44D-02  0.00D+00 EMaxC= 1.00D-01 BMatC= 9.32D-03 BMatP= 4.13D-04
 IDIUse=2 WtCom= 0.00D+00 WtEn= 1.00D+00
 EnCoef did   100 forward-backward iterations
 Rare condition: small coef for last iteration: -0.295D-15
 Coeff-En:   0.510D-01 0.366D+00 0.000D+00 0.126D+00 0.000D+00 0.211D+00
 Coeff-En:   0.255D-01 0.164D+00 0.000D+00 0.000D+00 0.000D+00 0.557D-01
 Coeff:      0.510D-01 0.366D+00 0.000D+00 0.126D+00 0.000D+00 0.211D+00
 Coeff:      0.255D-01 0.164D+00 0.000D+00 0.000D+00 0.000D+00 0.557D-01
 Gap=     0.003 Goal=   None    Shift=    0.000
 RMSDP=2.32D-03 MaxDP=9.81D-02 DE= 1.15D-02 OVMax= 4.45D-02

 Cycle 116  Pass 1  IDiag  1:
 Density matrix breaks symmetry, PCut= 1.00D-07
 Density has only Abelian symmetry.
 E= -340.343957114173     Delta-E=       -0.011547827431 Rises=F Damp=F
 DIIS: error= 8.56D-03 at cycle 116 NSaved=  13.
 NSaved=13 IEnMin= 1 EnMin= -340.346335087367     IErMin= 1 ErrMin= 6.10D-03
 ErrMax= 8.56D-03  0.00D+00 EMaxC= 1.00D-01 BMatC= 2.40D-03 BMatP= 4.13D-04
 IDIUse=3 WtCom= 9.39D-01 WtEn= 6.10D-02
 Large coefficients: NSaved= 13 BigCof=    0.00 CofMax=   10.00 Det=-2.67D-16
 Inversion failed.  Reducing to 12 matrices.
 Large coefficients: NSaved= 12 BigCof=55657.63 CofMax=   10.00 Det=-2.75D-16
 Inversion failed.  Reducing to 11 matrices.
 EnCoef did   100 forward-backward iterations
 Coeff-Com:  0.339D+00 0.732D+00-0.173D+01 0.944D+00-0.234D+00 0.136D+01
 Coeff-Com: -0.482D+01 0.558D+01 0.551D+01-0.583D-01-0.662D+01
 Coeff-En:   0.353D+00 0.644D-02 0.000D+00 0.706D-04 0.101D-01 0.760D-02
 Coeff-En:   0.300D+00 0.816D-03 0.139D+00 0.000D+00 0.183D+00
 Coeff:      0.339D+00 0.688D+00-0.162D+01 0.887D+00-0.219D+00 0.127D+01
 Coeff:     -0.451D+01 0.524D+01 0.518D+01-0.547D-01-0.621D+01
 Gap=     0.002 Goal=   None    Shift=    0.000
 RMSDP=2.32D-03 MaxDP=9.81D-02 DE=-1.15D-02 OVMax= 1.07D-01

 Cycle 117  Pass 1  IDiag  1:
 Density matrix breaks symmetry, PCut= 1.00D-07
 Density has only Abelian symmetry.
 E= -340.332409939622     Delta-E=        0.011547174551 Rises=F Damp=F
 DIIS: error= 2.44D-02 at cycle 117 NSaved=  12.
 NSaved=12 IEnMin= 1 EnMin= -340.346335087367     IErMin= 1 ErrMin= 6.10D-03
 ErrMax= 2.44D-02  0.00D+00 EMaxC= 1.00D-01 BMatC= 9.32D-03 BMatP= 4.13D-04
 IDIUse=2 WtCom= 0.00D+00 WtEn= 1.00D+00
 EnCoef did   100 forward-backward iterations
 Rare condition: small coef for last iteration: -0.192D-14
 Coeff-En:   0.510D-01 0.366D+00 0.000D+00 0.126D+00 0.000D+00 0.211D+00
 Coeff-En:   0.255D-01 0.164D+00 0.000D+00 0.000D+00 0.000D+00 0.557D-01
 Coeff:      0.510D-01 0.366D+00 0.000D+00 0.126D+00 0.000D+00 0.211D+00
 Coeff:      0.255D-01 0.164D+00 0.000D+00 0.000D+00 0.000D+00 0.557D-01
 Gap=     0.003 Goal=   None    Shift=    0.000
 RMSDP=2.32D-03 MaxDP=9.81D-02 DE= 1.15D-02 OVMax= 4.45D-02

 Cycle 118  Pass 1  IDiag  1:
 Density matrix breaks symmetry, PCut= 1.00D-07
 Density has only Abelian symmetry.
 E= -340.343957111698     Delta-E=       -0.011547172076 Rises=F Damp=F
 DIIS: error= 8.56D-03 at cycle 118 NSaved=  13.
 NSaved=13 IEnMin= 1 EnMin= -340.346335087367     IErMin= 1 ErrMin= 6.10D-03
 ErrMax= 8.56D-03  0.00D+00 EMaxC= 1.00D-01 BMatC= 2.40D-03 BMatP= 4.13D-04
 IDIUse=3 WtCom= 9.39D-01 WtEn= 6.10D-02
 Large coefficients: NSaved= 13 BigCof=    0.00 CofMax=   10.00 Det=-2.97D-17
 Inversion failed.  Reducing to 12 matrices.
 Large coefficients: NSaved= 12 BigCof=    0.00 CofMax=   10.00 Det=-3.06D-17
 Inversion failed.  Reducing to 11 matrices.
 EnCoef did   100 forward-backward iterations
 Coeff-Com:  0.339D+00 0.732D+00-0.173D+01 0.944D+00-0.234D+00 0.136D+01
 Coeff-Com: -0.482D+01 0.558D+01 0.551D+01-0.583D-01-0.662D+01
 Coeff-En:   0.353D+00 0.644D-02 0.000D+00 0.707D-04 0.101D-01 0.760D-02
 Coeff-En:   0.300D+00 0.816D-03 0.139D+00 0.000D+00 0.183D+00
 Coeff:      0.339D+00 0.688D+00-0.162D+01 0.887D+00-0.219D+00 0.127D+01
 Coeff:     -0.451D+01 0.524D+01 0.518D+01-0.547D-01-0.621D+01
 Gap=     0.002 Goal=   None    Shift=    0.000
 RMSDP=2.32D-03 MaxDP=9.81D-02 DE=-1.15D-02 OVMax= 1.07D-01

 Cycle 119  Pass 1  IDiag  1:
 Density matrix breaks symmetry, PCut= 1.00D-07
 Density has only Abelian symmetry.
 E= -340.332409724044     Delta-E=        0.011547387653 Rises=F Damp=F
 DIIS: error= 2.44D-02 at cycle 119 NSaved=  12.
 NSaved=12 IEnMin= 1 EnMin= -340.346335087367     IErMin= 1 ErrMin= 6.10D-03
 ErrMax= 2.44D-02  0.00D+00 EMaxC= 1.00D-01 BMatC= 9.32D-03 BMatP= 4.13D-04
 IDIUse=2 WtCom= 0.00D+00 WtEn= 1.00D+00
 EnCoef did   100 forward-backward iterations
 Rare condition: small coef for last iteration:  0.369D-15
 Coeff-En:   0.510D-01 0.366D+00 0.000D+00 0.126D+00 0.000D+00 0.211D+00
 Coeff-En:   0.255D-01 0.164D+00 0.000D+00 0.000D+00 0.000D+00 0.557D-01
 Coeff:      0.510D-01 0.366D+00 0.000D+00 0.126D+00 0.000D+00 0.211D+00
 Coeff:      0.255D-01 0.164D+00 0.000D+00 0.000D+00 0.000D+00 0.557D-01
 Gap=     0.003 Goal=   None    Shift=    0.000
 RMSDP=2.32D-03 MaxDP=9.81D-02 DE= 1.15D-02 OVMax= 4.45D-02

 Cycle 120  Pass 1  IDiag  1:
 Density matrix breaks symmetry, PCut= 1.00D-07
 Density has only Abelian symmetry.
 E= -340.343957112515     Delta-E=       -0.011547388471 Rises=F Damp=F
 DIIS: error= 8.56D-03 at cycle 120 NSaved=  13.
 NSaved=13 IEnMin= 1 EnMin= -340.346335087367     IErMin= 1 ErrMin= 6.10D-03
 ErrMax= 8.56D-03  0.00D+00 EMaxC= 1.00D-01 BMatC= 2.40D-03 BMatP= 4.13D-04
 IDIUse=3 WtCom= 9.39D-01 WtEn= 6.10D-02
 Large coefficients: NSaved= 13 BigCof=    0.00 CofMax=   10.00 Det=-5.28D-18
 Inversion failed.  Reducing to 12 matrices.
 Large coefficients: NSaved= 12 BigCof=    0.00 CofMax=   10.00 Det=-5.37D-18
 Inversion failed.  Reducing to 11 matrices.
 EnCoef did   100 forward-backward iterations
 Coeff-Com:  0.339D+00 0.732D+00-0.173D+01 0.944D+00-0.234D+00 0.136D+01
 Coeff-Com: -0.482D+01 0.558D+01 0.551D+01-0.583D-01-0.662D+01
 Coeff-En:   0.353D+00 0.644D-02 0.000D+00 0.706D-04 0.101D-01 0.760D-02
 Coeff-En:   0.300D+00 0.816D-03 0.139D+00 0.000D+00 0.183D+00
 Coeff:      0.339D+00 0.688D+00-0.162D+01 0.887D+00-0.219D+00 0.127D+01
 Coeff:     -0.451D+01 0.524D+01 0.518D+01-0.547D-01-0.621D+01
 Gap=     0.002 Goal=   None    Shift=    0.000
 RMSDP=2.32D-03 MaxDP=9.81D-02 DE=-1.15D-02 OVMax= 1.07D-01

 Cycle 121  Pass 1  IDiag  1:
 Density matrix breaks symmetry, PCut= 1.00D-07
 Density has only Abelian symmetry.
 E= -340.332409795236     Delta-E=        0.011547317279 Rises=F Damp=F
 DIIS: error= 2.44D-02 at cycle 121 NSaved=  12.
 NSaved=12 IEnMin= 1 EnMin= -340.346335087367     IErMin= 1 ErrMin= 6.10D-03
 ErrMax= 2.44D-02  0.00D+00 EMaxC= 1.00D-01 BMatC= 9.32D-03 BMatP= 4.13D-04
 IDIUse=2 WtCom= 0.00D+00 WtEn= 1.00D+00
 EnCoef did   100 forward-backward iterations
 Rare condition: small coef for last iteration:  0.443D-15
 Coeff-En:   0.510D-01 0.366D+00 0.000D+00 0.126D+00 0.000D+00 0.211D+00
 Coeff-En:   0.255D-01 0.164D+00 0.000D+00 0.000D+00 0.000D+00 0.557D-01
 Coeff:      0.510D-01 0.366D+00 0.000D+00 0.126D+00 0.000D+00 0.211D+00
 Coeff:      0.255D-01 0.164D+00 0.000D+00 0.000D+00 0.000D+00 0.557D-01
 Gap=     0.003 Goal=   None    Shift=    0.000
 RMSDP=2.32D-03 MaxDP=9.81D-02 DE= 1.15D-02 OVMax= 4.45D-02

 Cycle 122  Pass 1  IDiag  1:
 Density matrix breaks symmetry, PCut= 1.00D-07
 Density has only Abelian symmetry.
 E= -340.343957112245     Delta-E=       -0.011547317009 Rises=F Damp=F
 DIIS: error= 8.56D-03 at cycle 122 NSaved=  13.
 NSaved=13 IEnMin= 1 EnMin= -340.346335087367     IErMin= 1 ErrMin= 6.10D-03
 ErrMax= 8.56D-03  0.00D+00 EMaxC= 1.00D-01 BMatC= 2.40D-03 BMatP= 4.13D-04
 IDIUse=3 WtCom= 9.39D-01 WtEn= 6.10D-02
 Large coefficients: NSaved= 13 BigCof=    0.00 CofMax=   10.00 Det=-1.33D-21
 Inversion failed.  Reducing to 12 matrices.
 Large coefficients: NSaved= 12 BigCof=    0.00 CofMax=   10.00 Det=-1.20D-20
 Inversion failed.  Reducing to 11 matrices.
 EnCoef did   100 forward-backward iterations
 Coeff-Com:  0.339D+00 0.732D+00-0.173D+01 0.944D+00-0.234D+00 0.136D+01
 Coeff-Com: -0.482D+01 0.558D+01 0.551D+01-0.583D-01-0.662D+01
 Coeff-En:   0.353D+00 0.644D-02 0.000D+00 0.707D-04 0.101D-01 0.760D-02
 Coeff-En:   0.300D+00 0.816D-03 0.139D+00 0.000D+00 0.183D+00
 Coeff:      0.339D+00 0.688D+00-0.162D+01 0.887D+00-0.219D+00 0.127D+01
 Coeff:     -0.451D+01 0.524D+01 0.518D+01-0.547D-01-0.621D+01
 Gap=     0.002 Goal=   None    Shift=    0.000
 RMSDP=2.32D-03 MaxDP=9.81D-02 DE=-1.15D-02 OVMax= 1.07D-01

 Cycle 123  Pass 1  IDiag  1:
 Density matrix breaks symmetry, PCut= 1.00D-07
 Density has only Abelian symmetry.
 E= -340.332409771727     Delta-E=        0.011547340518 Rises=F Damp=F
 DIIS: error= 2.44D-02 at cycle 123 NSaved=  12.
 NSaved=12 IEnMin= 1 EnMin= -340.346335087367     IErMin= 1 ErrMin= 6.10D-03
 ErrMax= 2.44D-02  0.00D+00 EMaxC= 1.00D-01 BMatC= 9.32D-03 BMatP= 4.13D-04
 IDIUse=2 WtCom= 0.00D+00 WtEn= 1.00D+00
 EnCoef did   100 forward-backward iterations
 Rare condition: small coef for last iteration: -0.443D-15
 Coeff-En:   0.510D-01 0.366D+00 0.000D+00 0.126D+00 0.000D+00 0.211D+00
 Coeff-En:   0.255D-01 0.164D+00 0.000D+00 0.000D+00 0.000D+00 0.557D-01
 Coeff:      0.510D-01 0.366D+00 0.000D+00 0.126D+00 0.000D+00 0.211D+00
 Coeff:      0.255D-01 0.164D+00 0.000D+00 0.000D+00 0.000D+00 0.557D-01
 Gap=     0.003 Goal=   None    Shift=    0.000
 RMSDP=2.32D-03 MaxDP=9.81D-02 DE= 1.15D-02 OVMax= 4.45D-02

 Cycle 124  Pass 1  IDiag  1:
 Density matrix breaks symmetry, PCut= 1.00D-07
 Density has only Abelian symmetry.
 E= -340.343957112334     Delta-E=       -0.011547340607 Rises=F Damp=F
 DIIS: error= 8.56D-03 at cycle 124 NSaved=  13.
 NSaved=13 IEnMin= 1 EnMin= -340.346335087367     IErMin= 1 ErrMin= 6.10D-03
 ErrMax= 8.56D-03  0.00D+00 EMaxC= 1.00D-01 BMatC= 2.40D-03 BMatP= 4.13D-04
 IDIUse=3 WtCom= 9.39D-01 WtEn= 6.10D-02
 Large coefficients: NSaved= 13 BigCof=    0.00 CofMax=   10.00 Det=-2.28D-19
 Inversion failed.  Reducing to 12 matrices.
 Large coefficients: NSaved= 12 BigCof=    0.00 CofMax=   10.00 Det=-3.10D-19
 Inversion failed.  Reducing to 11 matrices.
 EnCoef did   100 forward-backward iterations
 Coeff-Com:  0.339D+00 0.732D+00-0.173D+01 0.944D+00-0.234D+00 0.136D+01
 Coeff-Com: -0.482D+01 0.558D+01 0.551D+01-0.583D-01-0.662D+01
 Coeff-En:   0.353D+00 0.644D-02 0.000D+00 0.706D-04 0.101D-01 0.760D-02
 Coeff-En:   0.300D+00 0.816D-03 0.139D+00 0.000D+00 0.183D+00
 Coeff:      0.339D+00 0.688D+00-0.162D+01 0.887D+00-0.219D+00 0.127D+01
 Coeff:     -0.451D+01 0.524D+01 0.518D+01-0.547D-01-0.621D+01
 Gap=     0.002 Goal=   None    Shift=    0.000
 RMSDP=2.32D-03 MaxDP=9.81D-02 DE=-1.15D-02 OVMax= 1.07D-01

 Cycle 125  Pass 1  IDiag  1:
 Density matrix breaks symmetry, PCut= 1.00D-07
 Density has only Abelian symmetry.
 E= -340.332409779490     Delta-E=        0.011547332844 Rises=F Damp=F
 DIIS: error= 2.44D-02 at cycle 125 NSaved=  12.
 NSaved=12 IEnMin= 1 EnMin= -340.346335087367     IErMin= 1 ErrMin= 6.10D-03
 ErrMax= 2.44D-02  0.00D+00 EMaxC= 1.00D-01 BMatC= 9.32D-03 BMatP= 4.13D-04
 IDIUse=2 WtCom= 0.00D+00 WtEn= 1.00D+00
 EnCoef did   100 forward-backward iterations
 Rare condition: small coef for last iteration: -0.443D-15
 Coeff-En:   0.510D-01 0.366D+00 0.000D+00 0.126D+00 0.000D+00 0.211D+00
 Coeff-En:   0.255D-01 0.164D+00 0.000D+00 0.000D+00 0.000D+00 0.557D-01
 Coeff:      0.510D-01 0.366D+00 0.000D+00 0.126D+00 0.000D+00 0.211D+00
 Coeff:      0.255D-01 0.164D+00 0.000D+00 0.000D+00 0.000D+00 0.557D-01
 Gap=     0.003 Goal=   None    Shift=    0.000
 RMSDP=2.32D-03 MaxDP=9.81D-02 DE= 1.15D-02 OVMax= 4.45D-02

 Cycle 126  Pass 1  IDiag  1:
 Density matrix breaks symmetry, PCut= 1.00D-07
 Density has only Abelian symmetry.
 E= -340.343957112305     Delta-E=       -0.011547332815 Rises=F Damp=F
 DIIS: error= 8.56D-03 at cycle 126 NSaved=  13.
 NSaved=13 IEnMin= 1 EnMin= -340.346335087367     IErMin= 1 ErrMin= 6.10D-03
 ErrMax= 8.56D-03  0.00D+00 EMaxC= 1.00D-01 BMatC= 2.40D-03 BMatP= 4.13D-04
 IDIUse=3 WtCom= 9.39D-01 WtEn= 6.10D-02
 Large coefficients: NSaved= 13 BigCof=    0.00 CofMax=   10.00 Det=-1.73D-18
 Inversion failed.  Reducing to 12 matrices.
 Large coefficients: NSaved= 12 BigCof=    0.00 CofMax=   10.00 Det=-1.78D-18
 Inversion failed.  Reducing to 11 matrices.
 EnCoef did   100 forward-backward iterations
 Coeff-Com:  0.339D+00 0.732D+00-0.173D+01 0.944D+00-0.234D+00 0.136D+01
 Coeff-Com: -0.482D+01 0.558D+01 0.551D+01-0.583D-01-0.662D+01
 Coeff-En:   0.353D+00 0.644D-02 0.000D+00 0.707D-04 0.101D-01 0.760D-02
 Coeff-En:   0.300D+00 0.816D-03 0.139D+00 0.000D+00 0.183D+00
 Coeff:      0.339D+00 0.688D+00-0.162D+01 0.887D+00-0.219D+00 0.127D+01
 Coeff:     -0.451D+01 0.524D+01 0.518D+01-0.547D-01-0.621D+01
 Gap=     0.002 Goal=   None    Shift=    0.000
 RMSDP=2.32D-03 MaxDP=9.81D-02 DE=-1.15D-02 OVMax= 1.07D-01

 Cycle 127  Pass 1  IDiag  1:
 Density matrix breaks symmetry, PCut= 1.00D-07
 Density has only Abelian symmetry.
 E= -340.332409776926     Delta-E=        0.011547335378 Rises=F Damp=F
 DIIS: error= 2.44D-02 at cycle 127 NSaved=  12.
 NSaved=12 IEnMin= 1 EnMin= -340.346335087367     IErMin= 1 ErrMin= 6.10D-03
 ErrMax= 2.44D-02  0.00D+00 EMaxC= 1.00D-01 BMatC= 9.32D-03 BMatP= 4.13D-04
 IDIUse=2 WtCom= 0.00D+00 WtEn= 1.00D+00
 EnCoef did   100 forward-backward iterations
 Rare condition: small coef for last iteration: -0.295D-15
 Coeff-En:   0.510D-01 0.366D+00 0.000D+00 0.126D+00 0.000D+00 0.211D+00
 Coeff-En:   0.255D-01 0.164D+00 0.000D+00 0.000D+00 0.000D+00 0.557D-01
 Coeff:      0.510D-01 0.366D+00 0.000D+00 0.126D+00 0.000D+00 0.211D+00
 Coeff:      0.255D-01 0.164D+00 0.000D+00 0.000D+00 0.000D+00 0.557D-01
 Gap=     0.003 Goal=   None    Shift=    0.000
 RMSDP=2.32D-03 MaxDP=9.81D-02 DE= 1.15D-02 OVMax= 4.45D-02

 Cycle 128  Pass 1  IDiag  1:
 Density matrix breaks symmetry, PCut= 1.00D-07
 Density has only Abelian symmetry.
 E= -340.343957112314     Delta-E=       -0.011547335388 Rises=F Damp=F
 DIIS: error= 8.56D-03 at cycle 128 NSaved=  13.
 NSaved=13 IEnMin= 1 EnMin= -340.346335087367     IErMin= 1 ErrMin= 6.10D-03
 ErrMax= 8.56D-03  0.00D+00 EMaxC= 1.00D-01 BMatC= 2.40D-03 BMatP= 4.13D-04
 IDIUse=3 WtCom= 9.39D-01 WtEn= 6.10D-02
 Large coefficients: NSaved= 13 BigCof=    0.00 CofMax=   10.00 Det=-1.71D-18
 Inversion failed.  Reducing to 12 matrices.
 Large coefficients: NSaved= 12 BigCof=    0.00 CofMax=   10.00 Det= 9.10D-19
 Inversion failed.  Reducing to 11 matrices.
 EnCoef did   100 forward-backward iterations
 Coeff-Com:  0.339D+00 0.732D+00-0.173D+01 0.944D+00-0.234D+00 0.136D+01
 Coeff-Com: -0.482D+01 0.558D+01 0.551D+01-0.583D-01-0.662D+01
 Coeff-En:   0.353D+00 0.644D-02 0.000D+00 0.707D-04 0.101D-01 0.760D-02
 Coeff-En:   0.300D+00 0.816D-03 0.139D+00 0.000D+00 0.183D+00
 Coeff:      0.339D+00 0.688D+00-0.162D+01 0.887D+00-0.219D+00 0.127D+01
 Coeff:     -0.451D+01 0.524D+01 0.518D+01-0.547D-01-0.621D+01
 Gap=     0.002 Goal=   None    Shift=    0.000
 RMSDP=2.32D-03 MaxDP=9.81D-02 DE=-1.15D-02 OVMax= 1.07D-01

 >>>>>>>>>> Convergence criterion not met.
 SCF Done:  E(ROHF) =  -340.343957112     A.U. after  129 cycles
            NFock=128  Conv=0.23D-02     -V/T= 2.0012
 <Sx>= 0.0000 <Sy>= 0.0000 <Sz>= 1.0000 <S**2>= 2.0000 S= 1.0000
 <L.S>= 0.000000000000E+00
 KE= 3.399320921436D+02 PE=-8.053305365271D+02 EE= 1.250544872712D+02
 Annihilation of the first spin contaminant:
 S**2 before annihilation     2.0000,   after     2.0000
 Leave Link  502 at Mon Oct  5 21:36:39 2020, MaxMem=   268435456 cpu:              35.3 elap:               4.9
 (Enter /applis/site/cecic/gaussian16/B.01/nehalem/g16/l801.exe)
 Windowed orbitals will be sorted by symmetry type.
 SCFChk:  SCF convergence  2.32D-03 required  1.00D-08


 SCF Error SCF Error SCF Error SCF Error SCF Error SCF Error SCF Error SCF Error

                                    ERROR!!!!

    SCF has not converged.  Gradients and post-SCF results would be GARBAGE!!

 SCF Error SCF Error SCF Error SCF Error SCF Error SCF Error SCF Error SCF Error


 Error termination via Lnk1e in /applis/site/cecic/gaussian16/B.01/nehalem/g16/l801.exe at Mon Oct  5 21:36:39 2020.
 Job cpu time:       0 days  0 hours  2 minutes  3.7 seconds.
 Elapsed time:       0 days  0 hours  0 minutes 22.1 seconds.
 File lengths (MBytes):  RWF=     10 Int=      0 D2E=      0 Chk=      1 Scr=      1
