4
 energy: -4.988903036816 gnorm: 0.141208716810 xtb: 6.2.2 (9d81278992624c895f80dd42a50cac0aa55982e2)
C        -0.12165800000000    0.00713900000000    0.30169000000000
C         1.34106300000000   -0.08541200000000   -0.07788500000000
H        -0.55202000000000    0.94311100000000   -0.11003300000000
H        -0.66738500000000   -0.86483800000000   -0.11377200000000
4
 energy: -5.014138300030 gnorm: 0.113707004829 xtb: 6.2.2 (9d81278992624c895f80dd42a50cac0aa55982e2)
C        -0.07855362012982    0.00465230704414    0.17416562258984
C         1.30570563633149   -0.08323947507981   -0.03745858830538
H        -0.55382252892158    0.97572358705787   -0.06641688853033
H        -0.67332948728009   -0.89713641902220   -0.07029014575413
4
 energy: -4.955073392850 gnorm: 0.666355426945 xtb: 6.2.2 (9d81278992624c895f80dd42a50cac0aa55982e2)
C         0.02690949043089   -0.00185236272431    0.06543363650453
C         1.11281646975256   -0.07102675390370    0.00874029690927
H        -0.51169113566615    0.94808213609984   -0.03520159310343
H        -0.62803482451730   -0.87520301947183   -0.03897234031037
4
 energy: -5.026844811461 gnorm: 0.052017530227 xtb: 6.2.2 (9d81278992624c895f80dd42a50cac0aa55982e2)
C        -0.05505694127984    0.00332727637944    0.08989631973250
C         1.25640159010506   -0.08014549074710   -0.01225411360806
H        -0.54112618806403    0.97158925793779   -0.03689119578604
H        -0.66021846076119   -0.89477104357013   -0.04075101033841
4
 energy: -5.028611975374 gnorm: 0.027674656483 xtb: 6.2.2 (9d81278992624c895f80dd42a50cac0aa55982e2)
C        -0.02979622108908    0.00180514193661    0.04649914146186
C         1.26582174415728   -0.08078048575764    0.00412296956997
H        -0.55854277013523    0.97147494410827   -0.02338361765273
H        -0.67748275293297   -0.89249960028724   -0.02723849337911
4
 energy: -5.029259311188 gnorm: 0.008372251139 xtb: 6.2.2 (9d81278992624c895f80dd42a50cac0aa55982e2)
C        -0.02126211518135    0.00130855980250    0.02329121803618
C         1.25829652304830   -0.08031576259572    0.01160728943304
H        -0.55956541460819    0.96336960886761   -0.01553861615301
H        -0.67746899325876   -0.88436240607439   -0.01935989131621
4
 energy: -5.029371307177 gnorm: 0.007467625835 xtb: 6.2.2 (9d81278992624c895f80dd42a50cac0aa55982e2)
C        -0.02419336438830    0.00151509028896    0.01386867715637
C         1.25279522692210   -0.07996812053344    0.01324722833838
H        -0.55535302659429    0.96303170140583   -0.01164744119665
H        -0.67324883593952   -0.88457867116134   -0.01546846429810
4
 energy: -5.029418642991 gnorm: 0.004127890886 xtb: 6.2.2 (9d81278992624c895f80dd42a50cac0aa55982e2)
C        -0.02703320560579    0.00171545413540    0.00460765411701
C         1.25104238548489   -0.07985975149827    0.01493150411140
H        -0.55303694659472    0.96318660602178   -0.00785842803841
H        -0.67097223328439   -0.88504230865892   -0.01168073019000
4
 energy: -5.029428316952 gnorm: 0.000913660805 xtb: 6.2.2 (9d81278992624c895f80dd42a50cac0aa55982e2)
C        -0.02783414125277    0.00177616080134   -0.00003221652383
C         1.25182250557744   -0.07991161324187    0.01593610463155
H        -0.55304585308434    0.96287956567272   -0.00604141835321
H        -0.67094251124034   -0.88474411323220   -0.00986246975451
4
 energy: -5.029428724705 gnorm: 0.000337711374 xtb: 6.2.2 (9d81278992624c895f80dd42a50cac0aa55982e2)
C        -0.02768442546197    0.00176787783832   -0.00064726754290
C         1.25262057621184   -0.07996294728485    0.01613563759080
H        -0.55354168904339    0.96256544609207   -0.00583437092441
H        -0.67139446170648   -0.88437037664554   -0.00965399912350
