[Molden Format]
[Title]
[Atoms] AU
C      1     6 -0.52315963963081E-01  0.33410764172256E-02 -0.12229814855308E-02
C      2     6  0.23671089226825E+01 -0.15112039740317E+00  0.30483934025597E-01
H      3     1 -0.10460326080967E+01  0.18189903591703E+01 -0.11024885485420E-01
H      4     1 -0.12687603506227E+01 -0.16712110381843E+01 -0.18236067054646E-01
[GTO]
           1 0
 s           4   1.0000000000000000     
   51.049363095579913      -0.16312063210127389     
   8.7911227406887544      -0.19911024581000730     
  0.70640422258929825       0.31882047753655751     
  0.26922813413411617       0.12706504184240380     
 p           4   1.0000000000000000     
   5.8263656140800002       0.73716451545209605     
   1.5106896018720002       0.68216371614850257     
  0.53256483288000001       0.35783053929253711     
  0.21202323690600003        5.3983030275847881E-002

           2 0
 s           4   1.0000000000000000     
   51.049363095579913      -0.16312063210127389     
   8.7911227406887544      -0.19911024581000730     
  0.70640422258929825       0.31882047753655751     
  0.26922813413411617       0.12706504184240380     
 p           4   1.0000000000000000     
   5.8263656140800002       0.73716451545209605     
   1.5106896018720002       0.68216371614850257     
  0.53256483288000001       0.35783053929253711     
  0.21202323690600003        5.3983030275847881E-002

           3 0
 s           3   1.0000000000000000     
   3.3702276975336001       0.27359110588908298     
  0.61389118221497996       0.26460540653860526     
  0.16614291148415999        8.2465947534082318E-002

           4 0
 s           3   1.0000000000000000     
   3.3702276975336001       0.27359110588908298     
  0.61389118221497996       0.26460540653860526     
  0.16614291148415999        8.2465947534082318E-002

[MO]
Sym=     1a
Ene=  -0.62115112933953120     
Spin= Alpha
Occup=     2.00000000
           1  0.52610812759591175     
           2  0.14848574739649731     
           3  -9.4797369549199789E-003
           4   1.9827395306884245E-003
           5  0.43165187911725356     
           6 -0.19728155967876165     
           7   1.2594856183758475E-002
           8  -2.5675615331720377E-003
           9  0.14598622535210481     
          10  0.14598622401907663     
Sym=     2a
Ene=  -0.53836412534834033     
Spin= Alpha
Occup=     2.00000000
           1  0.24622317449363126     
           2 -0.45114487676029635     
           3   2.8801766781945310E-002
           4  -5.7518614131035917E-003
           5 -0.47606480820011232     
           6  -1.7635164782798807E-002
           7   1.1257512057282573E-003
           8  -1.7285472859339494E-004
           9  0.29433137088722422     
          10  0.29433136624760603     
Sym=     3a
Ene=  -0.50241994140016377     
Spin= Alpha
Occup=     2.00000000
           1   2.6265952007139356E-009
           2  -3.5090538775852241E-002
           3 -0.54987780254849217     
           4  -1.1361143483096833E-003
           5  -2.9279663809153736E-009
           6  -1.7092077982126176E-002
           7 -0.26783730337071626     
           8  -5.5338434874510471E-004
           9 -0.36728924750492203     
          10  0.36728925186561634     
Sym=     4a
Ene=  -0.42789778170046977     
Spin= Alpha
Occup=     1.99999996
           1   3.3091200479599503E-004
           2   8.7921510960860955E-003
           3   8.2734668942586684E-004
           4 -0.67199293327647314     
           5  -3.8785340051868730E-004
           6   7.5207399567400017E-003
           7   7.5729230375908767E-004
           8 -0.59881728026513359     
           9  -1.1042438154388549E-004
          10  -1.1042403754739623E-004
Sym=     5a
Ene=  -0.39545288131980477     
Spin= Alpha
Occup=     1.00000004
           1 -0.12014700897290831     
           2 -0.27049091026878513     
           3   1.7269401947418564E-002
           4  -3.8634497687415111E-003
           5  0.58920792241688735     
           6  0.69758979394441067     
           7  -4.4534801646246951E-002
           8   8.7123853437930179E-003
           9  0.16691627347829871     
          10  0.16691627236293827     
Sym=     6a
Ene=  -0.30598637456355254     
Spin= Alpha
Occup=     1.00000000
           1   2.7480385340028727E-010
           2   5.7193945132079883E-003
           3   8.9624406258961287E-002
           4   1.8517478784495000E-004
           5  -3.3448628271315101E-009
           6  -6.0057926122926417E-002
           7 -0.94112329250574200     
           8  -1.9444753745408517E-003
           9  0.31387300984942745     
          10 -0.31387301049939997     
Sym=     7a
Ene=  -0.20375683367845235     
Spin= Alpha
Occup=     0.00000000
           1   4.1362244646365385E-004
           2   9.9420013392875293E-003
           3   9.7534842118563152E-004
           4 -0.77914025893169125     
           5   6.8931755843172496E-005
           6  -1.0896715869086025E-002
           7  -1.0333314589723705E-003
           8  0.83669175008719388     
           9  -2.1315867572694062E-004
          10  -2.1315849913582460E-004
Sym=     8a
Ene=   0.13758291700484088     
Spin= Alpha
Occup=     0.00000000
           1   1.0431253168606380     
           2 -0.53096505763263635     
           3   3.3896430061075199E-002
           4  -6.2071456485310586E-003
           5   2.2211615468511014E-003
           6  0.20638230083437720     
           7  -1.3175380225344299E-002
           8   2.4522291713062281E-003
           9 -0.75785859819454338     
          10 -0.75785861449583491     
Sym=     9a
Ene=   0.26852732340413021     
Spin= Alpha
Occup=     0.00000000
           1   9.5305490908351180E-009
           2   7.1930511311968023E-002
           3   1.1271699239273900     
           4   2.3288703827434760E-003
           5   2.6516401551473289E-009
           6  -2.0312700879922964E-002
           7 -0.31830527300716865     
           8  -6.5765752661618520E-004
           9 -0.81271412730702841     
          10  0.81271410878774186     
Sym=    10a
Ene=   0.67178956715881333     
Spin= Alpha
Occup=     0.00000000
           1  0.66825799119587415     
           2   1.0962713075985859     
           3  -6.9988158266941825E-002
           4   1.4250542499652338E-002
           5 -0.86290498591795683     
           6  0.98557321825789668     
           7  -6.2921242499589344E-002
           8   1.2941227433030044E-002
           9  0.17153795870122920     
          10  0.17153796613287109     
