      -----------------------------------------------------------      
     |                   =====================                   |     
     |                           x T B                           |     
     |                   =====================                   |     
     |                         S. Grimme                         |     
     |          Mulliken Center for Theoretical Chemistry        |     
     |                    University of Bonn                     |     
      -----------------------------------------------------------      

   * xtb version 6.2.2 (9d81278992624c895f80dd42a50cac0aa55982e2) compiled by '@Darwin' on 04/03/2020

   xtb is free software: you can redistribute it and/or modify it under
   the terms of the GNU Lesser General Public License as published by
   the Free Software Foundation, either version 3 of the License, or
   (at your option) any later version.
   
   xtb is distributed in the hope that it will be useful,
   but WITHOUT ANY WARRANTY; without even the implied warranty of
   MERCHANTABILITY or FITNESS FOR A PARTICULAR PURPOSE.  See the
   GNU Lesser General Public License for more details.
   
   Cite this work as:
   * S. Grimme, C. Bannwarth, P. Shushkov, J. Chem. Theory Comput., 2017,
     13, 1989-2009. DOI: 10.1021/acs.jctc.7b00118
   * C. Bannwarth, S. Ehlert and S. Grimme., J. Chem. Theory Comput., 2019,
     15, 1652-1671. DOI: 10.1021/acs.jctc.8b01176
   * P. Pracht, E. Caldeweyher, S. Ehlert, S. Grimme, ChemRxiv, 2019, preprint.
     DOI: 10.26434/chemrxiv.8326202.v1
   
   for DFT-D4:
   * E. Caldeweyher, C. Bannwarth and S. Grimme, J. Chem. Phys., 2017,
     147, 034112. DOI: 10.1063/1.4993215
   * E. Caldeweyher, S. Ehlert, A. Hansen, H. Neugebauer, S. Spicher,
     C. Bannwarth and S. Grimme, J. Chem. Phys., 2019, 150, 154122.
     DOI: 10.1063/1.5090222
   
   for sTDA-xTB:
   * S. Grimme and C. Bannwarth, J. Chem. Phys., 2016, 145, 054103.
     DOI: 10.1063/1.4959605
   
   in the mass-spec context:
   * V. Asgeirsson, C. Bauer and S. Grimme, Chem. Sci., 2017, 8, 4879.
     DOI: 10.1039/c7sc00601b
   
   for metadynamics refer to:
   * S. Grimme, J. Chem. Theory Comput., 2019, 155, 2847-2862
     DOI: 10.1021/acs.jctc.9b00143
   
   with help from (in alphabetical order)
   C. Bannwarth, F. Bohle, G. Brandenburg, E. Caldeweyher, M. Checinski,
   S. Dohm, S. Ehlert, S. Ehrlich, F. März, H. Neugebauer, J. Pisarek,
   P. Pracht, P. Shushkov, and S. Spicher.
   
 * started run on 2020/05/12 at 11:44:30.613     

           -------------------------------------------------
          |                Calculation Setup                |
           -------------------------------------------------

          program call               : xtb --input C5_0_S_2.input C5_0_S_2.xyz --ohess --molden --namespace C5_0_S_2 output.out
          calculation namespace      : C5_0_S_2
          coordinate file            : C5_0_S_2.xyz
          number of atoms            :                     5
          number of electrons        :                    20
          charge                     :                     0
          spin                       :                   1.0
          first test random number   :      0.26643460468761

   ID    Z sym.   atoms
    1    6 C      1-5

           -------------------------------------------------
          |                 G F N 2 - x T B                 |
           -------------------------------------------------

        Reference                      10.1021/acs.jctc.8b01176
      * Hamiltonian:
        H0-scaling (s, p, d)           1.850000    2.230000    2.230000
        zeta-weighting                 0.500000
      * Dispersion:
        s8                             2.700000
        a1                             0.520000
        a2                             5.000000
        s9                             5.000000
      * Repulsion:
        kExp                           1.500000    1.000000
        rExp                           1.000000
      * Coulomb:
        alpha                          2.000000
        third order                    shell-resolved
        anisotropic                    true
        a3                             3.000000
        a5                             4.000000
        cn-shift                       1.200000
        cn-exp                         4.000000
        max-rad                        5.000000


          ...................................................
          :                      SETUP                      :
          :.................................................:
          :  # basis functions                  20          :
          :  # atomic orbitals                  20          :
          :  # shells                           10          :
          :  # electrons                        20          :
          :  max. iterations                   250          :
          :  Hamiltonian                  GFN2-xTB          :
          :  restarted?                      false          :
          :  GBSA solvation                  false          :
          :  PC potential                    false          :
          :  electronic temp.          300.0000000     K    :
          :  accuracy                    1.0000000          :
          :  -> integral cutoff          0.2500000E+02      :
          :  -> integral neglect         0.1000000E-07      :
          :  -> SCF convergence          0.1000000E-05 Eh   :
          :  -> wf. convergence          0.1000000E-03 e    :
          :  Broyden damping             0.4000000          :
          ...................................................

 iter      E             dE          RMSdq      gap      omega  full diag
   1     -9.9120749 -0.991207E+01  0.117E+01    0.00       0.0  T
   2     -9.9445988 -0.325240E-01  0.676E+00    0.00       1.0  T
   3     -9.9437697  0.829103E-03  0.179E+00    0.00       1.0  T
   4     -9.9479630 -0.419326E-02  0.574E-01    0.00       1.0  T
   5     -9.9413838  0.657917E-02  0.109E+00    0.00       1.0  T
   6     -9.9445994 -0.321554E-02  0.813E-01    0.00       1.0  T
   7     -9.9488534 -0.425401E-02  0.181E-02    0.00       2.5  T
   8     -9.9488504  0.299290E-05  0.212E-02    0.00       2.1  T
   9     -9.9488508 -0.420674E-06  0.202E-02    0.00       2.2  T
  10     -9.9488539 -0.307120E-05  0.593E-03    0.00       7.5  T
  11     -9.9488541 -0.209154E-06  0.142E-03    0.00      31.4  T
  12     -9.9488541 -0.589680E-08  0.117E-03    0.00      38.1  T
  13     -9.9488541 -0.123671E-07  0.150E-04    0.00     298.6  T
  14     -9.9488541 -0.177927E-09  0.362E-05    0.00    1235.3  T

   *** convergence criteria satisfied after 14 iterations ***

         #    Occupation            Energy/Eh            Energy/eV
      -------------------------------------------------------------
         1        2.0000           -0.7526391             -20.4804
       ...           ...                  ...                  ...
         5        2.0000           -0.5633610             -15.3298
         6        2.0000           -0.5329057             -14.5011
         7        2.0000           -0.5329056             -14.5011
         8        2.0000           -0.5329056             -14.5011
         9        1.5000           -0.4580476             -12.4641
        10        1.5000           -0.4580475             -12.4641
        11        0.3333           -0.4180857             -11.3767 (HOMO)
        12        0.3333           -0.4180856             -11.3767 (LUMO)
        13        0.3333           -0.4180856             -11.3767
        14        0.0000           -0.4085394             -11.1169
        15        0.0000           -0.4085394             -11.1169
        16        0.0000           -0.4085393             -11.1169
       ...           ...                  ...                  ...
        20                          0.0725201               1.9734
      -------------------------------------------------------------
                  HL-Gap            0.0000000 Eh            0.0000 eV
             Fermi-level           -0.4383959 Eh          -11.9294 eV

 transition dipole moment (au) for excitation:          10          11
     X       Y       Z   
  -0.4857   0.1494   0.0314  total (au/Debye):    0.509   1.294
 dE (eV)             :    1.087
 oscillator strength :  0.97644E-02

 SCC (total)                   0 d,  0 h,  0 min,  0.006 sec
 SCC setup                      ...        0 min,  0.000 sec (  1.781%)
 Dispersion                     ...        0 min,  0.000 sec (  0.348%)
 integral evaluation            ...        0 min,  0.002 sec ( 28.114%)
 zeroth order Hamiltonian       ...        0 min,  0.000 sec (  0.348%)
 iterations                     ...        0 min,  0.002 sec ( 30.035%)
 molecular gradient             ...        0 min,  0.001 sec ( 22.768%)
 printout                       ...        0 min,  0.001 sec ( 16.413%)

         :::::::::::::::::::::::::::::::::::::::::::::::::::::
         ::                     SUMMARY                     ::
         :::::::::::::::::::::::::::::::::::::::::::::::::::::
         :: total energy              -9.889040147053 Eh    ::
         :: gradient norm              0.122680753459 Eh/a0 ::
         :: HOMO-LUMO gap              0.000000556042 eV    ::
         ::.................................................::
         :: SCC energy                -9.948854114928 Eh    ::
         :: -> isotropic ES           -0.057629814268 Eh    ::
         :: -> anisotropic ES         -0.000172803386 Eh    ::
         :: -> anisotropic XC          0.005538217375 Eh    ::
         :: -> dispersion             -0.003263644469 Eh    ::
         :: repulsion energy           0.059813703063 Eh    ::
         :: add. restraining           0.000000000000 Eh    ::
         :::::::::::::::::::::::::::::::::::::::::::::::::::::

      ----------------------------------------------------------- 
     |                   =====================                   |
     |                        A N C O P T                        |
     |                   =====================                   |
     |               Approximate Normal Coordinate               |
     |                Rational Function Optimizer                |
      ----------------------------------------------------------- 

          ...................................................
          :                      SETUP                      :
          :.................................................:
          :   optimization level            normal          :
          :   max. optcycles                   200          :
          :   ANC micro-cycles                  20          :
          :   degrees of freedom                 9          :
          :.................................................:
          :   RF solver                   davidson          :
          :   write xtbopt.log                true          :
          :   linear?                        false          :
          :   energy convergence         0.5000000E-05 Eh   :
          :   grad. convergence          0.1000000E-02 Eh/α :
          :   maximium RF displ.         1.0000000          :
          :   Hlow (freq-cutoff)         0.1000000E-01      :
          :   Hmax (freq-cutoff)         5.0000000          :
          :   S6 in model hess.         20.0000000          :
          ...................................................

generating ANC from model Hessian ...
Using Lindh-Hessian (1995)
 Shifting diagonal of input Hessian by    0.0000000000000000     
 Lowest  eigenvalues of input Hessian
   -0.000000   -0.000000   -0.000000    0.000000    0.000000    0.000000
    0.060153    0.060153    0.082901    0.082901    0.082901    0.444186
    1.007288    1.007289    1.007290
 Highest eigenvalues
    0.082901    0.082901    0.444186    1.007288    1.007289    1.007290


........................................................................
.............................. CYCLE    1 ..............................
........................................................................
   1     -9.9488541 -0.994885E+01  0.326E-06    0.00       0.0  T
   2     -9.9488541  0.826539E-11  0.288E-05    0.00    1553.0  T
   3     -9.9488541 -0.833289E-11  0.178E-06    0.00   25115.7  T
     SCC iter.                  ...        0 min,  0.001 sec
     gradient                   ...        0 min,  0.001 sec
 * total energy  :    -9.8890401 Eh     change        0.2869900E-09 Eh
   gradient norm :     0.1226808 Eh/α   predicted     0.0000000E+00 (-100.00%)
   displ. norm   :     0.2578320 α      lambda       -0.3163105E-01
   maximum displ.:     0.2578320 α      in ANC's #6, #2, #5, ...

........................................................................
.............................. CYCLE    2 ..............................
........................................................................
   1    -10.0038808 -0.100039E+02  0.847E-01    0.00       0.0  T
   2    -10.0051363 -0.125554E-02  0.597E-01    0.00       1.0  T
   3    -10.0053728 -0.236497E-03  0.324E-01    0.00       1.0  T
   4    -10.0053906 -0.177571E-04  0.132E-02    0.00       3.4  T
   5    -10.0053562  0.344083E-04  0.593E-02    0.00       1.0  T
   6    -10.0053910 -0.348103E-04  0.342E-03    0.00      13.1  T
   7    -10.0053910 -0.211156E-07  0.201E-03    0.00      22.3  T
   8    -10.0053911 -0.309064E-07  0.952E-04    0.00      47.0  T
   9    -10.0053911 -0.672684E-08  0.656E-05    0.00     681.3  T
     SCC iter.                  ...        0 min,  0.001 sec
     gradient                   ...        0 min,  0.001 sec
 * total energy  :    -9.9115584 Eh     change       -0.2251826E-01 Eh
   gradient norm :     0.0467818 Eh/α   predicted    -0.1686690E-01 ( -25.10%)
   displ. norm   :     0.1550971 α      lambda       -0.7255729E-02
   maximum displ.:     0.1550971 α      in ANC's #6, #2, #5, ...

........................................................................
.............................. CYCLE    3 ..............................
........................................................................
   1    -10.0361753 -0.100362E+02  0.526E-01    0.00       0.0  T
   2    -10.0366793 -0.503952E-03  0.358E-01    0.00       1.0  T
   3    -10.0367386 -0.592958E-04  0.194E-01    0.00       1.0  T
   4    -10.0366918  0.467736E-04  0.728E-02    0.00       1.0  T
   5    -10.0367440 -0.521773E-04  0.792E-03    0.00       5.6  T
   6    -10.0367441 -0.148133E-06  0.252E-03    0.00      17.8  T
   7    -10.0367429  0.124227E-05  0.114E-02    0.00       3.9  T
   8    -10.0367442 -0.128280E-05  0.297E-04    0.00     150.7  T
   9    -10.0367442  0.266436E-10  0.821E-05    0.00     544.9  T
  10    -10.0367442  0.128189E-09  0.129E-04    0.00     345.7  T
     SCC iter.                  ...        0 min,  0.001 sec
     gradient                   ...        0 min,  0.001 sec
 * total energy  :    -9.9141256 Eh     change       -0.2567212E-02 Eh
   gradient norm :     0.0162297 Eh/α   predicted    -0.3715132E-02 (  44.71%)
   displ. norm   :     0.0398864 α      lambda       -0.6473199E-03
   maximum displ.:     0.0398839 α      in ANC's #6, #2, #5, ...

........................................................................
.............................. CYCLE    4 ..............................
........................................................................
   1    -10.0288678 -0.100289E+02  0.139E-01    0.00       0.0  T
   2    -10.0289035 -0.357457E-04  0.938E-02    0.00       1.0  T
   3    -10.0288998  0.366736E-05  0.586E-02    0.00       1.0  T
   4    -10.0279885  0.911386E-03  0.305E-01    0.00       1.0  T
   5    -10.0289084 -0.919960E-03  0.556E-03    0.00       8.0  T
   6    -10.0289038  0.461844E-05  0.220E-02    0.00       2.0  T
   7    -10.0289086 -0.479041E-05  0.278E-03    0.00      16.1  T
   8    -10.0289086 -0.603275E-07  0.392E-04    0.00     113.9  T
   9    -10.0289086  0.206234E-07  0.147E-03    0.00      30.4  T
  10    -10.0289086 -0.208689E-07  0.176E-04    0.00     254.4  T
     SCC iter.                  ...        0 min,  0.001 sec
     gradient                   ...        0 min,  0.001 sec
 * total energy  :    -9.9144164 Eh     change       -0.2908044E-03 Eh
   gradient norm :     0.0015253 Eh/α   predicted    -0.3241748E-03 (  11.48%)
   displ. norm   :     0.0081283 α      lambda       -0.6226321E-05
   maximum displ.:     0.0048890 α      in ANC's #2, #6, #5, ...

........................................................................
.............................. CYCLE    5 ..............................
........................................................................
   1    -10.0298773 -0.100299E+02  0.235E-01    0.01       0.0  T
   2    -10.0298316  0.457617E-04  0.110E-01    0.00       1.0  T
   3    -10.0262708  0.356076E-02  0.593E-01    0.00       1.0  T
   4    -10.0298219 -0.355113E-02  0.833E-02    0.00       1.0  T
   5    -10.0297900  0.319018E-04  0.996E-02    0.00       1.0  T
   6    -10.0298824 -0.923249E-04  0.812E-03    0.00       5.5  T
   7    -10.0298825 -0.131118E-06  0.502E-03    0.00       8.9  T
   8    -10.0298799  0.262089E-05  0.170E-02    0.00       2.6  T
   9    -10.0298827 -0.279123E-05  0.147E-03    0.00      30.4  T
  10    -10.0298827 -0.785420E-08  0.100E-03    0.00      44.7  T
  11    -10.0298827 -0.764130E-08  0.273E-04    0.00     163.9  T
     SCC iter.                  ...        0 min,  0.001 sec
     gradient                   ...        0 min,  0.001 sec
 * total energy  :    -9.9144353 Eh     change       -0.1884605E-04 Eh
   gradient norm :     0.0060486 Eh/α   predicted    -0.3111886E-05 ( -83.49%)
   displ. norm   :     0.0647791 α      lambda       -0.3159601E-03
   maximum displ.:     0.0448770 α      in ANC's #2, #5, #4, ...

........................................................................
.............................. CYCLE    6 ..............................
........................................................................
   1    -10.0299476 -0.100299E+02  0.167E+00    0.06       0.0  T
   2     -9.9999249  0.300227E-01  0.183E+00    0.06       1.0  T
   3     -9.8115990  0.188326E+00  0.474E+00    0.12       1.0  T
   4    -10.0100659 -0.198467E+00  0.148E+00    0.04       1.0  T
   5    -10.0305026 -0.204367E-01  0.300E-01    0.05       1.0  T
   6    -10.0301629  0.339716E-03  0.281E-01    0.05       1.0  T
   7    -10.0306298 -0.466910E-03  0.103E-01    0.05       1.0  T
   8    -10.0302281  0.401735E-03  0.215E-01    0.05       1.0  T
   9    -10.0306943 -0.466239E-03  0.252E-02    0.05       1.8  T
  10    -10.0306938  0.507967E-06  0.182E-02    0.05       2.5  T
  11    -10.0306948 -0.994210E-06  0.419E-03    0.05      10.7  T
  12    -10.0306949 -0.326161E-07  0.251E-03    0.05      17.8  T
  13    -10.0306949 -0.308997E-07  0.468E-04    0.05      95.6  T
  14    -10.0306949 -0.984159E-09  0.273E-04    0.05     164.1  T
     SCC iter.                  ...        0 min,  0.002 sec
     gradient                   ...        0 min,  0.001 sec
 * total energy  :    -9.9159035 Eh     change       -0.1468248E-02 Eh
   gradient norm :     0.0469509 Eh/α   predicted    -0.1586419E-03 ( -89.20%)
   displ. norm   :     0.4038119 α      lambda       -0.1529359E-01
   maximum displ.:     0.2584440 α      in ANC's #2, #4, #5, ...

........................................................................
.............................. CYCLE    7 ..............................
........................................................................
   1    -10.0427908 -0.100428E+02  0.227E+00    0.53       0.0  T
   2     -9.8886577  0.154133E+00  0.420E+00    0.30       1.0  T
   3    -10.0080261 -0.119368E+00  0.224E+00    0.52       1.0  T
   4     -9.8910973  0.116929E+00  0.393E+00    0.36       1.0  T
   5    -10.0481267 -0.157029E+00  0.375E-01    0.49       1.0  T
   6    -10.0478466  0.280140E-03  0.424E-01    0.47       1.0  T
   7    -10.0490635 -0.121687E-02  0.181E-01    0.48       1.0  T
   8    -10.0491079 -0.444428E-04  0.905E-02    0.48       1.0  T
   9    -10.0491398 -0.318969E-04  0.140E-02    0.48       3.2  T
  10    -10.0491408 -0.969314E-06  0.629E-03    0.48       7.1  T
  11    -10.0491410 -0.188173E-06  0.112E-03    0.48      40.1  T
  12    -10.0491410 -0.270426E-08  0.552E-04    0.48      81.0  T
  13    -10.0491410 -0.211107E-08  0.555E-05    0.48     806.5  T
     SCC iter.                  ...        0 min,  0.001 sec
     gradient                   ...        0 min,  0.002 sec
 * total energy  :    -9.9409805 Eh     change       -0.2507693E-01 Eh
   gradient norm :     0.0901952 Eh/α   predicted    -0.8893715E-02 ( -64.53%)
   displ. norm   :     0.5549148 α      lambda       -0.3880668E-01
   maximum displ.:     0.3977375 α      in ANC's #2, #4, #5, ...

........................................................................
.............................. CYCLE    8 ..............................
........................................................................
   1    -10.0758747 -0.100759E+02  0.244E+00    0.88       0.0  T
   2    -10.0152249  0.606499E-01  0.288E+00    0.91       1.0  T
   3     -9.9722596  0.429652E-01  0.334E+00    1.06       1.0  T
   4    -10.0090985 -0.368388E-01  0.264E+00    0.69       1.0  T
   5    -10.0773923 -0.682938E-01  0.387E-01    0.92       1.0  T
   6    -10.0776407 -0.248462E-03  0.332E-01    0.91       1.0  T
   7    -10.0784040 -0.763232E-03  0.173E-01    0.90       1.0  T
   8    -10.0785075 -0.103488E-03  0.113E-01    0.90       1.0  T
   9    -10.0785716 -0.641585E-04  0.117E-02    0.89       3.8  T
  10    -10.0785725 -0.875701E-06  0.434E-03    0.89      10.3  T
  11    -10.0785726 -0.928170E-07  0.345E-04    0.89     129.6  T
  12    -10.0785726 -0.791438E-10  0.181E-04    0.89     246.6  T
     SCC iter.                  ...        0 min,  0.001 sec
     gradient                   ...        0 min,  0.001 sec
 * total energy  :    -9.9777981 Eh     change       -0.3681763E-01 Eh
   gradient norm :     0.1119907 Eh/α   predicted    -0.2537824E-01 ( -31.07%)
   displ. norm   :     0.9286116 α      lambda       -0.7221869E-01
   maximum displ.:     0.6079022 α      in ANC's #2, #5, #4, ...

........................................................................
.............................. CYCLE    9 ..............................
........................................................................
   1    -10.0814462 -0.100814E+02  0.611E+00    0.87       0.0  T
   2     -8.7416116  0.133983E+01  0.111E+01    0.80       1.0  T
   3    -10.0210670 -0.127946E+01  0.448E+00    0.93       1.0  T
   4    -10.0770783 -0.560113E-01  0.350E+00    0.88       1.0  T
   5    -10.1363073 -0.592290E-01  0.174E+00    0.66       1.0  T
   6    -10.1521724 -0.158651E-01  0.143E+00    0.70       1.0  T
   7    -10.1512569  0.915454E-03  0.148E+00    0.71       1.0  T
   8    -10.1532754 -0.201843E-02  0.120E+00    0.69       1.0  T
   9    -10.1615976 -0.832218E-02  0.231E-01    0.60       1.0  T
  10    -10.1616019 -0.435132E-05  0.226E-01    0.60       1.0  T
  11    -10.1617196 -0.117677E-03  0.276E-02    0.61       1.6  T
  12    -10.1617224 -0.286210E-05  0.298E-02    0.61       1.5  T
  13    -10.1617244 -0.198500E-05  0.388E-03    0.61      11.5  T
  14    -10.1617245 -0.520473E-07  0.137E-03    0.61      32.6  T
  15    -10.1617245 -0.709125E-08  0.278E-04    0.61     160.8  T
  16    -10.1617245 -0.379773E-09  0.142E-04    0.61     315.3  T
     SCC iter.                  ...        0 min,  0.002 sec
     gradient                   ...        0 min,  0.001 sec
 * total energy  :   -10.0584518 Eh     change       -0.8065370E-01 Eh
   gradient norm :     0.1805415 Eh/α   predicted    -0.6724715E-01 ( -16.62%)
   displ. norm   :     0.8744714 α      lambda       -0.1049577E+00
   maximum displ.:     0.5603898 α      in ANC's #5, #2, #4, ...

........................................................................
.............................. CYCLE   10 ..............................
........................................................................
   1    -10.3293967 -0.103294E+02  0.570E+00    1.28       0.0  T
   2    -10.3071250  0.222717E-01  0.415E+00    1.04       1.0  T
   3    -10.0081987  0.298926E+00  0.633E+00    1.09       1.0  T
   4    -10.2728256 -0.264627E+00  0.285E+00    1.31       1.0  T
   5    -10.3354739 -0.626483E-01  0.821E-01    1.18       1.0  T
   6    -10.3398545 -0.438060E-02  0.313E-01    1.24       1.0  T
   7    -10.3399392 -0.846429E-04  0.247E-01    1.23       1.0  T
   8    -10.3399511 -0.119636E-04  0.124E-01    1.25       1.0  T
   9    -10.3400334 -0.822922E-04  0.203E-02    1.25       2.2  T
  10    -10.3400346 -0.119196E-05  0.140E-02    1.25       3.2  T
  11    -10.3400355 -0.886651E-06  0.134E-03    1.24      33.4  T
  12    -10.3400355 -0.333193E-08  0.363E-04    1.24     123.3  T
  13    -10.3400355 -0.623704E-09  0.830E-05    1.24     538.8  T
     SCC iter.                  ...        0 min,  0.001 sec
     gradient                   ...        0 min,  0.001 sec
 * total energy  :    -9.9796244 Eh     change        0.7882739E-01 Eh
   gradient norm :     0.8579999 Eh/α   predicted    -0.9260946E-01 (-217.48%)
   displ. norm   :     0.4244609 α      lambda       -0.3320716E+00
   maximum displ.:     0.2755253 α      in ANC's #2, #5, #6, ...

........................................................................
.............................. CYCLE   11 ..............................
........................................................................
   1    -10.2077967 -0.102078E+02  0.325E+00    0.82       0.0  T
   2    -10.1777398  0.300569E-01  0.272E+00    0.66       1.0  T
   3    -10.1395513  0.381885E-01  0.318E+00    0.93       1.0  T
   4    -10.1930896 -0.535384E-01  0.165E+00    0.78       1.0  T
   5    -10.2124191 -0.193295E-01  0.489E-01    0.76       1.0  T
   6    -10.2143960 -0.197690E-02  0.219E-01    0.81       1.0  T
   7    -10.2145305 -0.134419E-03  0.130E-01    0.80       1.0  T
   8    -10.2145553 -0.248424E-04  0.322E-02    0.80       1.4  T
   9    -10.2145607 -0.544155E-05  0.112E-02    0.80       4.0  T
  10    -10.2145609 -0.174520E-06  0.320E-03    0.80      14.0  T
  11    -10.2145609 -0.307317E-08  0.579E-04    0.80      77.3  T
  12    -10.2145609 -0.777415E-09  0.105E-04    0.80     424.9  T
     SCC iter.                  ...        0 min,  0.001 sec
     gradient                   ...        0 min,  0.001 sec
 * total energy  :   -10.0890211 Eh     change       -0.1093967E+00 Eh
   gradient norm :     0.1187056 Eh/α   predicted    -0.1959500E+00 (  79.12%)
   displ. norm   :     0.7424805 α      lambda       -0.5319217E-01
   maximum displ.:     0.6600208 α      in ANC's #2, #6, #5, ...

........................................................................
.............................. CYCLE   12 ..............................
........................................................................
   1    -10.3226630 -0.103227E+02  0.496E+00    1.09       0.0  T
   2    -10.3137694  0.889361E-02  0.308E+00    1.23       1.0  T
   3    -10.1432972  0.170472E+00  0.468E+00    0.67       1.0  T
   4    -10.3226520 -0.179355E+00  0.810E-01    1.12       1.0  T
   5    -10.3229593 -0.307279E-03  0.671E-01    1.04       1.0  T
   6    -10.3268391 -0.387985E-02  0.221E-01    1.11       1.0  T
   7    -10.3268906 -0.514860E-04  0.179E-01    1.09       1.0  T
   8    -10.3269221 -0.315332E-04  0.117E-01    1.10       1.0  T
   9    -10.3269649 -0.427080E-04  0.212E-02    1.09       2.1  T
  10    -10.3269666 -0.177340E-05  0.135E-02    1.09       3.3  T
  11    -10.3269673 -0.666341E-06  0.141E-03    1.09      31.6  T
  12    -10.3269673 -0.114968E-07  0.568E-04    1.09      78.7  T
  13    -10.3269673 -0.118203E-08  0.956E-05    1.09     467.7  T
     SCC iter.                  ...        0 min,  0.001 sec
     gradient                   ...        0 min,  0.001 sec
 * total energy  :   -10.1021751 Eh     change       -0.1315396E-01 Eh
   gradient norm :     0.2535950 Eh/α   predicted    -0.4125791E-01 ( 213.65%)
   displ. norm   :     0.2723648 α      lambda       -0.4291342E-01
   maximum displ.:     0.1305614 α      in ANC's #5, #3, #8, ...

........................................................................
.............................. CYCLE   13 ..............................
........................................................................
   1    -10.2871990 -0.102872E+02  0.158E+00    0.82       0.0  T
   2    -10.2549523  0.322466E-01  0.197E+00    0.59       1.0  T
   3    -10.2348803  0.200720E-01  0.245E+00    1.05       1.0  T
   4    -10.2882552 -0.533749E-01  0.780E-01    0.77       1.0  T
   5    -10.2895683 -0.131313E-02  0.468E-01    0.75       1.0  T
   6    -10.2909839 -0.141564E-02  0.228E-01    0.79       1.0  T
   7    -10.2910148 -0.308279E-04  0.204E-01    0.79       1.0  T
   8    -10.2910711 -0.563529E-04  0.698E-02    0.82       1.0  T
   9    -10.2910961 -0.249462E-04  0.110E-02    0.81       4.1  T
  10    -10.2910966 -0.483312E-06  0.715E-03    0.81       6.3  T
  11    -10.2910966 -0.104855E-07  0.102E-03    0.81      43.7  T
  12    -10.2910966 -0.593164E-08  0.208E-04    0.81     214.9  T
  13    -10.2910966 -0.533387E-10  0.603E-05    0.81     742.2  T
     SCC iter.                  ...        0 min,  0.001 sec
     gradient                   ...        0 min,  0.001 sec
 * total energy  :   -10.1218501 Eh     change       -0.1967501E-01 Eh
   gradient norm :     0.0650352 Eh/α   predicted    -0.2304842E-01 (  17.15%)
   displ. norm   :     0.4572330 α      lambda       -0.2418789E-01
   maximum displ.:     0.3588707 α      in ANC's #4, #3, #6, ...

........................................................................
.............................. CYCLE   14 ..............................
........................................................................
   1    -10.2580803 -0.102581E+02  0.307E+00    1.38       0.0  T
   2    -10.2521186  0.596170E-02  0.200E+00    1.33       1.0  T
   3    -10.1832955  0.688230E-01  0.314E+00    1.48       1.0  T
   4    -10.2579018 -0.746063E-01  0.494E-01    1.31       1.0  T
   5    -10.2591486 -0.124679E-02  0.309E-01    1.42       1.0  T
   6    -10.2597656 -0.617041E-03  0.152E-01    1.37       1.0  T
   7    -10.2598773 -0.111687E-03  0.794E-02    1.39       1.0  T
   8    -10.2598938 -0.165027E-04  0.358E-02    1.38       1.3  T
   9    -10.2598995 -0.565223E-05  0.659E-03    1.38       6.8  T
  10    -10.2598995 -0.235464E-07  0.131E-03    1.38      34.2  T
  11    -10.2598995 -0.747229E-08  0.271E-04    1.38     164.9  T
  12    -10.2598995 -0.488303E-10  0.287E-05    1.38    1557.5  T
     SCC iter.                  ...        0 min,  0.001 sec
     gradient                   ...        0 min,  0.001 sec
 * total energy  :   -10.1268888 Eh     change       -0.5038740E-02 Eh
   gradient norm :     0.1009156 Eh/α   predicted    -0.1462232E-01 ( 190.20%)
   displ. norm   :     0.4045557 α      lambda       -0.1611407E-01
   maximum displ.:     0.2614902 α      in ANC's #2, #3, #5, ...

........................................................................
.............................. CYCLE   15 ..............................
........................................................................
   1    -10.2703573 -0.102704E+02  0.301E+00    1.74       0.0  T
   2     -9.9112936  0.359064E+00  0.554E+00    2.36       1.0  T
   3    -10.2150296 -0.303736E+00  0.292E+00    1.49       1.0  T
   4    -10.2576212 -0.425915E-01  0.169E+00    1.55       1.0  T
   5    -10.2640206 -0.639940E-02  0.136E+00    1.78       1.0  T
   6    -10.2712710 -0.725044E-02  0.947E-01    1.74       1.0  T
   7    -10.2720020 -0.731008E-03  0.868E-01    1.74       1.0  T
   8    -10.2728891 -0.887088E-03  0.838E-01    1.77       1.0  T
   9    -10.2773209 -0.443181E-02  0.314E-01    1.85       1.0  T
  10    -10.2773169  0.398871E-05  0.314E-01    1.85       1.0  T
  11    -10.2779437 -0.626804E-03  0.822E-02    1.91       1.0  T
  12    -10.2778539  0.898188E-04  0.124E-01    1.92       1.0  T
  13    -10.2779779 -0.124046E-03  0.186E-02    1.91       2.4  T
  14    -10.2779793 -0.135038E-05  0.135E-02    1.90       3.3  T
  15    -10.2779809 -0.161810E-05  0.166E-03    1.90      26.9  T
  16    -10.2779809 -0.178016E-07  0.587E-04    1.90      76.1  T
  17    -10.2779809 -0.293248E-08  0.881E-05    1.90     507.5  T
     SCC iter.                  ...        0 min,  0.002 sec
     gradient                   ...        0 min,  0.001 sec
 * total energy  :   -10.1345746 Eh     change       -0.7685780E-02 Eh
   gradient norm :     0.0703264 Eh/α   predicted    -0.9375699E-02 (  21.99%)
   displ. norm   :     0.2204855 α      lambda       -0.7788739E-02
   maximum displ.:     0.1381513 α      in ANC's #3, #4, #1, ...

........................................................................
.............................. CYCLE   16 ..............................
........................................................................
   1    -10.3002289 -0.103002E+02  0.172E+00    1.95       0.0  T
   2    -10.2198474  0.803815E-01  0.274E+00    2.35       1.0  T
   3    -10.2864775 -0.666301E-01  0.157E+00    1.81       1.0  T
   4    -10.2947074 -0.822992E-02  0.104E+00    1.86       1.0  T
   5    -10.3006153 -0.590786E-02  0.597E-01    1.97       1.0  T
   6    -10.3021668 -0.155151E-02  0.438E-01    1.98       1.0  T
   7    -10.3025810 -0.414197E-03  0.402E-01    1.99       1.0  T
   8    -10.3034567 -0.875738E-03  0.191E-01    2.03       1.0  T
   9    -10.3037145 -0.257804E-03  0.399E-02    2.06       1.1  T
  10    -10.3037092  0.533564E-05  0.421E-02    2.06       1.1  T
  11    -10.3037194 -0.102320E-04  0.188E-03    2.06      23.7  T
  12    -10.3037194 -0.175709E-07  0.664E-04    2.06      67.4  T
  13    -10.3037194  0.171554E-08  0.513E-04    2.06      87.2  T
     SCC iter.                  ...        0 min,  0.001 sec
     gradient                   ...        0 min,  0.001 sec
 * total energy  :   -10.1366916 Eh     change       -0.2116969E-02 Eh
   gradient norm :     0.0357684 Eh/α   predicted    -0.4083691E-02 (  92.90%)
   displ. norm   :     0.1024411 α      lambda       -0.2476133E-02
   maximum displ.:     0.0882052 α      in ANC's #4, #1, #8, ...

........................................................................
.............................. CYCLE   17 ..............................
........................................................................
   1    -10.2965662 -0.102966E+02  0.737E-01    2.05       0.0  T
   2    -10.2937824  0.278375E-02  0.671E-01    1.90       1.0  T
   3    -10.2938168 -0.343542E-04  0.691E-01    2.12       1.0  T
   4    -10.2969640 -0.314720E-02  0.129E-01    2.01       1.0  T
   5    -10.2970756 -0.111666E-03  0.550E-02    2.02       1.0  T
   6    -10.2970938 -0.181320E-04  0.242E-02    2.01       1.8  T
   7    -10.2970935  0.286289E-06  0.187E-02    2.01       2.4  T
   8    -10.2970954 -0.187955E-05  0.520E-03    2.01       8.6  T
   9    -10.2970955 -0.172684E-06  0.141E-03    2.01      31.7  T
  10    -10.2970956 -0.287449E-08  0.124E-04    2.01     361.8  T
  11    -10.2970956 -0.632028E-11  0.720E-05    2.01     621.2  T
     SCC iter.                  ...        0 min,  0.001 sec
     gradient                   ...        0 min,  0.001 sec
 * total energy  :   -10.1381369 Eh     change       -0.1445295E-02 Eh
   gradient norm :     0.0210730 Eh/α   predicted    -0.1251060E-02 ( -13.44%)
   displ. norm   :     0.0764169 α      lambda       -0.8581005E-03
   maximum displ.:     0.0504428 α      in ANC's #4, #5, #3, ...

........................................................................
.............................. CYCLE   18 ..............................
........................................................................
   1    -10.2990340 -0.102990E+02  0.325E-01    1.99       0.0  T
   2    -10.2988335  0.200420E-03  0.257E-01    2.03       1.0  T
   3    -10.2984842  0.349289E-03  0.288E-01    1.95       1.0  T
   4    -10.2990057 -0.521442E-03  0.106E-01    2.01       1.0  T
   5    -10.2990856 -0.799625E-04  0.290E-02    1.99       1.5  T
   6    -10.2990913 -0.569409E-05  0.145E-02    2.00       3.1  T
   7    -10.2990919 -0.588629E-06  0.984E-03    2.00       4.5  T
   8    -10.2990924 -0.455748E-06  0.954E-04    2.00      46.9  T
   9    -10.2990924 -0.211672E-08  0.504E-04    2.00      88.8  T
     SCC iter.                  ...        0 min,  0.001 sec
     gradient                   ...        0 min,  0.001 sec
 * total energy  :   -10.1387607 Eh     change       -0.6238139E-03 Eh
   gradient norm :     0.0169807 Eh/α   predicted    -0.4315543E-03 ( -30.82%)
   displ. norm   :     0.1234009 α      lambda       -0.1021056E-02
   maximum displ.:     0.0849696 α      in ANC's #1, #4, #5, ...

........................................................................
.............................. CYCLE   19 ..............................
........................................................................
   1    -10.3008282 -0.103008E+02  0.562E-01    1.90       0.0  T
   2    -10.3007056  0.122633E-03  0.357E-01    1.92       1.0  T
   3    -10.2990457  0.165988E-02  0.493E-01    1.87       1.0  T
   4    -10.3008418 -0.179611E-02  0.711E-02    1.91       1.0  T
   5    -10.3008800 -0.381945E-04  0.215E-02    1.91       2.1  T
   6    -10.3008797  0.353531E-06  0.111E-02    1.91       4.0  T
   7    -10.3008792  0.429547E-06  0.122E-02    1.90       3.7  T
   8    -10.3008805 -0.132293E-05  0.208E-03    1.91      21.5  T
   9    -10.3008806 -0.284172E-07  0.568E-04    1.91      78.8  T
  10    -10.3008806 -0.368335E-09  0.876E-05    1.91     510.4  T
     SCC iter.                  ...        0 min,  0.001 sec
     gradient                   ...        0 min,  0.001 sec
 * total energy  :   -10.1394375 Eh     change       -0.6767836E-03 Eh
   gradient norm :     0.0159711 Eh/α   predicted    -0.5183006E-03 ( -23.42%)
   displ. norm   :     0.1328250 α      lambda       -0.6423360E-03
   maximum displ.:     0.1183903 α      in ANC's #1, #4, #3, ...

........................................................................
.............................. CYCLE   20 ..............................
........................................................................
   1    -10.3039741 -0.103040E+02  0.706E-01    1.85       0.0  T
   2    -10.3038819  0.922157E-04  0.421E-01    1.86       1.0  T
   3    -10.3017190  0.216288E-02  0.544E-01    1.83       1.0  T
   4    -10.3039934 -0.227436E-02  0.670E-02    1.86       1.0  T
   5    -10.3040195 -0.260745E-04  0.299E-02    1.85       1.5  T
   6    -10.3040166  0.285896E-05  0.302E-02    1.86       1.5  T
   7    -10.3040205 -0.386942E-05  0.163E-02    1.85       2.7  T
   8    -10.3040228 -0.235079E-05  0.153E-03    1.85      29.3  T
   9    -10.3040229 -0.144799E-07  0.554E-04    1.85      80.7  T
  10    -10.3040229 -0.374284E-09  0.624E-05    1.85     716.8  T
     SCC iter.                  ...        0 min,  0.001 sec
     gradient                   ...        0 min,  0.001 sec
 * total energy  :   -10.1399886 Eh     change       -0.5511227E-03 Eh
   gradient norm :     0.0161714 Eh/α   predicted    -0.3268341E-03 ( -40.70%)
   displ. norm   :     0.5915673 α      lambda       -0.2645100E-02
   maximum displ.:     0.5510976 α      in ANC's #1, #4, #3, ...
 * RMSD in coord.:     1.1467682 α      energy gain  -0.2509484E+00 Eh

generating ANC from model Hessian ...
Using Lindh-Hessian (1995)
 Shifting diagonal of input Hessian by    0.0000000000000000     
 Lowest  eigenvalues of input Hessian
   -0.000000   -0.000000   -0.000000    0.000000    0.000000    0.000000
    0.136114    0.177148    0.319971    0.426422    0.673850    0.785362
    1.033986    1.450541    2.032718
 Highest eigenvalues
    0.426422    0.673850    0.785362    1.033986    1.450541    2.032718


........................................................................
.............................. CYCLE   21 ..............................
........................................................................
   1    -10.2811268 -0.102811E+02  0.355E+00    1.28       0.0  T
   2    -10.2202439  0.608829E-01  0.325E+00    0.81       1.0  T
   3    -10.0344952  0.185749E+00  0.501E+00    1.51       1.0  T
   4    -10.2495374 -0.215042E+00  0.210E+00    0.87       1.0  T
   5    -10.2748476 -0.253102E-01  0.175E+00    1.20       1.0  T
   6    -10.2877967 -0.129491E-01  0.938E-01    1.06       1.0  T
   7    -10.2886669 -0.870214E-03  0.866E-01    1.09       1.0  T
   8    -10.2904418 -0.177489E-02  0.647E-01    1.09       1.0  T
   9    -10.2926097 -0.216783E-02  0.368E-01    1.13       1.0  T
  10    -10.2928877 -0.278047E-03  0.312E-01    1.13       1.0  T
  11    -10.2934175 -0.529798E-03  0.238E-02    1.16       1.9  T
  12    -10.2934199 -0.234692E-05  0.635E-03    1.16       7.0  T
  13    -10.2934199 -0.633755E-07  0.324E-03    1.16      13.8  T
  14    -10.2934198  0.910254E-07  0.442E-03    1.16      10.1  T
  15    -10.2934199 -0.102228E-06  0.641E-04    1.16      69.8  T
  16    -10.2934199 -0.103789E-08  0.305E-04    1.16     146.7  T
     SCC iter.                  ...        0 min,  0.002 sec
     gradient                   ...        0 min,  0.001 sec
 * total energy  :   -10.1439947 Eh     change       -0.4006126E-02 Eh
   gradient norm :     0.0696780 Eh/α   predicted     0.0000000E+00 (-100.00%)
   displ. norm   :     0.1385024 α      lambda       -0.7947067E-02
   maximum displ.:     0.0993592 α      in ANC's #3, #4, #1, ...

........................................................................
.............................. CYCLE   22 ..............................
........................................................................
   1    -10.3127373 -0.103127E+02  0.107E+00    1.09       0.0  T
   2    -10.3044997  0.823761E-02  0.120E+00    1.16       1.0  T
   3    -10.3100957 -0.559592E-02  0.938E-01    1.07       1.0  T
   4    -10.3128105 -0.271481E-02  0.454E-01    1.09       1.0  T
   5    -10.3140675 -0.125705E-02  0.184E-01    1.13       1.0  T
   6    -10.3143847 -0.317229E-03  0.611E-02    1.10       1.0  T
   7    -10.3143930 -0.829551E-05  0.431E-02    1.10       1.0  T
   8    -10.3143954 -0.231617E-05  0.155E-02    1.10       2.9  T
   9    -10.3143963 -0.900903E-06  0.308E-03    1.10      14.5  T
  10    -10.3143963 -0.134853E-07  0.214E-03    1.10      20.9  T
  11    -10.3143963 -0.203646E-07  0.174E-04    1.10     257.6  T
  12    -10.3143963 -0.988702E-10  0.300E-05    1.10    1491.9  T
     SCC iter.                  ...        0 min,  0.001 sec
     gradient                   ...        0 min,  0.001 sec
 * total energy  :   -10.1518991 Eh     change       -0.7904395E-02 Eh
   gradient norm :     0.0602714 Eh/α   predicted    -0.4049760E-02 ( -48.77%)
   displ. norm   :     0.9852081 α      lambda       -0.5610852E-01
   maximum displ.:     0.7344725 α      in ANC's #3, #4, #1, ...

........................................................................
.............................. CYCLE   23 ..............................
........................................................................
   1    -10.3941846 -0.103942E+02  0.517E+00    1.48       0.0  T
   2    -10.3750473  0.191372E-01  0.357E+00    1.42       1.0  T
   3    -10.2674134  0.107634E+00  0.428E+00    1.23       1.0  T
   4    -10.3759235 -0.108510E+00  0.166E+00    1.57       1.0  T
   5    -10.3949785 -0.190550E-01  0.839E-01    1.41       1.0  T
   6    -10.4018332 -0.685471E-02  0.255E-01    1.48       1.0  T
   7    -10.4018579 -0.247036E-04  0.244E-01    1.47       1.0  T
   8    -10.4020111 -0.153121E-03  0.105E-01    1.47       1.0  T
   9    -10.4020768 -0.657849E-04  0.179E-02    1.48       2.5  T
  10    -10.4020777 -0.904787E-06  0.126E-02    1.48       3.6  T
  11    -10.4020779 -0.132216E-06  0.144E-03    1.48      31.0  T
  12    -10.4020779 -0.858248E-08  0.439E-04    1.48     101.9  T
  13    -10.4020779 -0.137247E-08  0.355E-05    1.48    1261.1  T
     SCC iter.                  ...        0 min,  0.001 sec
     gradient                   ...        0 min,  0.001 sec
 * total energy  :   -10.1794390 Eh     change       -0.2753993E-01 Eh
   gradient norm :     0.1540188 Eh/α   predicted    -0.5528495E-01 ( 100.74%)
   displ. norm   :     0.3062327 α      lambda       -0.2389149E-01
   maximum displ.:     0.2684084 α      in ANC's #1, #3, #8, ...

........................................................................
.............................. CYCLE   24 ..............................
........................................................................
   1    -10.3792270 -0.103792E+02  0.131E+00    1.41       0.0  T
   2    -10.3685531  0.106740E-01  0.143E+00    1.51       1.0  T
   3    -10.3730106 -0.445755E-02  0.998E-01    1.36       1.0  T
   4    -10.3736562 -0.645554E-03  0.104E+00    1.51       1.0  T
   5    -10.3816624 -0.800621E-02  0.172E-01    1.45       1.0  T
   6    -10.3817631 -0.100700E-03  0.988E-02    1.45       1.0  T
   7    -10.3817702 -0.708481E-05  0.389E-02    1.45       1.1  T
   8    -10.3817651  0.510230E-05  0.411E-02    1.45       1.1  T
   9    -10.3817795 -0.144692E-04  0.360E-03    1.45      12.4  T
  10    -10.3817795 -0.129132E-07  0.418E-04    1.45     106.9  T
  11    -10.3817795  0.255094E-09  0.315E-04    1.45     142.1  T
     SCC iter.                  ...        0 min,  0.001 sec
     gradient                   ...        0 min,  0.001 sec
 * total energy  :   -10.1872107 Eh     change       -0.7771636E-02 Eh
   gradient norm :     0.0637806 Eh/α   predicted    -0.1306601E-01 (  68.12%)
   displ. norm   :     0.2021250 α      lambda       -0.8581407E-02
   maximum displ.:     0.1325269 α      in ANC's #3, #5, #1, ...

........................................................................
.............................. CYCLE   25 ..............................
........................................................................
   1    -10.3818505 -0.103819E+02  0.152E+00    1.54       0.0  T
   2    -10.3811601  0.690434E-03  0.946E-01    1.48       1.0  T
   3    -10.3656658  0.154942E-01  0.133E+00    1.61       1.0  T
   4    -10.3788792 -0.132133E-01  0.578E-01    1.48       1.0  T
   5    -10.3821282 -0.324900E-02  0.102E-01    1.53       1.0  T
   6    -10.3821689 -0.406985E-04  0.772E-02    1.51       1.0  T
   7    -10.3822095 -0.405982E-04  0.246E-02    1.52       1.8  T
   8    -10.3822108 -0.136587E-05  0.784E-03    1.52       5.7  T
   9    -10.3822112 -0.385468E-06  0.215E-03    1.52      20.8  T
  10    -10.3822112 -0.514921E-08  0.230E-04    1.52     194.7  T
  11    -10.3822112 -0.662119E-10  0.155E-04    1.52     288.1  T
     SCC iter.                  ...        0 min,  0.001 sec
     gradient                   ...        0 min,  0.001 sec
 * total energy  :   -10.1908638 Eh     change       -0.3653108E-02 Eh
   gradient norm :     0.0553765 Eh/α   predicted    -0.4465999E-02 (  22.25%)
   displ. norm   :     0.1345354 α      lambda       -0.1983053E-02
   maximum displ.:     0.0823760 α      in ANC's #2, #3, #1, ...

........................................................................
.............................. CYCLE   26 ..............................
........................................................................
   1    -10.3795292 -0.103795E+02  0.548E-01    1.49       0.0  T
   2    -10.3793252  0.203976E-03  0.341E-01    1.47       1.0  T
   3    -10.3753939  0.393129E-02  0.638E-01    1.52       1.0  T
   4    -10.3783491 -0.295520E-02  0.354E-01    1.46       1.0  T
   5    -10.3795870 -0.123787E-02  0.465E-02    1.48       1.0  T
   6    -10.3795978 -0.108422E-04  0.313E-02    1.48       1.4  T
   7    -10.3796054 -0.757357E-05  0.119E-02    1.48       3.8  T
   8    -10.3796059 -0.516329E-06  0.382E-03    1.48      11.7  T
   9    -10.3796060 -0.233309E-07  0.542E-04    1.48      82.4  T
  10    -10.3796060 -0.774337E-09  0.777E-05    1.48     575.5  T
     SCC iter.                  ...        0 min,  0.001 sec
     gradient                   ...        0 min,  0.001 sec
 * total energy  :   -10.1918578 Eh     change       -0.9939826E-03 Eh
   gradient norm :     0.0542216 Eh/α   predicted    -0.1009475E-02 (   1.56%)
   displ. norm   :     0.0577425 α      lambda       -0.1337064E-02
   maximum displ.:     0.0418367 α      in ANC's #2, #1, #8, ...

........................................................................
.............................. CYCLE   27 ..............................
........................................................................
   1    -10.3843896 -0.103844E+02  0.324E-01    1.46       0.0  T
   2    -10.3843402  0.494374E-04  0.205E-01    1.47       1.0  T
   3    -10.3835534  0.786794E-03  0.317E-01    1.45       1.0  T
   4    -10.3842888 -0.735486E-03  0.990E-02    1.47       1.0  T
   5    -10.3844049 -0.116074E-03  0.217E-02    1.46       2.1  T
   6    -10.3844064 -0.146657E-05  0.131E-02    1.46       3.4  T
   7    -10.3844065 -0.835019E-07  0.878E-03    1.46       5.1  T
   8    -10.3844069 -0.459385E-06  0.104E-03    1.46      42.9  T
   9    -10.3844069 -0.950276E-09  0.494E-04    1.46      90.5  T
  10    -10.3844069 -0.359451E-09  0.567E-05    1.46     788.3  T
     SCC iter.                  ...        0 min,  0.001 sec
     gradient                   ...        0 min,  0.001 sec
 * total energy  :   -10.1929913 Eh     change       -0.1133516E-02 Eh
   gradient norm :     0.0444978 Eh/α   predicted    -0.6707615E-03 ( -40.82%)
   displ. norm   :     0.1670307 α      lambda       -0.2714885E-02
   maximum displ.:     0.1133605 α      in ANC's #2, #1, #8, ...

........................................................................
.............................. CYCLE   28 ..............................
........................................................................
   1    -10.3945330 -0.103945E+02  0.886E-01    1.39       0.0  T
   2    -10.3938888  0.644132E-03  0.577E-01    1.38       1.0  T
   3    -10.3866619  0.722690E-02  0.941E-01    1.40       1.0  T
   4    -10.3900982 -0.343624E-02  0.636E-01    1.37       1.0  T
   5    -10.3946918 -0.459357E-02  0.725E-02    1.39       1.0  T
   6    -10.3947311 -0.393813E-04  0.366E-02    1.38       1.2  T
   7    -10.3947362 -0.503470E-05  0.183E-02    1.38       2.4  T
   8    -10.3947371 -0.911709E-06  0.725E-03    1.38       6.2  T
   9    -10.3947373 -0.243536E-06  0.111E-03    1.38      40.4  T
  10    -10.3947373 -0.108844E-08  0.123E-04    1.38     362.6  T
  11    -10.3947373 -0.223235E-10  0.699E-05    1.38     640.1  T
     SCC iter.                  ...        0 min,  0.001 sec
     gradient                   ...        0 min,  0.001 sec
 * total energy  :   -10.1945838 Eh     change       -0.1592499E-02 Eh
   gradient norm :     0.0409804 Eh/α   predicted    -0.1395312E-02 ( -12.38%)
   displ. norm   :     0.0743587 α      lambda       -0.8580555E-03
   maximum displ.:     0.0532115 α      in ANC's #1, #2, #8, ...

........................................................................
.............................. CYCLE   29 ..............................
........................................................................
   1    -10.3967038 -0.103967E+02  0.304E-01    1.33       0.0  T
   2    -10.3965887  0.115091E-03  0.219E-01    1.33       1.0  T
   3    -10.3960927  0.495965E-03  0.287E-01    1.33       1.0  T
   4    -10.3956961  0.396638E-03  0.296E-01    1.34       1.0  T
   5    -10.3967210 -0.102490E-02  0.552E-02    1.33       1.0  T
   6    -10.3967476 -0.266255E-04  0.138E-02    1.33       3.3  T
   7    -10.3967483 -0.738463E-06  0.811E-03    1.33       5.5  T
   8    -10.3967486 -0.219591E-06  0.113E-03    1.33      39.5  T
   9    -10.3967486 -0.645453E-09  0.413E-04    1.33     108.3  T
  10    -10.3967486 -0.719659E-09  0.250E-05    1.33    1785.3  T
     SCC iter.                  ...        0 min,  0.001 sec
     gradient                   ...        0 min,  0.001 sec
 * total energy  :   -10.1953625 Eh     change       -0.7787657E-03 Eh
   gradient norm :     0.0395823 Eh/α   predicted    -0.4314004E-03 ( -44.60%)
   displ. norm   :     0.3416609 α      lambda       -0.4338515E-02
   maximum displ.:     0.2684194 α      in ANC's #1, #6, #2, ...

........................................................................
.............................. CYCLE   30 ..............................
........................................................................
   1    -10.3920677 -0.103921E+02  0.136E+00    1.11       0.0  T
   2    -10.3887722  0.329546E-02  0.997E-01    1.07       1.0  T
   3    -10.3590436  0.297286E-01  0.180E+00    1.17       1.0  T
   4    -10.3723377 -0.132941E-01  0.135E+00    1.08       1.0  T
   5    -10.3918786 -0.195410E-01  0.317E-01    1.10       1.0  T
   6    -10.3927898 -0.911219E-03  0.984E-02    1.08       1.0  T
   7    -10.3928669 -0.770463E-04  0.423E-02    1.08       1.1  T
   8    -10.3928692 -0.226651E-05  0.246E-02    1.08       1.8  T
   9    -10.3928716 -0.246657E-05  0.232E-03    1.08      19.2  T
  10    -10.3928716 -0.113860E-07  0.480E-04    1.08      93.2  T
  11    -10.3928716 -0.660805E-10  0.163E-04    1.08     273.9  T
     SCC iter.                  ...        0 min,  0.001 sec
     gradient                   ...        0 min,  0.001 sec
 * total energy  :   -10.1981876 Eh     change       -0.2825108E-02 Eh
   gradient norm :     0.0177777 Eh/α   predicted    -0.2422488E-02 ( -14.25%)
   displ. norm   :     0.1386959 α      lambda       -0.9042260E-03
   maximum displ.:     0.1111301 α      in ANC's #1, #4, #6, ...

........................................................................
.............................. CYCLE   31 ..............................
........................................................................
   1    -10.3863804 -0.103864E+02  0.471E-01    1.04       0.0  T
   2    -10.3861179  0.262438E-03  0.339E-01    1.04       1.0  T
   3    -10.3817770  0.434096E-02  0.654E-01    1.02       1.0  T
   4    -10.3829909 -0.121391E-02  0.526E-01    1.05       1.0  T
   5    -10.3864306 -0.343969E-02  0.497E-02    1.04       1.0  T
   6    -10.3864429 -0.123395E-04  0.166E-02    1.03       2.7  T
   7    -10.3864437 -0.813091E-06  0.124E-02    1.03       3.6  T
   8    -10.3864442 -0.487130E-06  0.442E-03    1.03      10.1  T
   9    -10.3864444 -0.155229E-06  0.637E-04    1.03      70.2  T
  10    -10.3864444 -0.500220E-09  0.732E-05    1.03     611.4  T
     SCC iter.                  ...        0 min,  0.001 sec
     gradient                   ...        0 min,  0.001 sec
 * total energy  :   -10.1986326 Eh     change       -0.4449421E-03 Eh
   gradient norm :     0.0147302 Eh/α   predicted    -0.4608114E-03 (   3.57%)
   displ. norm   :     0.0551627 α      lambda       -0.3588761E-03
   maximum displ.:     0.0397437 α      in ANC's #2, #1, #7, ...

........................................................................
.............................. CYCLE   32 ..............................
........................................................................
   1    -10.3875041 -0.103875E+02  0.267E-01    1.08       0.0  T
   2    -10.3865035  0.100061E-02  0.328E-01    1.10       1.0  T
   3    -10.3858691  0.634320E-03  0.387E-01    1.08       1.0  T
   4    -10.3873065 -0.143733E-02  0.189E-01    1.09       1.0  T
   5    -10.3875687 -0.262251E-03  0.493E-02    1.09       1.0  T
   6    -10.3875849 -0.161751E-04  0.124E-02    1.09       3.6  T
   7    -10.3875853 -0.430108E-06  0.810E-03    1.09       5.5  T
   8    -10.3875855 -0.156851E-06  0.221E-03    1.09      20.3  T
   9    -10.3875855 -0.523153E-07  0.508E-04    1.09      88.1  T
  10    -10.3875855 -0.844453E-09  0.387E-05    1.09    1155.8  T
     SCC iter.                  ...        0 min,  0.001 sec
     gradient                   ...        0 min,  0.001 sec
 * total energy  :   -10.1989058 Eh     change       -0.2732543E-03 Eh
   gradient norm :     0.0106833 Eh/α   predicted    -0.1799833E-03 ( -34.13%)
   displ. norm   :     0.0669043 α      lambda       -0.4460680E-03
   maximum displ.:     0.0472320 α      in ANC's #2, #7, #8, ...

........................................................................
.............................. CYCLE   33 ..............................
........................................................................
   1    -10.3841624 -0.103842E+02  0.358E-01    1.13       0.0  T
   2    -10.3797773  0.438514E-02  0.658E-01    1.16       1.0  T
   3    -10.3836672 -0.388996E-02  0.296E-01    1.14       1.0  T
   4    -10.3838304 -0.163174E-03  0.271E-01    1.14       1.0  T
   5    -10.3844075 -0.577127E-03  0.748E-02    1.14       1.0  T
   6    -10.3844422 -0.346757E-04  0.244E-02    1.14       1.8  T
   7    -10.3844463 -0.403884E-05  0.104E-02    1.14       4.3  T
   8    -10.3844464 -0.989678E-07  0.214E-03    1.14      20.9  T
   9    -10.3844464 -0.421929E-07  0.631E-04    1.14      70.8  T
  10    -10.3844464 -0.156635E-08  0.730E-05    1.14     612.5  T
     SCC iter.                  ...        0 min,  0.001 sec
     gradient                   ...        0 min,  0.001 sec
 * total energy  :   -10.1990807 Eh     change       -0.1748483E-03 Eh
   gradient norm :     0.0110107 Eh/α   predicted    -0.2240342E-03 (  28.13%)
   displ. norm   :     0.0182166 α      lambda       -0.9631396E-04
   maximum displ.:     0.0156006 α      in ANC's #2, #5, #4, ...

........................................................................
.............................. CYCLE   34 ..............................
........................................................................
   1    -10.3854055 -0.103854E+02  0.119E-01    1.15       0.0  T
   2    -10.3853771  0.283748E-04  0.864E-02    1.15       1.0  T
   3    -10.3848547  0.522404E-03  0.208E-01    1.15       1.0  T
   4    -10.3853543 -0.499562E-03  0.801E-02    1.15       1.0  T
   5    -10.3854082 -0.539031E-04  0.115E-02    1.15       3.9  T
   6    -10.3854086 -0.488250E-06  0.662E-03    1.15       6.8  T
   7    -10.3854089 -0.244241E-06  0.152E-03    1.15      29.5  T
   8    -10.3854089 -0.918834E-08  0.452E-04    1.15      98.9  T
   9    -10.3854089 -0.180353E-08  0.170E-04    1.15     262.4  T
     SCC iter.                  ...        0 min,  0.001 sec
     gradient                   ...        0 min,  0.001 sec
 * total energy  :   -10.1991365 Eh     change       -0.5582207E-04 Eh
   gradient norm :     0.0049496 Eh/α   predicted    -0.4817164E-04 ( -13.71%)
   displ. norm   :     0.0100660 α      lambda       -0.3041752E-04
   maximum displ.:     0.0056956 α      in ANC's #3, #6, #5, ...

........................................................................
.............................. CYCLE   35 ..............................
........................................................................
   1    -10.3855970 -0.103856E+02  0.659E-02    1.15       0.0  T
   2    -10.3855538  0.432076E-04  0.728E-02    1.14       1.0  T
   3    -10.3855083  0.454700E-04  0.901E-02    1.15       1.0  T
   4    -10.3855694 -0.610183E-04  0.554E-02    1.15       1.0  T
   5    -10.3856000 -0.306274E-04  0.731E-03    1.14       6.1  T
   6    -10.3856004 -0.402327E-06  0.233E-03    1.14      19.2  T
   7    -10.3856004 -0.394476E-08  0.124E-03    1.14      36.2  T
   8    -10.3856004 -0.432809E-08  0.266E-04    1.14     168.3  T
   9    -10.3856004 -0.414625E-09  0.784E-05    1.14     570.4  T
     SCC iter.                  ...        0 min,  0.001 sec
     gradient                   ...        0 min,  0.001 sec
 * total energy  :   -10.1991567 Eh     change       -0.2016965E-04 Eh
   gradient norm :     0.0022717 Eh/α   predicted    -0.1521179E-04 ( -24.58%)
   displ. norm   :     0.0082223 α      lambda       -0.1180125E-04
   maximum displ.:     0.0039518 α      in ANC's #2, #6, #7, ...

........................................................................
.............................. CYCLE   36 ..............................
........................................................................
   1    -10.3851519 -0.103852E+02  0.472E-02    1.14       0.0  T
   2    -10.3851464  0.547466E-05  0.420E-02    1.14       1.1  T
   3    -10.3851449  0.151188E-05  0.356E-02    1.14       1.3  T
   4    -10.3851118  0.330685E-04  0.575E-02    1.14       1.0  T
   5    -10.3851534 -0.415425E-04  0.497E-03    1.14       9.0  T
   6    -10.3851535 -0.169000E-06  0.203E-03    1.14      22.1  T
   7    -10.3851535  0.947558E-08  0.157E-03    1.14      28.4  T
   8    -10.3851535 -0.169652E-07  0.155E-04    1.14     289.0  T
   9    -10.3851535 -0.130667E-09  0.777E-05    1.14     575.4  T
     SCC iter.                  ...        0 min,  0.001 sec
     gradient                   ...        0 min,  0.001 sec
 * total energy  :   -10.1991636 Eh     change       -0.6898635E-05 Eh
   gradient norm :     0.0010694 Eh/α   predicted    -0.5903192E-05 ( -14.43%)
   displ. norm   :     0.0036533 α      lambda       -0.1540001E-05
   maximum displ.:     0.0027279 α      in ANC's #3, #7, #6, ...

........................................................................
.............................. CYCLE   37 ..............................
........................................................................
   1    -10.3849242 -0.103849E+02  0.207E-02    1.14       0.0  T
   2    -10.3849199  0.429847E-05  0.246E-02    1.14       1.8  T
   3    -10.3849197  0.201157E-06  0.225E-02    1.14       2.0  T
   4    -10.3849198 -0.990195E-07  0.215E-02    1.14       2.1  T
   5    -10.3849246 -0.480218E-05  0.289E-03    1.14      15.5  T
   6    -10.3849246 -0.637547E-07  0.889E-04    1.14      50.3  T
   7    -10.3849246  0.239231E-08  0.764E-04    1.14      58.5  T
     SCC iter.                  ...        0 min,  0.001 sec
     gradient                   ...        0 min,  0.001 sec
 * total energy  :   -10.1991648 Eh     change       -0.1200388E-05 Eh
   gradient norm :     0.0010468 Eh/α   predicted    -0.7693239E-06 ( -35.91%)
   displ. norm   :     0.0007906 α      lambda       -0.3153232E-06
   maximum displ.:     0.0004921 α      in ANC's #6, #8, #5, ...

........................................................................
.............................. CYCLE   38 ..............................
........................................................................
   1    -10.3849954 -0.103850E+02  0.523E-03    1.14       0.0  T
   2    -10.3849941  0.127477E-05  0.108E-02    1.14       4.2  T
   3    -10.3849953 -0.124930E-05  0.377E-03    1.14      11.9  T
   4    -10.3849954 -0.811416E-07  0.213E-03    1.14      21.0  T
   5    -10.3849954 -0.135071E-08  0.131E-03    1.14      34.1  T
   6    -10.3849954 -0.152527E-07  0.396E-04    1.14     112.8  T
   7    -10.3849954 -0.102963E-08  0.282E-04    1.14     158.7  T
     SCC iter.                  ...        0 min,  0.001 sec
     gradient                   ...        0 min,  0.001 sec
 * total energy  :   -10.1991651 Eh     change       -0.3363657E-06 Eh
   gradient norm :     0.0007061 Eh/α   predicted    -0.1569456E-06 ( -53.34%)
   displ. norm   :     0.0017732 α      lambda       -0.3410694E-06
   maximum displ.:     0.0012781 α      in ANC's #1, #8, #6, ...

   *** GEOMETRY OPTIMIZATION CONVERGED AFTER 38 ITERATIONS ***

------------------------------------------------------------------------
 total energy gain   :        -0.3101250 Eh     -194.6064 kcal/mol
 total RMSD          :         1.6154759 a0        0.8549 Å
 total power (kW/mol):       -21.4271842 (step)-5241.0166 (real)
------------------------------------------------------------------------

 ANCopt (total)                0 d,  0 h,  0 min,  0.155 sec
 optimizer setup                ...        0 min,  0.000 sec (  0.042%)
 model hessian                  ...        0 min,  0.000 sec (  0.094%)
 ANC generation                 ...        0 min,  0.000 sec (  0.059%)
 coordinate transformation      ...        0 min,  0.000 sec (  0.053%)
 single point calculation       ...        0 min,  0.152 sec ( 97.875%)
 optimization log               ...        0 min,  0.001 sec (  0.602%)
 hessian update                 ...        0 min,  0.000 sec (  0.060%)
 rational function              ...        0 min,  0.001 sec (  0.556%)

================
 final structure:
================
5
 xtb: 6.2.2 (9d81278992624c895f80dd42a50cac0aa55982e2)
C        -0.77388074534621   -1.30865447492826   -1.21877404992343
C        -0.22017718974057   -0.48243368413335   -0.42772719462528
C         0.09639929323200   -0.17504762248753    0.98880511161336
C         0.35927692455693    1.17659513664614    0.98374064962723
C         0.53838171729783    0.78954164490300   -0.32604451669189

 Bond Distances (Angstroems)
 ---------------------------
C1-C2=1.2708         C2-C1=1.2708         C2-C3=1.4837         C2-C5=1.4845         C3-C2=1.4837         C3-C4=1.3770         
C3-C5=1.6896         C4-C3=1.3770         C4-C5=1.3775         C5-C2=1.4845         C5-C3=1.6896         C5-C4=1.3775         
 C  C  Rav=1.4472 sigma=0.1306  Rmin=1.2708  Rmax=1.6896     6

 selected bond angles (degree)
 --------------------
C3-C2-C1=145.28                C5-C2-C1=145.32                C5-C2-C3= 69.39                C4-C3-C2=103.92                
C5-C3-C2= 55.33                C5-C3-C4= 52.18                C5-C4-C3= 75.67                C3-C5-C2= 55.28                
C4-C5-C2=103.85                C4-C5-C3= 52.15                

 selected dihedral angles (degree)
 ---------------------------------
C4-C3-C2-C1=199.43            C4-C3-C2-C5= 20.00            C5-C3-C2-C1=179.43            C5-C4-C3-C2=339.14            
C3-C5-C2-C1=180.57            C4-C5-C2-C1=160.58            C4-C5-C2-C3=340.01            C2-C5-C3-C4=204.86            
C4-C5-C3-C2=155.14            C2-C5-C4-C3= 20.85            
           -------------------------------------------------
          |                Final Singlepoint                |
           -------------------------------------------------

          ...................................................
          :                      SETUP                      :
          :.................................................:
          :  # basis functions                  20          :
          :  # atomic orbitals                  20          :
          :  # shells                           10          :
          :  # electrons                        20          :
          :  max. iterations                   250          :
          :  Hamiltonian                  GFN2-xTB          :
          :  restarted?                      false          :
          :  GBSA solvation                  false          :
          :  PC potential                    false          :
          :  electronic temp.          300.0000000     K    :
          :  accuracy                    1.0000000          :
          :  -> integral cutoff          0.2500000E+02      :
          :  -> integral neglect         0.1000000E-07      :
          :  -> SCF convergence          0.1000000E-05 Eh   :
          :  -> wf. convergence          0.1000000E-03 e    :
          :  Broyden damping             0.4000000          :
          ...................................................

 iter      E             dE          RMSdq      gap      omega  full diag
   1    -10.3849954 -0.103850E+02  0.839E-05    1.14       0.0  T
   2    -10.3849954  0.343050E-10  0.812E-05    1.14     550.5  T
   3    -10.3849954  0.132788E-09  0.112E-04    1.14     398.3  T

   *** convergence criteria satisfied after 3 iterations ***

         #    Occupation            Energy/Eh            Energy/eV
      -------------------------------------------------------------
         1        2.0000           -0.7380976             -20.0847
       ...           ...                  ...                  ...
         5        2.0000           -0.5552722             -15.1097
         6        2.0000           -0.5456859             -14.8489
         7        2.0000           -0.4740431             -12.8994
         8        2.0000           -0.4628531             -12.5949
         9        2.0000           -0.4559654             -12.4075
        10        1.0000           -0.4206183             -11.4456
        11        1.0000           -0.4056035             -11.0370 (HOMO)
        12                         -0.3636691              -9.8959 (LUMO)
        13                         -0.3038053              -8.2670
        14                         -0.2625741              -7.1450
        15                         -0.1835633              -4.9950
        16                          0.0800397               2.1780
       ...                                ...                  ...
        20                          0.8348944              22.7186
      -------------------------------------------------------------
                  HL-Gap            0.0419343 Eh            1.1411 eV
             Fermi-level           -0.4114639 Eh          -11.1965 eV

 transition dipole moment (au) for excitation:          10          11
     X       Y       Z   
   0.0233   0.0501  -0.0675  total (au/Debye):    0.087   0.222
 dE (eV)             :    0.409
 oscillator strength :  0.10758E-03

 SCC (total)                   0 d,  0 h,  0 min,  0.004 sec
 SCC setup                      ...        0 min,  0.000 sec (  1.069%)
 Dispersion                     ...        0 min,  0.000 sec (  0.383%)
 integral evaluation            ...        0 min,  0.001 sec ( 32.527%)
 zeroth order Hamiltonian       ...        0 min,  0.000 sec (  0.422%)
 iterations                     ...        0 min,  0.000 sec (  8.925%)
 molecular gradient             ...        0 min,  0.001 sec ( 34.311%)
 printout                       ...        0 min,  0.001 sec ( 22.161%)

         :::::::::::::::::::::::::::::::::::::::::::::::::::::
         ::                     SUMMARY                     ::
         :::::::::::::::::::::::::::::::::::::::::::::::::::::
         :: total energy             -10.199165118191 Eh    ::
         :: gradient norm              0.000718623822 Eh/a0 ::
         :: HOMO-LUMO gap              1.141091063550 eV    ::
         ::.................................................::
         :: SCC energy               -10.384995432309 Eh    ::
         :: -> isotropic ES           -0.011411568518 Eh    ::
         :: -> anisotropic ES          0.001533447298 Eh    ::
         :: -> anisotropic XC          0.007525063924 Eh    ::
         :: -> dispersion             -0.002948208105 Eh    ::
         :: repulsion energy           0.185830319526 Eh    ::
         :: add. restraining           0.000000000000 Eh    ::
         :::::::::::::::::::::::::::::::::::::::::::::::::::::

           ------------------------------------------------- 
          |                Numerical Hessian                |
           ------------------------------------------------- 
step length          :   0.00500
SCC accuracy         :   0.30000
Hessian scale factor :   1.00000
frozen atoms in %    :   0.00000    0
RMS gradient         :   0.00072
estimated CPU  time      0.00 min
estimated wall time      0.00 min

writing file <hessian>.

 projected vibrational frequencies (cm-1)
eigval :       -0.00    -0.00    -0.00    -0.00     0.00     0.00
eigval :      224.77   300.57   441.81   540.35   557.34   936.09
eigval :      978.33  1485.37  1712.03
           -------------------------------------------------
          |                Property Printout                |
           -------------------------------------------------

    * Orbital Energies and Occupations

         #    Occupation            Energy/Eh            Energy/eV
      -------------------------------------------------------------
         1        2.0000           -0.7380977             -20.0847
         2        2.0000           -0.6789978             -18.4765
         3        2.0000           -0.6191473             -16.8479
         4        2.0000           -0.6159940             -16.7620
         5        2.0000           -0.5552722             -15.1097
         6        2.0000           -0.5456859             -14.8489
         7        2.0000           -0.4740431             -12.8994
         8        2.0000           -0.4628531             -12.5949
         9        2.0000           -0.4559655             -12.4075
        10        1.0000           -0.4206183             -11.4456
        11        1.0000           -0.4056035             -11.0370 (HOMO)
        12                         -0.3636692              -9.8959 (LUMO)
        13                         -0.3038053              -8.2670
        14                         -0.2625741              -7.1450
        15                         -0.1835633              -4.9950
        16                          0.0800397               2.1780
        17                          0.1388581               3.7785
        18                          0.1829353               4.9779
        19                          0.4230374              11.5114
        20                          0.8348944              22.7186
      -------------------------------------------------------------
                  HL-Gap            0.0419343 Eh            1.1411 eV
             Fermi-level           -0.4114639 Eh          -11.1965 eV

     #   Z        covCN         q      C6AA      α(0)
     1   6 C      0.982    -0.107    39.333    10.534
     2   6 C      3.024     0.105    25.660     8.309
     3   6 C      2.891     0.004    27.925     8.664
     4   6 C      2.048    -0.006    31.142     9.014
     5   6 C      2.891     0.004    27.935     8.665
Molecule has the following symmetry elements: (sigma) 
It seems to be the Cs point group

 Mol. C6AA /au·bohr⁶  :        755.392482
 Mol. C8AA /au·bohr⁸  :      21847.263267
 Mol. α(0) /au        :         45.186323


Wiberg/Mayer (AO) data.
largest (>0.10) Wiberg bond orders for each atom
          total WBO             WBO to atom ...
     1  C   2.463        C    2 2.027    C    4 0.254
     2  C   3.815        C    1 2.027    C    3 0.858    C    5 0.857
     3  C   3.048        C    4 1.317    C    2 0.858    C    5 0.781
     4  C   2.959        C    3 1.317    C    5 1.316    C    1 0.254
     5  C   3.045        C    4 1.316    C    2 0.857    C    3 0.781

MOs/occ written to file <molden.input>


molecular dipole:
                 x           y           z       tot (Debye)
 q only:        0.114       0.160       0.156
   full:        0.207       0.259       0.261       1.073
molecular quadrupole (traceless):
                xx          xy          yy          xz          yz          zz
 q only:        0.336      -0.526      -0.232      -0.500      -0.845      -0.105
  q+dip:        1.350      -1.071      -0.653      -0.351      -0.884      -0.696
   full:        3.079      -2.213      -1.632      -0.743      -2.282      -1.447

           -------------------------------------------------
          |                Geometry Summary                 |
           -------------------------------------------------

      molecular mass/u    :       60.0536795
   center of mass at/Å    :        0.0000000       0.0000002      -0.0000000
  moments of inertia/u·Å² :        0.1830296E+02   0.8830474E+02   0.1042878E+03
rotational constants/cm⁻¹ :        0.9210333E+00   0.1909029E+00   0.1616453E+00

 * 2 selected distances

     #   Z        #   Z                                     value/Å
     1   6 C      2   6 C                                 1.2708200 (min)
     3   6 C      4   6 C                                 1.3769780 (max)

 * 1 distinct bonds (by element types)

   Z      Z             #   av. dist./Å        max./Å        min./Å
   6 C    6 C           2     1.3238990     1.3769780     1.2708200

           -------------------------------------------------
          |               Frequency Printout                |
           -------------------------------------------------
 projected vibrational frequencies (cm-1)
eigval :       -0.00    -0.00    -0.00    -0.00     0.00     0.00
eigval :      224.77   300.57   441.81   540.35   557.34   936.09
eigval :      978.33  1485.37  1712.03
 reduced masses (amu)
   1: 12.01   2: 12.01   3: 12.01   4: 12.01   5: 12.01   6: 12.01   7: 12.01   8: 12.01
   9: 12.01  10: 12.01  11: 12.01  12: 12.01  13: 12.01  14: 12.01  15: 12.01
 IR intensities (amu)
   1:  0.04   2:  0.05   3:  0.07   4:  0.03   5:  0.05   6:  0.05   7:  0.32   8:  0.20
   9:  0.13  10:  0.26  11:  1.02  12:  1.29  13:  0.52  14:  0.52  15:  1.29
 Raman intensities (amu)
   1:  0.00   2:  0.00   3:  0.00   4:  0.00   5:  0.00   6:  0.00   7:  0.00   8:  0.00
   9:  0.00  10:  0.00  11:  0.00  12:  0.00  13:  0.00  14:  0.00  15:  0.00
 output can be read by thermo (or use thermo option).
 writing <g98.out> molden fake output.
 recommended (thermochemical) frequency scaling factor: 1.0
           -------------------------------------------------
          |             Thermodynamic Functions             |
           -------------------------------------------------

cs  symmetry found (for desy threshold:  0.10E+00) used in thermo

          ...................................................
          :                      SETUP                      :
          :.................................................:
          :  # frequencies                           9      :
          :  # imaginary freq.                       0      :
          :  linear?                             false      :
          :  only rotor calc.                    false      :
          :  symmetry                               cs      :
          :  rotational number                       1      :
          :  scaling factor                  1.0000000      :
          :  rotor cutoff                   50.0000000 cm⁻¹ :
          :  imag. cutoff                  -20.0000000 cm⁻¹ :
          :.................................................:

    mode    ω/cm⁻¹     T·S(HO)/kcal·mol⁻¹    T·S(FR)/kcal·mol⁻¹   T·S(vib)
   ------------------------------------------------------------------------
       1    224.77    -0.00000 ( 99.76%)     0.01324 (  0.24%)     0.00003
   ------------------------------------------------------------------------

   temp. (K)  partition function   enthalpy   heat capacity  entropy
                                   cal/mol     cal/K/mol   cal/K/mol   J/K/mol
 298.15  VIB   2.65                 1059.608      8.108      5.490
         ROT  0.314E+05              888.752      2.981     23.556
         INT  0.830E+05             1948.360     11.089     29.046
         TR   0.450E+27             1481.254      4.968     38.181
         TOT                        3429.6140    16.0567    67.2263   281.2747

   temp. (K)  partition function   enthalpy   heat capacity  entropy
                                   cal/mol     cal/K/mol   cal/K/mol   J/K/mol
 120.00  VIB   1.11                   81.390      2.391      0.890
         ROT  0.801E+04              357.707      2.981     20.843
         INT  0.890E+04              439.097      5.372     21.732
         TR   0.115E+27              596.178      4.968     33.661
         TOT                        1035.2748    10.3401    55.3938   231.7679

   temp. (K)  partition function   enthalpy   heat capacity  entropy
                                   cal/mol     cal/K/mol   cal/K/mol   J/K/mol
 100.00  VIB   1.06                   41.268      1.626      0.526
         ROT  0.609E+04              298.089      2.981     20.299
         INT  0.644E+04              339.357      4.607     20.825
         TR   0.875E+26              496.815      4.968     32.756
         TOT                         836.1717     9.5751    53.5813   224.1840

   temp. (K)  partition function   enthalpy   heat capacity  entropy
                                   cal/mol     cal/K/mol   cal/K/mol   J/K/mol
  80.00  VIB   1.02                   15.972      0.918      0.246
         ROT  0.436E+04              238.471      2.981     19.634
         INT  0.446E+04              254.443      3.899     19.881
         TR   0.626E+26              397.452      4.968     31.648
         TOT                         651.8949     8.8675    51.5284   215.5950

   temp. (K)  partition function   enthalpy   heat capacity  entropy
                                   cal/mol     cal/K/mol   cal/K/mol   J/K/mol
  60.00  VIB   1.01                    3.621      0.349      0.072
         ROT  0.283E+04              178.853      2.981     18.777
         INT  0.285E+04              182.474      3.330     18.849
         TR   0.406E+26              298.089      4.968     30.219
         TOT                         480.5630     8.2984    49.0679   205.3002

   temp. (K)  partition function   enthalpy   heat capacity  entropy
                                   cal/mol     cal/K/mol   cal/K/mol   J/K/mol
  40.00  VIB   1.00                    0.216      0.045      0.006
         ROT  0.154E+04              119.236      2.981     17.568
         INT  0.154E+04              119.451      3.026     17.574
         TR   0.221E+26              198.726      4.968     28.206
         TOT                         318.1772     7.9938    45.7796   191.5420

   temp. (K)  partition function   enthalpy   heat capacity  entropy
                                   cal/mol     cal/K/mol   cal/K/mol   J/K/mol
  20.00  VIB   1.00                    0.000      0.000     -0.003
         ROT   545.                   59.618      2.981     15.502
         INT   545.                   59.618      2.981     15.499
         TR   0.782E+25               99.363      4.968     24.764
         TOT                         158.9809     7.9491    40.2630   168.4605

   temp. (K)  partition function   enthalpy   heat capacity  entropy
                                   cal/mol     cal/K/mol   cal/K/mol   J/K/mol
  10.00  VIB   1.00                    0.000      0.000     -0.005
         ROT   193.                   29.809      2.981     13.436
         INT   193.                   29.809      2.981     13.430
         TR   0.277E+25               49.681      4.968     21.322
         TOT                          79.4904     7.9490    34.7524   145.4041

       T/K    H(0)-H(T)+PV         H(T)/Eh          T*S/Eh         G(T)/Eh
   ------------------------------------------------------------------------
    298.15    0.546544E-02    0.218151E-01    0.319414E-01   -0.101263E-01
    120.00    0.164982E-02    0.179994E-01    0.105931E-01    0.740635E-02
    100.00    0.133252E-02    0.176821E-01    0.853872E-02    0.914343E-02
     80.00    0.103886E-02    0.173885E-01    0.656926E-02    0.108192E-01
     60.00    0.765826E-03    0.171155E-01    0.469168E-02    0.124238E-01
     40.00    0.507048E-03    0.168567E-01    0.291818E-02    0.139385E-01
     20.00    0.253352E-03    0.166030E-01    0.128326E-02    0.153197E-01
     10.00    0.126676E-03    0.164763E-01    0.553815E-03    0.159225E-01 (used)
   ------------------------------------------------------------------------

         :::::::::::::::::::::::::::::::::::::::::::::::::::::
         ::                  THERMODYNAMIC                  ::
         :::::::::::::::::::::::::::::::::::::::::::::::::::::
         :: total free energy         -10.183242632558 Eh   ::
         ::.................................................::
         :: total energy              -10.199165118057 Eh   ::
         :: zero point energy           0.016349624391 Eh   ::
         :: G(RRHO) w/o ZPVE           -0.000427138893 Eh   ::
         :: G(RRHO) contrib.            0.015922485499 Eh   ::
         :::::::::::::::::::::::::::::::::::::::::::::::::::::

optimized geometry written to: xtbopt.xyz


           -------------------------------------------------
          | TOTAL ENERGY              -10.199165118057 Eh   |
          | TOTAL ENTHALPY            -10.182688817650 Eh   |
          | TOTAL FREE ENERGY         -10.183242632558 Eh   |
          | GRADIENT NORM               0.000718567067 Eh/α |
          | HOMO-LUMO GAP               1.141091353609 eV   |
           -------------------------------------------------

------------------------------------------------------------------------
 * finished run on 2020/05/12 at 11:44:30.911     
------------------------------------------------------------------------
 total:
 * wall-time:     0 d,  0 h,  0 min,  0.297 sec
 *  cpu-time:     0 d,  0 h,  0 min,  0.296 sec
 * ratio c/w:     0.997 speedup
 SCF:
 * wall-time:     0 d,  0 h,  0 min,  0.006 sec
 *  cpu-time:     0 d,  0 h,  0 min,  0.006 sec
 * ratio c/w:     0.998 speedup
 ANC optimizer:
 * wall-time:     0 d,  0 h,  0 min,  0.160 sec
 *  cpu-time:     0 d,  0 h,  0 min,  0.160 sec
 * ratio c/w:     0.998 speedup
 numerical hessian:
 * wall-time:     0 d,  0 h,  0 min,  0.111 sec
 *  cpu-time:     0 d,  0 h,  0 min,  0.111 sec
 * ratio c/w:     0.995 speedup

