$hessian                                                                        
        0.1386436585   0.1875185612   0.1789087365  -0.1299741757  -0.1454028003
       -0.1448066242  -0.0015799526  -0.0198867249  -0.0091380646  -0.0055174707
       -0.0044670361  -0.0057775071  -0.0015720594  -0.0177619999  -0.0191865405
        0.1875185612   0.2862480896   0.2617530145  -0.1605970721  -0.2363437078
       -0.2152604394  -0.0072647533  -0.0261086822  -0.0169369221  -0.0091364953
        0.0049632149  -0.0007018651  -0.0105202405  -0.0287589145  -0.0288537878
        0.1789087365   0.2617530145   0.2665978849  -0.1559232186  -0.2101985861
       -0.2222886728  -0.0114173755  -0.0330456202  -0.0231068405  -0.0091748307
        0.0008691379  -0.0007023210  -0.0023933116  -0.0193779461  -0.0205000506
       -0.1299741757  -0.1605970721  -0.1559232186   0.2155554278   0.2181510907
        0.2077207770  -0.0361776441   0.0112163069  -0.0636752297   0.0219535756
       -0.0090205072  -0.0006245356  -0.0713571835  -0.0597498184   0.0125022069
       -0.1454028003  -0.2363437078  -0.2101985861   0.2181510907   0.3558866213
        0.2803849167  -0.0094497913   0.0211081969  -0.0753040464   0.0056130151
       -0.0448532488  -0.0341626759  -0.0689115142  -0.0957978617   0.0392803917
       -0.1448066242  -0.2152604394  -0.2222886728   0.2077207770   0.2803849167
        0.3493138043  -0.0253861417   0.0201416937  -0.1293759163   0.0098481653
       -0.0392376387  -0.0210091092  -0.0473761764  -0.0460285322   0.0233598940
       -0.0015799526  -0.0072647533  -0.0114173755  -0.0361776441  -0.0094497913
       -0.0253861417   0.0490255651   0.0840902849   0.0138166781  -0.0282128954
       -0.0646990808  -0.0249271844   0.0169449270  -0.0026766594   0.0479140235
       -0.0198867249  -0.0261086822  -0.0330456202   0.0112163069   0.0211081969
        0.0201416937   0.0840902849   0.3481940950  -0.0259350763  -0.0538978175
       -0.3413300022  -0.0951187417  -0.0215220493  -0.0018636074   0.1339577445
       -0.0091380646  -0.0169369221  -0.0231068405  -0.0636752297  -0.0753040464
       -0.1293759163   0.0138166781  -0.0259350763   0.2094302890   0.0015298506
        0.0188756968   0.0061158984   0.0574667656   0.0993003481  -0.0630634305
       -0.0055174707  -0.0091364953  -0.0091748307   0.0219535756   0.0056130151
        0.0098481653  -0.0282128954  -0.0538978175   0.0015298506   0.0307751815
        0.0490001016  -0.0112406261  -0.0189983910   0.0084211962   0.0090374409
       -0.0044670361   0.0049632149   0.0008691379  -0.0090205072  -0.0448532488
       -0.0392376387  -0.0646990808  -0.3413300022   0.0188756968   0.0490001016
        0.4252023496   0.2024934725   0.0291865225  -0.0439823135  -0.1830006684
       -0.0057775071  -0.0007018651  -0.0007023210  -0.0006245356  -0.0341626759
       -0.0210091092  -0.0249271844  -0.0951187417   0.0061158984  -0.0112406261
        0.2024934725   0.3150924601   0.0425698531  -0.0725101898  -0.2994969283
       -0.0015720594  -0.0105202405  -0.0023933116  -0.0713571835  -0.0689115142
       -0.0473761764   0.0169449270  -0.0215220493   0.0574667656  -0.0189983910
        0.0291865225   0.0425698531   0.0749827069   0.0717672816  -0.0502671307
       -0.0177619999  -0.0287589145  -0.0193779461  -0.0597498184  -0.0957978617
       -0.0460285322  -0.0026766594  -0.0018636074   0.0993003481   0.0084211962
       -0.0439823135  -0.0725101898   0.0717672816   0.1704026971   0.0386163200
       -0.0191865405  -0.0288537878  -0.0205000506   0.0125022069   0.0392803917
        0.0233598940   0.0479140235   0.1339577445  -0.0630634305   0.0090374409
       -0.1830006684  -0.2994969283  -0.0502671307   0.0386163200   0.3597005153
