5
 energy: -9.889040146766 gnorm: 0.122680815215 xtb: 6.2.2 (9d81278992624c895f80dd42a50cac0aa55982e2)
C        -0.83337700000000   -0.84671500000000   -0.93848400000000
C         0.00000000000000    0.00000000000000    0.00000000000000
C         0.48681000000000   -0.85346700000000    1.15187000000000
C        -0.84276400000000    1.13785800000000    0.53593300000000
C         1.18933100000000    0.56232500000000   -0.74931900000000
5
 energy: -9.911558410708 gnorm: 0.046781842749 xtb: 6.2.2 (9d81278992624c895f80dd42a50cac0aa55982e2)
C        -0.79582602070643   -0.80856365617762   -0.89619647704001
C         0.00000000353461   -0.00000042998332   -0.00000035413884
C         0.46487430286827   -0.81501103502748    1.09996782355695
C        -0.80478869433431    1.08658764492603    0.51178396955612
C         1.13574040863785    0.53698847626239   -0.71555496193422
5
 energy: -9.914125623187 gnorm: 0.016229701718 xtb: 6.2.2 (9d81278992624c895f80dd42a50cac0aa55982e2)
C        -0.77324140244056   -0.78562490791698   -0.87075510729460
C         0.00000008009326   -0.00000719032771   -0.00000521811032
C         0.45167271794951   -0.79188245918360    1.06874617922466
C        -0.78193024068418    1.05575125257833    0.49725274944183
C         1.10349884508198    0.52176430484996   -0.69523860326156
5
 energy: -9.914416427631 gnorm: 0.001525302122 xtb: 6.2.2 (9d81278992624c895f80dd42a50cac0aa55982e2)
C        -0.77908854520175   -0.79161204894089   -0.87727336226859
C         0.00000043098776   -0.00006608086511   -0.00004644414701
C         0.45501714076961   -0.79785790601299    1.07677877974497
C        -0.78768225541112    1.06371592741668    0.50095265431723
C         1.11175322885551    0.52582110840231   -0.70041162764661
5
 energy: -9.914435273678 gnorm: 0.006048632898 xtb: 6.2.2 (9d81278992624c895f80dd42a50cac0aa55982e2)
C        -0.77902908675107   -0.79208056463168   -0.87622352627519
C         0.00000618716225   -0.00099219521220   -0.00069606875745
C         0.45393981144756   -0.79739560617711    1.07593095087411
C        -0.78518617011029    1.06314976986726    0.50001360712186
C         1.11026925825155    0.52731959615373   -0.69902496296333
5
 energy: -9.915903521571 gnorm: 0.046950955150 xtb: 6.2.2 (9d81278992624c895f80dd42a50cac0aa55982e2)
C        -0.78690203608555   -0.80373329467410   -0.87480441041492
C         0.00007194436196   -0.01078738617320   -0.00797650665231
C         0.44793931652808   -0.79880883575341    1.07829272454620
C        -0.76782126075855    1.06643050393961    0.49591952134235
C         1.10671203595406    0.54690001266110   -0.69143132882132
5
 energy: -9.940980454290 gnorm: 0.090211341401 xtb: 6.2.2 (9d81278992624c895f80dd42a50cac0aa55982e2)
C        -0.84554665330477   -0.88359261807894   -0.85301436104281
C        -0.00316708595906   -0.06146367807406   -0.07382402247037
C         0.40898158063788   -0.79021648936114    1.07390061284077
C        -0.66742314386519    1.07547249955261    0.48297122498230
C         1.10715530249114    0.65980128596154   -0.63003345430989
5
 energy: -9.977798084762 gnorm: 0.112212771710 xtb: 6.2.2 (9d81278992624c895f80dd42a50cac0aa55982e2)
C        -0.90078934582838   -0.99925403357438   -0.79833603531397
C        -0.01896640913792   -0.11095709569784   -0.16709104911843
C         0.35669156405549   -0.78411955848038    1.02859710566449
C        -0.52791291382584    1.09883856169442    0.46016220061512
C         1.09097710473665    0.79549312605817   -0.52333222184721
5
 energy: -10.058451784120 gnorm: 0.181046478014 xtb: 6.2.2 (9d81278992624c895f80dd42a50cac0aa55982e2)
C        -0.95830790079784   -1.15659022281176   -0.72507314407461
C        -0.05734927394043   -0.21964335930659   -0.33297230544327
C         0.27756101172806   -0.74636436778512    0.96730688419879
C        -0.26553475829714    1.12605973878049    0.42239652078560
C         1.00363092130736    0.99653921112299   -0.33165795546651
5
 energy: -9.979624390687 gnorm: 0.883030049240 xtb: 6.2.2 (9d81278992624c895f80dd42a50cac0aa55982e2)
C        -1.03798728847149   -1.27217597911867   -0.69764678062724
C        -0.11029563246288   -0.34016524615218   -0.47446188241071
C         0.24564962539646   -0.67448998425092    0.93054318892223
C        -0.00694717136778    1.12143067654076    0.36902805509987
C         0.90958046690568    1.16540153298101   -0.12746258098416
5
 energy: -10.089021119226 gnorm: 0.118751769335 xtb: 6.2.2 (9d81278992624c895f80dd42a50cac0aa55982e2)
C        -1.03069747626953   -1.23849967403731   -0.70434513699054
C        -0.09934872369963   -0.31490153910445   -0.46220417268044
C         0.22885264654736   -0.64145461847818    0.94008954845013
C        -0.12214025948417    1.09070941247396    0.45043490650018
C         1.02333381290595    1.10414741914597   -0.22397514527933
5
 energy: -10.102175074796 gnorm: 0.259107487916 xtb: 6.2.2 (9d81278992624c895f80dd42a50cac0aa55982e2)
C        -1.00551563305719   -1.04909016549169   -0.79024401885778
C        -0.13806839762073   -0.33825585454662   -0.44621661956180
C         0.30872603023647   -0.45400634303566    0.96933412990235
C        -0.15526821090897    0.92281816912425    0.47931604073636
C         0.99012621135042    0.91853519394972   -0.21218953221913
5
 energy: -10.121850079884 gnorm: 0.067015704363 xtb: 6.2.2 (9d81278992624c895f80dd42a50cac0aa55982e2)
C        -1.06875851137134   -1.09103450505561   -0.85925534234382
C        -0.12973088655690   -0.32674783935928   -0.45677133915602
C         0.33616158283471   -0.38663260767791    0.96651498106493
C        -0.14773829995104    0.90997862044796    0.51576833461022
C         1.01006611504457    0.89443733164485   -0.16625663417530
5
 energy: -10.126888819571 gnorm: 0.100965770607 xtb: 6.2.2 (9d81278992624c895f80dd42a50cac0aa55982e2)
C        -1.04923797238695   -1.12954872131773   -0.91233047031373
C        -0.17260125939066   -0.28899069643603   -0.38845977438945
C         0.44284729720331   -0.44362033878341    0.92029075976345
C        -0.21496705263082    1.04096050619702    0.50493039660346
C         0.99395898720512    0.82120025034014   -0.12443091166373
5
 energy: -10.134574599302 gnorm: 0.070744887248 xtb: 6.2.2 (9d81278992624c895f80dd42a50cac0aa55982e2)
C        -1.04377878189300   -1.12294327524426   -0.99301443049582
C        -0.23749869823485   -0.29262714728945   -0.40703191529715
C         0.51334551662404   -0.33905154442290    0.89870765034502
C        -0.22388375957147    1.03783256226328    0.56769441607860
C         0.99181572307528    0.71679040469332   -0.06635572063065
5
 energy: -10.136691568605 gnorm: 0.036095917410 xtb: 6.2.2 (9d81278992624c895f80dd42a50cac0aa55982e2)
C        -1.03938901058351   -1.10000100810686   -0.97007959243673
C        -0.21951174410887   -0.32114349420005   -0.42553700105418
C         0.46162939426771   -0.33504804439604    0.93538443546982
C        -0.18743195230969    0.99196793109255    0.56212222055415
C         0.98470331273436    0.76422561561040   -0.10189006253306
5
 energy: -10.138136863988 gnorm: 0.021093409071 xtb: 6.2.2 (9d81278992624c895f80dd42a50cac0aa55982e2)
C        -1.03676125379285   -1.09554242511941   -0.98516932646151
C        -0.22439569783755   -0.31201393870855   -0.39921201941216
C         0.48724885400702   -0.34707721132645    0.93177463795437
C        -0.20209932517028    1.00881945424335    0.55033611889437
C         0.97600742279365    0.74581512091106   -0.09772941097507
5
 energy: -10.138760677851 gnorm: 0.017132532395 xtb: 6.2.2 (9d81278992624c895f80dd42a50cac0aa55982e2)
C        -1.02569878532593   -1.09913067013954   -1.00558259154837
C        -0.23989493528423   -0.31159521218910   -0.38541700512803
C         0.49843844591446   -0.34146628699738    0.93059904817099
C        -0.19851078662985    1.02036755584930    0.55699422914057
C         0.96566606132555    0.73182561347672   -0.09659368063516
5
 energy: -10.139437461425 gnorm: 0.016091396653 xtb: 6.2.2 (9d81278992624c895f80dd42a50cac0aa55982e2)
C        -0.99963663400105   -1.11177182745859   -1.03404017091887
C        -0.26165892452462   -0.31514105154103   -0.36341882746796
C         0.49637869733777   -0.34201744197041    0.93823654396147
C        -0.18029667300712    1.04067119523834    0.57066348206546
C         0.94521353419501    0.72826012573169   -0.11144102764010
5
 energy: -10.139988584155 gnorm: 0.016419410154 xtb: 6.2.2 (9d81278992624c895f80dd42a50cac0aa55982e2)
C        -0.96480802617282   -1.12641709262568   -1.05485178773579
C        -0.27831211997246   -0.31596955744373   -0.34924731172180
C         0.47726281387440   -0.33775237054382    0.94348607116329
C        -0.15898911792516    1.05444773520836    0.59506073547955
C         0.92484645019603    0.72569228540486   -0.13444770718525
5
 energy: -10.143994710097 gnorm: 0.069678001018 xtb: 6.2.2 (9d81278992624c895f80dd42a50cac0aa55982e2)
C        -0.81395702737890   -1.18497549824714   -1.15268325229588
C        -0.33856923417231   -0.32356975013995   -0.30285585669403
C         0.38611076681392   -0.31080538320762    0.98403489273999
C        -0.06829974792853    1.10660022867495    0.71545343193755
C         0.83471524266581    0.71275140291976   -0.24394921568763
5
 energy: -10.151899104700 gnorm: 0.060271923338 xtb: 6.2.2 (9d81278992624c895f80dd42a50cac0aa55982e2)
C        -0.81304261880255   -1.18107002335019   -1.14918298242934
C        -0.30792909451006   -0.34131795754007   -0.32277449911768
C         0.35921846074993   -0.30034189133682    0.99244352134930
C        -0.04066123742317    1.11188032277949    0.74089045583253
C         0.80241448998585    0.71085054944759   -0.26137649563481
5
 energy: -10.179439030052 gnorm: 0.154343515507 xtb: 6.2.2 (9d81278992624c895f80dd42a50cac0aa55982e2)
C        -0.82283733561050   -1.16316952758274   -1.13429007603063
C        -0.08126372766428   -0.47192413919225   -0.46737285289028
C         0.17231472835320   -0.21331442300663    1.05156672845325
C         0.15097473145103    1.14976836988051    0.92769644311205
C         0.58081160347056    0.69864071990112   -0.37760024264438
5
 energy: -10.187210665761 gnorm: 0.064120013324 xtb: 6.2.2 (9d81278992624c895f80dd42a50cac0aa55982e2)
C        -0.91213006566462   -1.17455318456896   -1.12739990183586
C        -0.00489807713545   -0.50961579829824   -0.50601425092607
C         0.17863167913151   -0.18944210175543    1.04880627534523
C         0.12139145948212    1.12771441246242    0.90465842045787
C         0.61700500418644    0.74589767216021   -0.32005054304118
5
 energy: -10.190863774121 gnorm: 0.056087398121 xtb: 6.2.2 (9d81278992624c895f80dd42a50cac0aa55982e2)
C        -0.87684478315708   -1.19290101497003   -1.12556878805323
C        -0.06989955400220   -0.48494024338488   -0.47503990531043
C         0.18119932999729   -0.23574405242193    1.02749965244400
C         0.13043674594682    1.15067578251073    0.88982193729072
C         0.63510826121518    0.76291052826612   -0.31671289637105
5
 energy: -10.191857756697 gnorm: 0.054634975009 xtb: 6.2.2 (9d81278992624c895f80dd42a50cac0aa55982e2)
C        -0.87483914759326   -1.20308336375106   -1.11899069995550
C        -0.04783373515685   -0.49797423026276   -0.49218807670099
C         0.14805917575108   -0.23409176560250    1.01995248767225
C         0.16508470943824    1.16224285646305    0.91555452360269
C         0.60952899756079    0.77290750315328   -0.32432823461845
5
 energy: -10.192991273034 gnorm: 0.044989002236 xtb: 6.2.2 (9d81278992624c895f80dd42a50cac0aa55982e2)
C        -0.86948108139127   -1.21492277892939   -1.11706455907448
C        -0.05514835156685   -0.49296486029047   -0.49007592169169
C         0.13894975179055   -0.23183466359958    1.00273474330609
C         0.17855996922902    1.16289177161468    0.92083287343904
C         0.60711971193854    0.77683153120475   -0.31642713597896
5
 energy: -10.194583771815 gnorm: 0.041354741250 xtb: 6.2.2 (9d81278992624c895f80dd42a50cac0aa55982e2)
C        -0.84881595230069   -1.24849779816342   -1.11759588549366
C        -0.08467860355875   -0.48147377641296   -0.48078062561890
C         0.11183611982443   -0.22556152560207    0.96193297127713
C         0.22284346749803    1.16563628404488    0.93868727915765
C         0.59881496853698    0.78989781613357   -0.30224373932222
5
 energy: -10.195362537560 gnorm: 0.039838723433 xtb: 6.2.2 (9d81278992624c895f80dd42a50cac0aa55982e2)
C        -0.83955302212884   -1.26102870196309   -1.12532035250497
C        -0.09814891742269   -0.48173533283991   -0.47795827221837
C         0.10018466945735   -0.21653509999999    0.95682736755118
C         0.24699975275647    1.16463523054448    0.95028213501489
C         0.59051751733772    0.79466490425852   -0.30383087784273
5
 energy: -10.198187645861 gnorm: 0.017972990639 xtb: 6.2.2 (9d81278992624c895f80dd42a50cac0aa55982e2)
C        -0.79453263721791   -1.31306468450874   -1.17819561374072
C        -0.17417915500957   -0.48479060466179   -0.45624632403666
C         0.06226564010331   -0.17324468710865    0.95697338026112
C         0.35392523273795    1.15984528679969    0.99684440778942
C         0.55252091938621    0.81125568947949   -0.31937585027316
5
 energy: -10.198632587969 gnorm: 0.015332008167 xtb: 6.2.2 (9d81278992624c895f80dd42a50cac0aa55982e2)
C        -0.77321077073460   -1.33117507983813   -1.20605274794080
C        -0.21879420935961   -0.48179013783252   -0.43785393930671
C         0.06131622809344   -0.16157400024064    0.96219834436985
C         0.38773182867449    1.16100060857546    1.00513148053416
C         0.54295692332628    0.81353960933583   -0.32342313765650
5
 energy: -10.198905842307 gnorm: 0.011175850542 xtb: 6.2.2 (9d81278992624c895f80dd42a50cac0aa55982e2)
C        -0.77603426584538   -1.32166677928241   -1.20675870304998
C        -0.21815019526576   -0.48163825116091   -0.43542313997504
C         0.07486669546727   -0.16854359793798    0.97097682798778
C         0.37142674854766    1.16418206991894    0.99499799592648
C         0.54789101709622    0.80766755846236   -0.32379298088925
5
 energy: -10.199080690606 gnorm: 0.011037971436 xtb: 6.2.2 (9d81278992624c895f80dd42a50cac0aa55982e2)
C        -0.77234617237959   -1.31179157316484   -1.21280539764249
C        -0.22404307217574   -0.48104943207331   -0.42904337496485
C         0.09087622876793   -0.17989741360059    0.98401480454471
C         0.35978043202760    1.17524188351495    0.98520110952031
C         0.54573258375980    0.79749753532378   -0.32736714145768
5
 energy: -10.199136512678 gnorm: 0.005004654121 xtb: 6.2.2 (9d81278992624c895f80dd42a50cac0aa55982e2)
C        -0.77263238812363   -1.30962548659989   -1.21620088442521
C        -0.22479657209260   -0.48066159806190   -0.42692401976811
C         0.09539179877621   -0.17658882298570    0.98674787834259
C         0.35718076392977    1.17392555574954    0.98357319559052
C         0.54485639751025    0.79295135189795   -0.32719616973978
5
 energy: -10.199156682324 gnorm: 0.002368023222 xtb: 6.2.2 (9d81278992624c895f80dd42a50cac0aa55982e2)
C        -0.77315432221633   -1.30917334994987   -1.21684557811032
C        -0.22192824920391   -0.48122499238995   -0.42751992581693
C         0.09513423593838   -0.17499214918295    0.98679403751764
C         0.35816970559843    1.17451049981243    0.98446299534157
C         0.54177862988343    0.79088099171035   -0.32689152893196
5
 energy: -10.199163580959 gnorm: 0.001134596433 xtb: 6.2.2 (9d81278992624c895f80dd42a50cac0aa55982e2)
C        -0.77331777366091   -1.30865701003242   -1.21833904399072
C        -0.22091976638777   -0.48169402141241   -0.42730480568997
C         0.09631826309507   -0.17491562725770    0.98805509369022
C         0.35862898858459    1.17609481230114    0.98408691280660
C         0.53929028836902    0.78917284640140   -0.32649815681612
5
 energy: -10.199164781347 gnorm: 0.001070694858 xtb: 6.2.2 (9d81278992624c895f80dd42a50cac0aa55982e2)
C        -0.77384736326386   -1.30864781831997   -1.21874238324027
C        -0.22008593910913   -0.48229021284097   -0.42768191489748
C         0.09644987845924   -0.17508178090808    0.98867667341182
C         0.35909955989623    1.17672311144949    0.98384700549228
C         0.53838386401753    0.78929770061953   -0.32609938076635
5
 energy: -10.199165117713 gnorm: 0.000718527629 xtb: 6.2.2 (9d81278992624c895f80dd42a50cac0aa55982e2)
C        -0.77388074534621   -1.30865447492826   -1.21877404992343
C        -0.22017718974057   -0.48243368413335   -0.42772719462528
C         0.09639929323200   -0.17504762248753    0.98880511161336
C         0.35927692455693    1.17659513664614    0.98374064962723
C         0.53838171729783    0.78954164490300   -0.32604451669189
