 Entering Gaussian System
 *********************************************
 Gaussian 98:
 frequency output generated by the xtb code
 *********************************************
                         Standard orientation:
 --------------------------------------------------------------------
  Center     Atomic     Atomic              Coordinates (Angstroms)
  Number     Number      Type              X           Y           Z
 --------------------------------------------------------------------
    1          6             0       -0.773892   -1.308653   -1.218769
    2          6             0       -0.220181   -0.482433   -0.427726
    3          6             0        0.096402   -0.175046    0.988805
    4          6             0        0.359287    1.176595    0.983737
    5          6             0        0.538385    0.789538   -0.326048
 --------------------------------------------------------------------
     1 basis functions        1 primitive gaussians
     1 alpha electrons        1 beta electrons

 Harmonic frequencies (cm**-1), IR intensities (KM/Mole),
 Raman scattering activities (A**4/amu), Raman depolarization ratios,
 reduced masses (AMU), force constants (mDyne/A) and normal coordinates:
                      1                      2                      3
                        a                      a                      a 
 Frequencies --   224.7713               300.5683               441.8143
 Red. masses --    12.0107                12.0107                12.0107
 Frc consts  --     0.0000                 0.0000                 0.0000
 IR Inten    --     0.3242                 0.1987                 0.1343
 Raman Activ --     0.0000                 0.0000                 0.0000
 Depolar     --     0.0000                 0.0000                 0.0000
 Atom AN      X      Y      Z        X      Y      Z        X      Y      Z
   1   6     0.35  -0.31  -0.11     0.16   0.34  -0.47    -0.26   0.06  -0.04
   2   6    -0.41   0.11  -0.06    -0.15  -0.32   0.44     0.58  -0.49  -0.16
   3   6    -0.26   0.15  -0.06     0.16   0.10   0.31    -0.27   0.22  -0.04
   4   6     0.60  -0.02   0.19     0.07   0.14  -0.19     0.26   0.07   0.14
   5   6    -0.29   0.08   0.04    -0.24  -0.26  -0.09    -0.31   0.13   0.09
                      4                      5                      6
                        a                      a                      a 
 Frequencies --   540.3539               557.3379               936.0892
 Red. masses --    12.0107                12.0107                12.0107
 Frc consts  --     0.0000                 0.0000                 0.0000
 IR Inten    --     0.2629                 1.0185                 1.2922
 Raman Activ --     0.0000                 0.0000                 0.0000
 Depolar     --     0.0000                 0.0000                 0.0000
 Atom AN      X      Y      Z        X      Y      Z        X      Y      Z
   1   6    -0.16  -0.20  -0.20    -0.01  -0.02   0.01    -0.01  -0.01   0.01
   2   6    -0.22  -0.19  -0.18     0.17   0.37  -0.52    -0.00   0.00  -0.01
   3   6     0.36   0.25  -0.30     0.11   0.04   0.51    -0.11  -0.53  -0.01
   4   6    -0.12   0.39   0.25     0.02   0.07  -0.06     0.17   0.37  -0.50
   5   6     0.13  -0.26   0.43    -0.28  -0.45   0.06    -0.06   0.17   0.51
                      7                      8                      9
                        a                      a                      a 
 Frequencies --   978.3259              1485.3688              1712.0259
 Red. masses --    12.0107                12.0107                12.0107
 Frc consts  --     0.0000                 0.0000                 0.0000
 IR Inten    --     0.5162                 0.5189                 1.2864
 Raman Activ --     0.0000                 0.0000                 0.0000
 Depolar     --     0.0000                 0.0000                 0.0000
 Atom AN      X      Y      Z        X      Y      Z        X      Y      Z
   1   6     0.22   0.33   0.32     0.10   0.13   0.13    -0.27  -0.40  -0.38
   2   6     0.14   0.17   0.17    -0.12  -0.11  -0.12     0.33   0.46   0.45
   3   6    -0.08  -0.04  -0.57     0.12   0.44  -0.02     0.01   0.14  -0.11
   4   6     0.01   0.03   0.02    -0.05  -0.56  -0.43     0.01  -0.16  -0.11
   5   6    -0.29  -0.49   0.06    -0.04   0.10   0.44    -0.08  -0.05   0.15
