[Molden Format]
[Title]
[Atoms] AU
C      1     6 -0.14624435142146E+01 -0.24729946823829E+01 -0.23031395274389E+01
C      2     6 -0.41608214382381E+00 -0.91166668385921E+00 -0.80828413536330E+00
C      3     6  0.18217303644900E+00 -0.33078972716622E+00  0.18685706196531E+01
C      4     6  0.67895305836089E+00  0.22234420511418E+01  0.18589939823960E+01
C      5     6  0.10173995632384E+01  0.14920109319925E+01 -0.61614093925021E+00
[GTO]
           1 0
 s           4   1.0000000000000000     
   51.049363095579913      -0.16312063210127389     
   8.7911227406887544      -0.19911024581000730     
  0.70640422258929825       0.31882047753655751     
  0.26922813413411617       0.12706504184240380     
 p           4   1.0000000000000000     
   5.8263656140800002       0.73716451545209605     
   1.5106896018720002       0.68216371614850257     
  0.53256483288000001       0.35783053929253711     
  0.21202323690600003        5.3983030275847881E-002

           2 0
 s           4   1.0000000000000000     
   51.049363095579913      -0.16312063210127389     
   8.7911227406887544      -0.19911024581000730     
  0.70640422258929825       0.31882047753655751     
  0.26922813413411617       0.12706504184240380     
 p           4   1.0000000000000000     
   5.8263656140800002       0.73716451545209605     
   1.5106896018720002       0.68216371614850257     
  0.53256483288000001       0.35783053929253711     
  0.21202323690600003        5.3983030275847881E-002

           3 0
 s           4   1.0000000000000000     
   51.049363095579913      -0.16312063210127389     
   8.7911227406887544      -0.19911024581000730     
  0.70640422258929825       0.31882047753655751     
  0.26922813413411617       0.12706504184240380     
 p           4   1.0000000000000000     
   5.8263656140800002       0.73716451545209605     
   1.5106896018720002       0.68216371614850257     
  0.53256483288000001       0.35783053929253711     
  0.21202323690600003        5.3983030275847881E-002

           4 0
 s           4   1.0000000000000000     
   51.049363095579913      -0.16312063210127389     
   8.7911227406887544      -0.19911024581000730     
  0.70640422258929825       0.31882047753655751     
  0.26922813413411617       0.12706504184240380     
 p           4   1.0000000000000000     
   5.8263656140800002       0.73716451545209605     
   1.5106896018720002       0.68216371614850257     
  0.53256483288000001       0.35783053929253711     
  0.21202323690600003        5.3983030275847881E-002

           5 0
 s           4   1.0000000000000000     
   51.049363095579913      -0.16312063210127389     
   8.7911227406887544      -0.19911024581000730     
  0.70640422258929825       0.31882047753655751     
  0.26922813413411617       0.12706504184240380     
 p           4   1.0000000000000000     
   5.8263656140800002       0.73716451545209605     
   1.5106896018720002       0.68216371614850257     
  0.53256483288000001       0.35783053929253711     
  0.21202323690600003        5.3983030275847881E-002

[MO]
Sym=     1a
Ene=  -0.73809766691498968     
Spin= Alpha
Occup=     2.00000000
           1  -4.5224750128019853E-002
           2  -1.6883371722848352E-002
           3  -2.6115561347913763E-002
           4  -2.4812049598688424E-002
           5 -0.25206402757147017     
           6  -5.0287212939739284E-002
           7  -8.7840258657923137E-002
           8  -8.1342651619469325E-002
           9 -0.34704700126898702     
          10  -1.9478861192367837E-002
          11 -0.10200345430307454     
          12  0.11756633710249999     
          13 -0.29486167703715216     
          14   1.4346102394211415E-002
          15  0.12392083253754957     
          16   9.5735406153881805E-002
          17 -0.34688847824915264     
          18   6.1463054267838595E-002
          19   7.4743554579522795E-002
          20 -0.12336355558560605     
Sym=     2a
Ene=  -0.67899783175938755     
Spin= Alpha
Occup=     2.00000000
           1 -0.45941810885799617     
           2  -7.6748565307414557E-002
           3 -0.10789310121371673     
           4 -0.10484117674297169     
           5 -0.46078250906286433     
           6   7.5143128632493464E-002
           7  0.13098672860109054     
           8  0.12100239237971604     
           9   4.1675860417495839E-002
          10   5.4321247133592834E-002
          11  0.12647985279850327     
          12   9.2111503377201545E-002
          13  0.21864738298654959     
          14   1.2972153305156782E-002
          15  -3.6437681607953534E-002
          16  -2.2366094011832378E-002
          17   4.1935356559672739E-002
          18   4.6503124803754521E-002
          19  0.10945176402578435     
          20  0.11476847938811449     
Sym=     3a
Ene=  -0.61914734609436117     
Spin= Alpha
Occup=     2.00000000
           1 -0.39930318192110698     
           2  -2.3760872945932849E-003
           3  -1.9168843697086616E-002
           4  -1.4806498110782921E-002
           5  0.12056860815881289     
           6  0.18800467752665018     
           7  0.20972509537184464     
           8  0.21680148386582254     
           9   6.2331748195791965E-002
          10  -5.2397711031953446E-002
          11 -0.22255793089180190     
          12 -0.19830768593924220     
          13 -0.43492145689971312     
          14  -2.8460149497952010E-002
          15  -7.7967753579043040E-003
          16  -1.5753378733683380E-002
          17   6.2996448015573248E-002
          18  -5.9387855522797718E-002
          19 -0.23752664678033364     
          20 -0.17702947320661025     
Sym=     4a
Ene=  -0.61599396335981316     
Spin= Alpha
Occup=     2.00000000
           1  -4.5574603288450961E-004
           2  -2.0899457469499710E-002
           3  -4.5593337059201398E-002
           4   6.2182468542520256E-002
           5  -9.0169716499105394E-006
           6  -7.6559634893390224E-002
           7 -0.16717514488911525     
           8  0.22865540337834706     
           9  0.50613380626358961     
          10  -6.5256266065795501E-002
          11  -5.0813809971343805E-002
          12  0.10693598815922081     
          13  -1.5756981140138814E-004
          14  -8.5161257517146163E-002
          15 -0.18575632199481007     
          16  0.25315902147308761     
          17 -0.50626931284916388     
          18  -2.4475937963975756E-003
          19  -9.6792372032632967E-002
          20   9.3837430652093240E-002
Sym=     5a
Ene=  -0.55527221512799274     
Spin= Alpha
Occup=     2.00000000
           1  -7.3430081949481418E-002
           2 -0.13511555957407975     
           3   9.3209635644169175E-002
           4   2.2940724115915832E-002
           5   3.9903756394444795E-002
           6 -0.31849039918042188     
           7  0.22164415941358614     
           8   5.5466573096082113E-002
           9  -7.6229302670196897E-002
          10 -0.40321334801510339     
          11  0.12296273304625675     
          12  -1.6174357365794024E-002
          13   5.7412214383846763E-002
          14 -0.34757973066438175     
          15  0.10852598405758818     
          16  -3.7304988820828708E-002
          17  -7.5976505053954521E-002
          18 -0.39085800375553920     
          19  0.14877620004866693     
          20  -5.1505928288847348E-002
Sym=     6a
Ene=  -0.54568589827950409     
Spin= Alpha
Occup=     2.00000000
           1  -7.3256869788779458E-005
           2   5.8295690532221722E-002
           3  0.12725632617449836     
           4 -0.17356577476788010     
           5   3.1858589515430070E-004
           6  0.11910533128948160     
           7  0.26000089243330893     
           8 -0.35461554696389591     
           9   2.0558552663881062E-002
          10   9.6715226752126127E-002
          11  0.27506471995429099     
          12  0.23663364366447376     
          13  -3.1533714364134243E-004
          14 -0.10096742899796683     
          15 -0.22037861761319849     
          16  0.30020706324752749     
          17  -2.0688129075299856E-002
          18  -9.7875015609813779E-002
          19 -0.27768137017273758     
          20 -0.23392995061998362     
Sym=     7a
Ene=  -0.47404314546735121     
Spin= Alpha
Occup=     2.00000000
           1 -0.37138585987157641     
           2  0.32934303445612362     
           3  0.10140713077566692     
           4  0.18446290505415019     
           5  0.21558149378281283     
           6  0.20611122090618358     
           7 -0.12480091269729990     
           8  -2.2584827981430432E-002
           9 -0.32681024752550886     
          10   3.1899205957879789E-002
          11  0.14301330228533729     
          12 -0.22361883366456908     
          13  0.37585724527460707     
          14  -4.5370646567605893E-002
          15  0.27374629100855430     
          16  0.18517122563332133     
          17 -0.32741839893920333     
          18 -0.10649790951635896     
          19 -0.15822221980474624     
          20  0.18779378391981538     
Sym=     8a
Ene=  -0.46285308606266934     
Spin= Alpha
Occup=     2.00000000
           1  0.21295742069455220     
           2 -0.27343263105742338     
           3  -3.7466119959871466E-002
           4 -0.11936890656805176     
           5  -7.7831000612077095E-002
           6 -0.15084659295619984     
           7  0.13365137283242889     
           8   4.7194588509900277E-002
           9 -0.31556428354093957     
          10  0.18134246412873209     
          11  0.25084549185919208     
          12 -0.36352103801282859     
          13 -0.19712479550383696     
          14  0.10297440581180389     
          15 -0.21762850001478118     
          16 -0.12546486873771148     
          17 -0.31639540615625733     
          18  -6.6545301131525708E-002
          19 -0.28974444993014004     
          20  0.37401822111622401     
Sym=     9a
Ene=  -0.45596546684784139     
Spin= Alpha
Occup=     1.99999999
           1  0.36707664925298000     
           2  0.22149827161504640     
           3 -0.48410871907303593     
           4 -0.28023291931949496     
           5 -0.14987669373131188     
           6  0.39309684614509183     
           7 -0.13952776864023694     
           8   2.9762062926101066E-002
           9  -1.9497174253794443E-002
          10 -0.14202511604042167     
          11   5.6472133448933003E-002
          12  -8.6016203499195129E-002
          13  -2.9109280453126891E-002
          14 -0.37126539463778163     
          15   3.3343539861943300E-002
          16 -0.10029119340798798     
          17  -1.9548602404284181E-002
          18 -0.17464025659853960     
          19  -1.4366469723503913E-002
          20   1.0440477573064516E-002
Sym=    10a
Ene=  -0.42061829861525968     
Spin= Alpha
Occup=     1.00000001
           1  0.28056723849968634     
           2 -0.36420250417593875     
           3 -0.14439570073557043     
           4 -0.22764330406012140     
           5   4.4571747860665124E-002
           6   1.4444510006370946E-002
           7  0.21459136527661984     
           8  0.16217151793812151     
           9   8.7236133901222486E-003
          10   2.1984547175617628E-002
          11 -0.19265570910951971     
          12  -9.9122442128523849E-002
          13  0.41071864119606061     
          14  0.17559706550523910     
          15  0.45194658451966591     
          16  0.39081582286203825     
          17   9.0090724901988068E-003
          18   3.6408091792612861E-002
          19 -0.16189041500635548     
          20 -0.14161007488168756     
Sym=    11a
Ene=  -0.40560350656933136     
Spin= Alpha
Occup=     1.00000000
           1   2.3877240452804983E-004
           2  0.15317210663491374     
           3  0.33512257191010802     
           4 -0.45787571860651105     
           5   2.9413823001139750E-005
           6   5.0185514237988629E-002
           7  0.10975228427891939     
           8 -0.14939724739466301     
           9  0.25829222132086588     
          10  0.22106159389790667     
          11 -0.39296039861974669     
          12  0.10310214445390017     
          13   5.7975596654636905E-005
          14   7.4821126442595073E-002
          15  0.16328452211286504     
          16 -0.22226659761081735     
          17 -0.25753477696199706     
          18 -0.35013860859034196     
          19  0.11202374779054887     
          20  0.28011582653921563     
Sym=    12a
Ene=  -0.36366917094060047     
Spin= Alpha
Occup=     0.00000000
           1   2.7054640318124226E-005
           2  0.14744919212069194     
           3  0.32144687310199332     
           4 -0.43916995194460001     
           5   1.4497630151949462E-006
           6  -6.8895487430806557E-003
           7  -1.5093880384073964E-002
           8   2.0673981564386986E-002
           9   1.4309587607361157E-002
          10 -0.60411216737766815     
          11   9.9138039439889775E-002
          12 -0.11335440442366376     
          13  -1.3996832241090921E-007
          14   6.9302425279808939E-003
          15   1.5777107483887429E-002
          16  -2.1416881836532776E-002
          17  -1.4233478796692008E-002
          18  0.59795235120837786     
          19 -0.11431265095402107     
          20  0.13398931044794171     
Sym=    13a
Ene=  -0.30380534064526610     
Spin= Alpha
Occup=     0.00000000
           1   1.5437433814737177E-002
           2  0.46036246413417697     
           3 -0.33739988646181601     
           4  -9.2957222550938509E-002
           5   8.0495533280554046E-002
           6 -0.22191940248988035     
           7  0.20411770928867967     
           8   7.5194350150148997E-002
           9  -3.8395964041866341E-002
          10 -0.30471839544479018     
          11   9.3127334902314243E-002
          12   1.1302795745488915E-002
          13  -3.9441155244562494E-002
          14  0.72686962923843712     
          15 -0.15575671157774679     
          16  0.13018187622749031     
          17  -3.8307398438630479E-002
          18 -0.28582494931067903     
          19  0.13366857877708757     
          20  -4.3875919942034047E-002
Sym=    14a
Ene=  -0.26257410089141398     
Spin= Alpha
Occup=     0.00000000
           1   1.3295106871098911E-005
           2 -0.11924713769270881     
           3 -0.26149667959295214     
           4  0.35652822297443892     
           5   3.9605129768439034E-005
           6  0.10310013610335232     
           7  0.22598355707532708     
           8 -0.30810767381213383     
           9   4.3711282451897260E-002
          10 -0.35114211020838254     
          11 -0.17224651536864269     
          12  0.50465155879519308     
          13  -6.1838159142102355E-005
          14   9.6805922982141121E-002
          15  0.21131770010494419     
          16 -0.28798670548075922     
          17  -4.3292776435319667E-002
          18   4.6520831004537612E-002
          19 -0.49327831200546340     
          20  0.40233117437787003     
Sym=    15a
Ene=  -0.18356334543236502     
Spin= Alpha
Occup=     0.00000000
           1   6.3933977445429849E-003
           2  0.53373871039773146     
           3 -0.27402329464691155     
           4  -2.1821510978639522E-002
           5  -4.8879617365125319E-002
           6 -0.67663140126481203     
           7  0.36422052798724153     
           8   4.0044116187646375E-002
           9   5.8966944350421387E-002
          10  0.39302868289480164     
          11 -0.13368795910321357     
          12  -3.0871557039897277E-002
          13   4.6470394470016921E-003
          14 -0.39320720282687188     
          15  0.17372706057593648     
          16  -4.5635562544371058E-003
          17   5.8845554968344094E-002
          18  0.36575198891904792     
          19 -0.19070994650306658     
          20   4.7289787255682052E-002
Sym=    16a
Ene=    8.0039701644110076E-002
Spin= Alpha
Occup=     0.00000000
           1  -1.3798741766440686E-003
           2  -9.6426398857935886E-002
           3 -0.20933784505523331     
           4  0.27979894870651623     
           5   9.8224077147643623E-003
           6  0.22694473968800088     
           7  0.49418401441678650     
           8 -0.66809255244384558     
           9  0.51833408671088310     
          10  -6.4758324411452198E-002
          11   2.4249826174222711E-002
          12 -0.60975988478762699     
          13  -1.1905598171012173E-003
          14   1.8269360628218555E-002
          15   4.2170261323436944E-002
          16  -5.8608286722143854E-002
          17 -0.52376250946188585     
          18  0.31760396683844944     
          19  0.52345375557432028     
          20 -0.12144622294347707     
Sym=    17a
Ene=   0.13885811772069137     
Spin= Alpha
Occup=     0.00000000
           1 -0.17592147379395789     
           2 -0.18725275476800887     
           3 -0.27745234052705747     
           4 -0.26969507127960518     
           5   1.0695567435868540     
           6  0.17849363756355602     
           7  0.26136300101212351     
           8  0.26028959179565098     
           9 -0.30291906707872301     
          10  0.19215727428163407     
          11  0.21387221544665688     
          12  0.52285854721006364     
          13 -0.13852724687803494     
          14 -0.12401384853068072     
          15  -2.9547113359802198E-002
          16  -5.5313838687485399E-002
          17 -0.28720369813004093     
          18  0.30833362612940513     
          19  0.47490133041707577     
          20  0.16759225691488691     
Sym=    18a
Ene=   0.18293527777072985     
Spin= Alpha
Occup=     0.00000000
           1  -1.3813001614634600E-003
           2   2.1525532621903501E-002
           3   4.7833655766157272E-002
           4  -6.9769065162488625E-002
           5   6.8752832996458605E-003
           6  -7.4793846893306828E-002
           7 -0.16381954483171549     
           8  0.22694265259286645     
           9  0.41616592960423654     
          10  0.16873327164672192     
          11  0.69003912021888614     
          12  0.13063629395405899     
          13   8.3884088229256842E-004
          14  0.24503600843758366     
          15  0.53498607391922648     
          16 -0.73271188088293759     
          17 -0.42149867780197392     
          18   1.1435464416994253E-002
          19 -0.30083375987076544     
          20 -0.65490346064972527     
Sym=    19a
Ene=   0.42303742154148632     
Spin= Alpha
Occup=     0.00000000
           1  0.23027299312275737     
           2  0.10743441711801542     
           3  0.19775830604115602     
           4  0.18073965294192640     
           5 -0.18379769105079372     
           6  0.16714837356670181     
           7  0.12157583003275491     
           8  0.14603588265967221     
           9  0.42740633586304427     
          10  0.10244014695177964     
          11  0.62178360632866481     
          12   6.0826553488096104E-002
          13 -0.91626364300128593     
          14   4.0279574356513657E-002
          15  0.72055458605635714     
          16  0.53957171565984730     
          17  0.42501425813516852     
          18  -7.2426883173569698E-002
          19  0.23835709888085579     
          20  0.57821073143980917     
Sym=    20a
Ene=   0.83489437460045213     
Spin= Alpha
Occup=     0.00000000
           1 -0.83566281800769415     
           2 -0.39588588526191776     
           3 -0.58613726906658747     
           4 -0.56206305133386714     
           5  0.44454681566745302     
           6 -0.54500583838438110     
           7 -0.83379865362438088     
           8 -0.79422316831610840     
           9  0.36603534663378989     
          10  -2.0540200579831771E-002
          11  0.12287264363099387     
          12 -0.26257839130218652     
          13 -0.23076403206061535     
          14   2.5699116496194368E-002
          15  0.21681891944360279     
          16  0.16748508649504329     
          17  0.36503596814317918     
          18 -0.16102221514827547     
          19 -0.18408168344672751     
          20  0.15584259873326428     
