3
 energy: -6.091562872989 gnorm: 0.000684612509 xtb: 6.2.2 (9d81278992624c895f80dd42a50cac0aa55982e2)
C        -0.00040719155097    0.24628930464716   -0.00000042843006
C        -1.22864456149885   -0.12517857531561    0.00000450726536
C         1.22905275304983   -0.12111072933678   -0.00000407883879
