 Entering Gaussian System
 *********************************************
 Gaussian 98:
 frequency output generated by the xtb code
 *********************************************
                         Standard orientation:
 --------------------------------------------------------------------
  Center     Atomic     Atomic              Coordinates (Angstroms)
  Number     Number      Type              X           Y           Z
 --------------------------------------------------------------------
    1          6             0       -0.000407    0.246289   -0.000000
    2          6             0       -1.228645   -0.125179    0.000005
    3          6             0        1.229053   -0.121111   -0.000004
 --------------------------------------------------------------------
     1 basis functions        1 primitive gaussians
     1 alpha electrons        1 beta electrons

 Harmonic frequencies (cm**-1), IR intensities (KM/Mole),
 Raman scattering activities (A**4/amu), Raman depolarization ratios,
 reduced masses (AMU), force constants (mDyne/A) and normal coordinates:
                      1                      2                      3
                        a                      a                      a 
 Frequencies --   105.8913              1402.5448              1979.0986
 Red. masses --    12.0107                12.0107                12.0107
 Frc consts  --     0.0000                 0.0000                 0.0000
 IR Inten    --     0.3544                 0.0935                 0.5801
 Raman Activ --     0.0000                 0.0000                 0.0000
 Depolar     --     0.0000                 0.0000                 0.0000
 Atom AN      X      Y      Z        X      Y      Z        X      Y      Z
   1   6    -0.00   0.71  -0.00     0.00  -0.39   0.00     0.80   0.00  -0.00
   2   6     0.34  -0.36  -0.00     0.62   0.20  -0.00    -0.40  -0.12   0.00
   3   6    -0.34  -0.36   0.00    -0.62   0.20   0.00    -0.40   0.12   0.00
