      -----------------------------------------------------------      
     |                   =====================                   |     
     |                           x T B                           |     
     |                   =====================                   |     
     |                         S. Grimme                         |     
     |          Mulliken Center for Theoretical Chemistry        |     
     |                    University of Bonn                     |     
      -----------------------------------------------------------      

   * xtb version 6.2.2 (9d81278992624c895f80dd42a50cac0aa55982e2) compiled by '@Darwin' on 04/03/2020

   xtb is free software: you can redistribute it and/or modify it under
   the terms of the GNU Lesser General Public License as published by
   the Free Software Foundation, either version 3 of the License, or
   (at your option) any later version.
   
   xtb is distributed in the hope that it will be useful,
   but WITHOUT ANY WARRANTY; without even the implied warranty of
   MERCHANTABILITY or FITNESS FOR A PARTICULAR PURPOSE.  See the
   GNU Lesser General Public License for more details.
   
   Cite this work as:
   * S. Grimme, C. Bannwarth, P. Shushkov, J. Chem. Theory Comput., 2017,
     13, 1989-2009. DOI: 10.1021/acs.jctc.7b00118
   * C. Bannwarth, S. Ehlert and S. Grimme., J. Chem. Theory Comput., 2019,
     15, 1652-1671. DOI: 10.1021/acs.jctc.8b01176
   * P. Pracht, E. Caldeweyher, S. Ehlert, S. Grimme, ChemRxiv, 2019, preprint.
     DOI: 10.26434/chemrxiv.8326202.v1
   
   for DFT-D4:
   * E. Caldeweyher, C. Bannwarth and S. Grimme, J. Chem. Phys., 2017,
     147, 034112. DOI: 10.1063/1.4993215
   * E. Caldeweyher, S. Ehlert, A. Hansen, H. Neugebauer, S. Spicher,
     C. Bannwarth and S. Grimme, J. Chem. Phys., 2019, 150, 154122.
     DOI: 10.1063/1.5090222
   
   for sTDA-xTB:
   * S. Grimme and C. Bannwarth, J. Chem. Phys., 2016, 145, 054103.
     DOI: 10.1063/1.4959605
   
   in the mass-spec context:
   * V. Asgeirsson, C. Bauer and S. Grimme, Chem. Sci., 2017, 8, 4879.
     DOI: 10.1039/c7sc00601b
   
   for metadynamics refer to:
   * S. Grimme, J. Chem. Theory Comput., 2019, 155, 2847-2862
     DOI: 10.1021/acs.jctc.9b00143
   
   with help from (in alphabetical order)
   C. Bannwarth, F. Bohle, G. Brandenburg, E. Caldeweyher, M. Checinski,
   S. Dohm, S. Ehlert, S. Ehrlich, F. März, H. Neugebauer, J. Pisarek,
   P. Pracht, P. Shushkov, and S. Spicher.
   
 * started run on 2020/05/12 at 11:44:25.175     

           -------------------------------------------------
          |                Calculation Setup                |
           -------------------------------------------------

          program call               : xtb --input C3_0_S_0.input C3_0_S_0.xyz --ohess --molden --namespace C3_0_S_0 output.out
          calculation namespace      : C3_0_S_0
          coordinate file            : C3_0_S_0.xyz
          number of atoms            :                     3
          number of electrons        :                    12
          charge                     :                     0
          spin                       :                   0.0
          first test random number   :      0.30959275209919

   ID    Z sym.   atoms
    1    6 C      1-3

           -------------------------------------------------
          |                 G F N 2 - x T B                 |
           -------------------------------------------------

        Reference                      10.1021/acs.jctc.8b01176
      * Hamiltonian:
        H0-scaling (s, p, d)           1.850000    2.230000    2.230000
        zeta-weighting                 0.500000
      * Dispersion:
        s8                             2.700000
        a1                             0.520000
        a2                             5.000000
        s9                             5.000000
      * Repulsion:
        kExp                           1.500000    1.000000
        rExp                           1.000000
      * Coulomb:
        alpha                          2.000000
        third order                    shell-resolved
        anisotropic                    true
        a3                             3.000000
        a5                             4.000000
        cn-shift                       1.200000
        cn-exp                         4.000000
        max-rad                        5.000000


          ...................................................
          :                      SETUP                      :
          :.................................................:
          :  # basis functions                  12          :
          :  # atomic orbitals                  12          :
          :  # shells                            6          :
          :  # electrons                        12          :
          :  max. iterations                   250          :
          :  Hamiltonian                  GFN2-xTB          :
          :  restarted?                      false          :
          :  GBSA solvation                  false          :
          :  PC potential                    false          :
          :  electronic temp.          300.0000000     K    :
          :  accuracy                    1.0000000          :
          :  -> integral cutoff          0.2500000E+02      :
          :  -> integral neglect         0.1000000E-07      :
          :  -> SCF convergence          0.1000000E-05 Eh   :
          :  -> wf. convergence          0.1000000E-03 e    :
          :  Broyden damping             0.4000000          :
          ...................................................

 iter      E             dE          RMSdq      gap      omega  full diag
   1     -5.9341938 -0.593419E+01  0.158E+01    1.98       0.0  T
   2     -5.7545982  0.179596E+00  0.113E+01    1.38       1.0  T
   3     -5.5451111  0.209487E+00  0.123E+01    2.30       1.0  T
   4     -6.0202283 -0.475117E+00  0.163E+00    1.79       1.0  T
   5     -6.0272873 -0.705900E-02  0.743E-01    1.87       1.0  T
   6     -6.0278002 -0.512906E-03  0.126E-01    1.89       1.0  T
   7     -6.0275177  0.282530E-03  0.223E-01    1.90       1.0  T
   8     -6.0278235 -0.305757E-03  0.618E-02    1.90       1.0  T
   9     -6.0278339 -0.104496E-04  0.198E-02    1.90       2.9  T
  10     -6.0278356 -0.168435E-05  0.712E-03    1.90       8.1  T
  11     -6.0278358 -0.187760E-06  0.247E-03    1.90      23.4  T
  12     -6.0278358 -0.200833E-07  0.525E-04    1.90     110.1  T
  13     -6.0278358 -0.116367E-08  0.311E-05    1.90    1853.9  T

   *** convergence criteria satisfied after 13 iterations ***

         #    Occupation            Energy/Eh            Energy/eV
      -------------------------------------------------------------
         1        2.0000           -0.6963097             -18.9476
         2        2.0000           -0.6563195             -17.8594
         3        2.0000           -0.5533667             -15.0579
         4        2.0000           -0.5015609             -13.6482
         5        2.0000           -0.4910056             -13.3609
         6        2.0000           -0.4906377             -13.3509 (HOMO)
         7                         -0.4208091             -11.4508 (LUMO)
         8                         -0.3967972             -10.7974
         9                         -0.3709699             -10.0946
        10                         -0.3076799              -8.3724
        11                          0.0633182               1.7230
        12                          0.0733590               1.9962
      -------------------------------------------------------------
                  HL-Gap            0.0698286 Eh            1.9001 eV
             Fermi-level           -0.4557234 Eh          -12.4009 eV

 SCC (total)                   0 d,  0 h,  0 min,  0.002 sec
 SCC setup                      ...        0 min,  0.000 sec (  3.819%)
 Dispersion                     ...        0 min,  0.000 sec (  0.678%)
 integral evaluation            ...        0 min,  0.001 sec ( 28.090%)
 zeroth order Hamiltonian       ...        0 min,  0.000 sec (  0.565%)
 iterations                     ...        0 min,  0.001 sec ( 41.006%)
 molecular gradient             ...        0 min,  0.000 sec ( 23.119%)
 printout                       ...        0 min,  0.000 sec (  2.328%)

         :::::::::::::::::::::::::::::::::::::::::::::::::::::
         ::                     SUMMARY                     ::
         :::::::::::::::::::::::::::::::::::::::::::::::::::::
         :: total energy              -5.997954888591 Eh    ::
         :: gradient norm              0.299688149886 Eh/a0 ::
         :: HOMO-LUMO gap              1.900132442727 eV    ::
         ::.................................................::
         :: SCC energy                -6.027835817431 Eh    ::
         :: -> isotropic ES           -0.030005944629 Eh    ::
         :: -> anisotropic ES         -0.000467354336 Eh    ::
         :: -> anisotropic XC          0.010305469047 Eh    ::
         :: -> dispersion             -0.001034698457 Eh    ::
         :: repulsion energy           0.029880927461 Eh    ::
         :: add. restraining           0.000000000000 Eh    ::
         :::::::::::::::::::::::::::::::::::::::::::::::::::::

      ----------------------------------------------------------- 
     |                   =====================                   |
     |                        A N C O P T                        |
     |                   =====================                   |
     |               Approximate Normal Coordinate               |
     |                Rational Function Optimizer                |
      ----------------------------------------------------------- 

          ...................................................
          :                      SETUP                      :
          :.................................................:
          :   optimization level            normal          :
          :   max. optcycles                   200          :
          :   ANC micro-cycles                  20          :
          :   degrees of freedom                 3          :
          :.................................................:
          :   RF solver                   davidson          :
          :   write xtbopt.log                true          :
          :   linear?                        false          :
          :   energy convergence         0.5000000E-05 Eh   :
          :   grad. convergence          0.1000000E-02 Eh/α :
          :   maximium RF displ.         1.0000000          :
          :   Hlow (freq-cutoff)         0.1000000E-01      :
          :   Hmax (freq-cutoff)         5.0000000          :
          :   S6 in model hess.         20.0000000          :
          ...................................................

generating ANC from model Hessian ...
Using Lindh-Hessian (1995)
 Shifting diagonal of input Hessian by    0.0000000000000000     
 Lowest  eigenvalues of input Hessian
   -0.000000   -0.000000   -0.000000    0.000000    0.000000    0.000000
    0.070167    0.702551    0.947466
 Highest eigenvalues
    0.000000    0.000000    0.000000    0.070167    0.702551    0.947466


........................................................................
.............................. CYCLE    1 ..............................
........................................................................
   1     -6.0278358 -0.602784E+01  0.110E-05    1.90       0.0  T
   2     -6.0278358  0.236433E-11  0.243E-05    1.90    2371.6  T
   3     -6.0278358 -0.281464E-11  0.238E-06    1.90   24225.0  T
     SCC iter.                  ...        0 min,  0.000 sec
     gradient                   ...        0 min,  0.000 sec
 * total energy  :    -5.9979549 Eh     change        0.7889600E-10 Eh
   gradient norm :     0.2996882 Eh/α   predicted     0.0000000E+00 (-100.00%)
   displ. norm   :     0.3737060 α      lambda       -0.1109842E+00
   maximum displ.:     0.3680973 α      in ANC's #2, #1, #3, ...

........................................................................
.............................. CYCLE    2 ..............................
........................................................................
   1     -6.1726436 -0.617264E+01  0.246E+00    1.86       0.0  T
   2     -6.1693701  0.327352E-02  0.205E+00    1.96       1.0  T
   3     -6.1742705 -0.490040E-02  0.129E+00    1.83       1.0  T
   4     -6.1765461 -0.227561E-02  0.124E-01    1.83       1.0  T
   5     -6.1765496 -0.356272E-05  0.486E-02    1.83       1.2  T
   6     -6.1765536 -0.392192E-05  0.159E-02    1.83       3.6  T
   7     -6.1765551 -0.149735E-05  0.267E-03    1.83      21.6  T
   8     -6.1765551 -0.315423E-08  0.696E-04    1.83      82.9  T
   9     -6.1765551 -0.147421E-08  0.316E-05    1.83    1827.7  T
     SCC iter.                  ...        0 min,  0.000 sec
     gradient                   ...        0 min,  0.000 sec
 * total energy  :    -6.0821938 Eh     change       -0.8423888E-01 Eh
   gradient norm :     0.1178216 Eh/α   predicted    -0.6324195E-01 ( -24.93%)
   displ. norm   :     0.2284232 α      lambda       -0.2678647E-01
   maximum displ.:     0.2263145 α      in ANC's #2, #1, #3, ...

........................................................................
.............................. CYCLE    3 ..............................
........................................................................
   1     -6.2642564 -0.626426E+01  0.148E+00    1.72       0.0  T
   2     -6.2645571 -0.300630E-03  0.102E+00    1.76       1.0  T
   3     -6.2650441 -0.487087E-03  0.656E-01    1.70       1.0  T
   4     -6.2654670 -0.422835E-03  0.724E-02    1.70       1.0  T
   5     -6.2654695 -0.249037E-05  0.782E-03    1.70       7.4  T
   6     -6.2654694  0.103534E-06  0.499E-03    1.70      11.6  T
   7     -6.2654695 -0.138011E-06  0.928E-04    1.70      62.2  T
   8     -6.2654695 -0.865465E-09  0.294E-05    1.70    1962.0  T
     SCC iter.                  ...        0 min,  0.001 sec
     gradient                   ...        0 min,  0.000 sec
 * total energy  :    -6.0822902 Eh     change       -0.9638187E-04 Eh
   gradient norm :     0.1419520 Eh/α   predicted    -0.1409206E-01 (*******%)
   displ. norm   :     0.1793706 α      lambda       -0.1892330E-01
   maximum displ.:     0.1465392 α      in ANC's #1, #2, #3, ...

........................................................................
.............................. CYCLE    4 ..............................
........................................................................
   1     -6.2174260 -0.621743E+01  0.121E+00    1.68       0.0  T
   2     -6.2173380  0.880026E-04  0.756E-01    1.63       1.0  T
   3     -6.2181916 -0.853593E-03  0.581E-01    1.68       1.0  T
   4     -6.2185863 -0.394703E-03  0.296E-02    1.68       1.9  T
   5     -6.2185863  0.634997E-07  0.955E-03    1.68       6.0  T
   6     -6.2185859  0.417734E-06  0.977E-03    1.68       5.9  T
   7     -6.2185864 -0.566325E-06  0.116E-03    1.68      49.7  T
   8     -6.2185864 -0.112815E-08  0.509E-05    1.68    1135.0  T
   9     -6.2185864 -0.150013E-11  0.333E-05    1.68    1734.3  T
     SCC iter.                  ...        0 min,  0.000 sec
     gradient                   ...        0 min,  0.001 sec
 * total energy  :    -6.0904087 Eh     change       -0.8118503E-02 Eh
   gradient norm :     0.0191451 Eh/α   predicted    -0.9766068E-02 (  20.29%)
   displ. norm   :     0.0690367 α      lambda       -0.5774964E-03
   maximum displ.:     0.0652937 α      in ANC's #1, #2, #3, ...

........................................................................
.............................. CYCLE    5 ..............................
........................................................................
   1     -6.2222418 -0.622224E+01  0.459E-01    1.63       0.0  T
   2     -6.2222413  0.479491E-06  0.246E-01    1.63       1.0  T
   3     -6.2221654  0.759218E-04  0.210E-01    1.64       1.0  T
   4     -6.2222614 -0.960787E-04  0.799E-03    1.63       7.2  T
   5     -6.2222614 -0.667836E-08  0.163E-03    1.63      35.4  T
   6     -6.2222614  0.675619E-07  0.354E-03    1.63      16.3  T
   7     -6.2222615 -0.748637E-07  0.367E-04    1.63     157.5  T
   8     -6.2222615 -0.657154E-10  0.188E-05    1.63    3076.8  T
     SCC iter.                  ...        0 min,  0.001 sec
     gradient                   ...        0 min,  0.000 sec
 * total energy  :    -6.0908765 Eh     change       -0.4678884E-03 Eh
   gradient norm :     0.0098491 Eh/α   predicted    -0.2901259E-03 ( -37.99%)
   displ. norm   :     0.1507306 α      lambda       -0.7253909E-03
   maximum displ.:     0.1454576 α      in ANC's #1, #2, #3, ...

........................................................................
.............................. CYCLE    6 ..............................
........................................................................
   1     -6.2227275 -0.622273E+01  0.104E+00    1.55       0.0  T
   2     -6.2227331 -0.565344E-05  0.552E-01    1.53       1.0  T
   3     -6.2223863  0.346851E-03  0.476E-01    1.56       1.0  T
   4     -6.2228486 -0.462291E-03  0.171E-02    1.54       3.4  T
   5     -6.2228486 -0.136872E-07  0.310E-03    1.54      18.6  T
   6     -6.2228484  0.214894E-06  0.623E-03    1.54       9.3  T
   7     -6.2228486 -0.233478E-06  0.684E-04    1.54      84.4  T
   8     -6.2228486 -0.295646E-09  0.332E-05    1.54    1738.1  T
     SCC iter.                  ...        0 min,  0.001 sec
     gradient                   ...        0 min,  0.000 sec
 * total energy  :    -6.0913579 Eh     change       -0.4813850E-03 Eh
   gradient norm :     0.0071340 Eh/α   predicted    -0.3709368E-03 ( -22.94%)
   displ. norm   :     0.0844082 α      lambda       -0.1886388E-03
   maximum displ.:     0.0797891 α      in ANC's #1, #2, #3, ...

........................................................................
.............................. CYCLE    7 ..............................
........................................................................
   1     -6.2229449 -0.622294E+01  0.618E-01    1.50       0.0  T
   2     -6.2229477 -0.274284E-05  0.332E-01    1.49       1.0  T
   3     -6.2228375  0.110137E-03  0.251E-01    1.50       1.0  T
   4     -6.2229734 -0.135851E-03  0.112E-02    1.49       5.2  T
   5     -6.2229734  0.288976E-07  0.297E-03    1.49      19.5  T
   6     -6.2229732  0.150022E-06  0.566E-03    1.49      10.2  T
   7     -6.2229734 -0.194394E-06  0.437E-04    1.49     132.1  T
   8     -6.2229734 -0.446621E-10  0.191E-05    1.49    3028.7  T
     SCC iter.                  ...        0 min,  0.000 sec
     gradient                   ...        0 min,  0.000 sec
 * total energy  :    -6.0914892 Eh     change       -0.1312465E-03 Eh
   gradient norm :     0.0055243 Eh/α   predicted    -0.9499272E-04 ( -27.62%)
   displ. norm   :     0.0564939 α      lambda       -0.8356641E-04
   maximum displ.:     0.0513319 α      in ANC's #1, #2, #3, ...

........................................................................
.............................. CYCLE    8 ..............................
........................................................................
   1     -6.2240549 -0.622405E+01  0.425E-01    1.46       0.0  T
   2     -6.2240561 -0.120150E-05  0.232E-01    1.46       1.0  T
   3     -6.2240155  0.405556E-04  0.143E-01    1.47       1.0  T
   4     -6.2240630 -0.475168E-04  0.833E-03    1.46       6.9  T
   5     -6.2240630  0.837776E-07  0.405E-03    1.46      14.3  T
   6     -6.2240630 -0.482035E-07  0.287E-03    1.46      20.1  T
   7     -6.2240631 -0.479008E-07  0.352E-04    1.46     163.9  T
   8     -6.2240631 -0.304263E-10  0.138E-05    1.46    4168.7  T
     SCC iter.                  ...        0 min,  0.000 sec
     gradient                   ...        0 min,  0.000 sec
 * total energy  :    -6.0915448 Eh     change       -0.5567498E-04 Eh
   gradient norm :     0.0016270 Eh/α   predicted    -0.4191774E-04 ( -24.71%)
   displ. norm   :     0.0663371 α      lambda       -0.2255908E-04
   maximum displ.:     0.0614266 α      in ANC's #1, #2, #3, ...

........................................................................
.............................. CYCLE    9 ..............................
........................................................................
   1     -6.2233664 -0.622337E+01  0.516E-01    1.44       0.0  T
   2     -6.2233687 -0.228670E-05  0.282E-01    1.43       1.0  T
   3     -6.2233046  0.640783E-04  0.184E-01    1.44       1.0  T
   4     -6.2233809 -0.763043E-04  0.982E-03    1.43       5.9  T
   5     -6.2233803  0.546584E-06  0.958E-03    1.43       6.0  T
   6     -6.2233809 -0.540106E-06  0.198E-03    1.43      29.2  T
   7     -6.2233809 -0.210526E-07  0.344E-04    1.43     167.8  T
   8     -6.2233809 -0.211360E-10  0.128E-05    1.43    4502.0  T
     SCC iter.                  ...        0 min,  0.000 sec
     gradient                   ...        0 min,  0.000 sec
 * total energy  :    -6.0915608 Eh     change       -0.1594469E-04 Eh
   gradient norm :     0.0020133 Eh/α   predicted    -0.1129981E-04 ( -29.13%)
   displ. norm   :     0.0034358 α      lambda       -0.6163410E-05
   maximum displ.:     0.0034257 α      in ANC's #2, #1, #3, ...

........................................................................
.............................. CYCLE   10 ..............................
........................................................................
   1     -6.2243865 -0.622439E+01  0.192E-02    1.43       0.0  T
   2     -6.2243865 -0.179631E-07  0.136E-02    1.43       4.3  T
   3     -6.2243865  0.506708E-07  0.846E-03    1.43       6.8  T
   4     -6.2243866 -0.133714E-06  0.151E-03    1.43      38.1  T
   5     -6.2243866  0.461100E-08  0.163E-03    1.43      35.4  T
   6     -6.2243866 -0.118723E-07  0.348E-05    1.43    1660.6  T
   7     -6.2243866 -0.595080E-13  0.106E-05    1.43    5441.8  T
     SCC iter.                  ...        0 min,  0.000 sec
     gradient                   ...        0 min,  0.000 sec
 * total energy  :    -6.0915629 Eh     change       -0.2079982E-05 Eh
   gradient norm :     0.0006846 Eh/α   predicted    -0.3082246E-05 (  48.19%)
   displ. norm   :     0.0046233 α      lambda       -0.6235362E-06
   maximum displ.:     0.0045570 α      in ANC's #1, #2, #3, ...

   *** GEOMETRY OPTIMIZATION CONVERGED AFTER 10 ITERATIONS ***

------------------------------------------------------------------------
 total energy gain   :        -0.0936080 Eh      -58.7399 kcal/mol
 total RMSD          :         0.4497299 a0        0.2380 Å
 total power (kW/mol):       -24.5767729 (step)********** (real)
------------------------------------------------------------------------

 ANCopt (total)                0 d,  0 h,  0 min,  0.016 sec
 optimizer setup                ...        0 min,  0.000 sec (  0.399%)
 model hessian                  ...        0 min,  0.000 sec (  0.239%)
 ANC generation                 ...        0 min,  0.000 sec (  0.264%)
 coordinate transformation      ...        0 min,  0.000 sec (  0.116%)
 single point calculation       ...        0 min,  0.015 sec ( 94.653%)
 optimization log               ...        0 min,  0.000 sec (  1.127%)
 hessian update                 ...        0 min,  0.000 sec (  0.144%)
 rational function              ...        0 min,  0.000 sec (  1.073%)

================
 final structure:
================
3
 xtb: 6.2.2 (9d81278992624c895f80dd42a50cac0aa55982e2)
C        -0.00040848111725    0.24628930251211    0.00000000000000
C        -1.22864390605677   -0.12518500848197    0.00000000000000
C         1.22905338717403   -0.12110429403014    0.00000000000000

 Bond Distances (Angstroems)
 ---------------------------
C1-C2=1.2832         C1-C3=1.2832         C2-C1=1.2832         C3-C1=1.2832         
 C  C  Rav=1.2832 sigma=0.0000  Rmin=1.2832  Rmax=1.2832     2

 selected bond angles (degree)
 --------------------
C3-C1-C2=146.53                

 selected dihedral angles (degree)
 ---------------------------------

           -------------------------------------------------
          |                Final Singlepoint                |
           -------------------------------------------------

          ...................................................
          :                      SETUP                      :
          :.................................................:
          :  # basis functions                  12          :
          :  # atomic orbitals                  12          :
          :  # shells                            6          :
          :  # electrons                        12          :
          :  max. iterations                   250          :
          :  Hamiltonian                  GFN2-xTB          :
          :  restarted?                      false          :
          :  GBSA solvation                  false          :
          :  PC potential                    false          :
          :  electronic temp.          300.0000000     K    :
          :  accuracy                    1.0000000          :
          :  -> integral cutoff          0.2500000E+02      :
          :  -> integral neglect         0.1000000E-07      :
          :  -> SCF convergence          0.1000000E-05 Eh   :
          :  -> wf. convergence          0.1000000E-03 e    :
          :  Broyden damping             0.4000000          :
          ...................................................

 iter      E             dE          RMSdq      gap      omega  full diag
   1     -6.2243866 -0.622439E+01  0.796E-07    1.43       0.0  T
   2     -6.2243866 -0.177636E-14  0.421E-07    1.43  100000.0  T
   3     -6.2243866  0.444089E-14  0.464E-07    1.43  100000.0  T

   *** convergence criteria satisfied after 3 iterations ***

         #    Occupation            Energy/Eh            Energy/eV
      -------------------------------------------------------------
         1        2.0000           -0.7019546             -19.1012
         2        2.0000           -0.6658396             -18.1184
         3        2.0000           -0.5287386             -14.3877
         4        2.0000           -0.5217201             -14.1967
         5        2.0000           -0.5047341             -13.7345
         6        2.0000           -0.4580704             -12.4647 (HOMO)
         7                         -0.4055416             -11.0353 (LUMO)
         8                         -0.3968094             -10.7977
         9                         -0.2282780              -6.2118
        10                         -0.1960852              -5.3357
        11                          0.3926446              10.6844
        12                          0.8921674              24.2771
      -------------------------------------------------------------
                  HL-Gap            0.0525288 Eh            1.4294 eV
             Fermi-level           -0.4318060 Eh          -11.7500 eV

 SCC (total)                   0 d,  0 h,  0 min,  0.001 sec
 SCC setup                      ...        0 min,  0.000 sec (  5.140%)
 Dispersion                     ...        0 min,  0.000 sec (  0.529%)
 integral evaluation            ...        0 min,  0.001 sec ( 41.834%)
 zeroth order Hamiltonian       ...        0 min,  0.000 sec (  0.365%)
 iterations                     ...        0 min,  0.000 sec ( 12.924%)
 molecular gradient             ...        0 min,  0.000 sec ( 35.563%)
 printout                       ...        0 min,  0.000 sec (  2.898%)

         :::::::::::::::::::::::::::::::::::::::::::::::::::::
         ::                     SUMMARY                     ::
         :::::::::::::::::::::::::::::::::::::::::::::::::::::
         :: total energy              -6.091562872989 Eh    ::
         :: gradient norm              0.000684612509 Eh/a0 ::
         :: HOMO-LUMO gap              1.429382325154 eV    ::
         ::.................................................::
         :: SCC energy                -6.224386592688 Eh    ::
         :: -> isotropic ES           -0.019460504030 Eh    ::
         :: -> anisotropic ES         -0.000134537957 Eh    ::
         :: -> anisotropic XC          0.013218240580 Eh    ::
         :: -> dispersion             -0.001036750627 Eh    ::
         :: repulsion energy           0.132823722306 Eh    ::
         :: add. restraining           0.000000000000 Eh    ::
         :::::::::::::::::::::::::::::::::::::::::::::::::::::

           ------------------------------------------------- 
          |                Numerical Hessian                |
           ------------------------------------------------- 
step length          :   0.00500
SCC accuracy         :   0.30000
Hessian scale factor :   1.00000
frozen atoms in %    :   0.00000    0
RMS gradient         :   0.00068
estimated CPU  time      0.00 min
estimated wall time      0.00 min

writing file <hessian>.

 projected vibrational frequencies (cm-1)
eigval :       -0.00    -0.00    -0.00    -0.00     0.00     0.00
eigval :      105.89  1402.54  1979.10
           -------------------------------------------------
          |                Property Printout                |
           -------------------------------------------------

    * Orbital Energies and Occupations

         #    Occupation            Energy/Eh            Energy/eV
      -------------------------------------------------------------
         1        2.0000           -0.7019546             -19.1012
         2        2.0000           -0.6658396             -18.1184
         3        2.0000           -0.5287386             -14.3877
         4        2.0000           -0.5217201             -14.1967
         5        2.0000           -0.5047341             -13.7345
         6        2.0000           -0.4580704             -12.4647 (HOMO)
         7                         -0.4055416             -11.0353 (LUMO)
         8                         -0.3968094             -10.7977
         9                         -0.2282780              -6.2118
        10                         -0.1960852              -5.3357
        11                          0.3926446              10.6844
        12                          0.8921674              24.2771
      -------------------------------------------------------------
                  HL-Gap            0.0525288 Eh            1.4294 eV
             Fermi-level           -0.4318060 Eh          -11.7500 eV

     #   Z        covCN         q      C6AA      α(0)
     1   6 C      1.962     0.101    28.559     8.630
     2   6 C      0.988    -0.051    37.527    10.293
     3   6 C      0.988    -0.051    37.527    10.293

 Mol. C6AA /au·bohr⁶  :        309.571117
 Mol. C8AA /au·bohr⁸  :       8953.334656
 Mol. α(0) /au        :         29.216107


Wiberg/Mayer (AO) data.
largest (>0.10) Wiberg bond orders for each atom
          total WBO             WBO to atom ...
     1  C   3.957        C    3 1.978    C    2 1.978
     2  C   2.667        C    1 1.978    C    3 0.689
     3  C   2.667        C    1 1.978    C    2 0.689

MOs/occ written to file <molden.input>


molecular dipole:
                 x           y           z       tot (Debye)
 q only:       -0.000       0.071      -0.000
   full:       -0.001       0.316      -0.000       0.803
molecular quadrupole (traceless):
                xx          xy          yy          xz          yz          zz
 q only:       -0.554      -0.001       0.289       0.000      -0.000       0.265
  q+dip:       -1.300      -0.003       0.737       0.000      -0.000       0.563
   full:       -4.269      -0.010       1.806       0.000       0.000       2.463

           -------------------------------------------------
          |                Geometry Summary                 |
           -------------------------------------------------

      molecular mass/u    :       36.0322077
   center of mass at/Å    :        0.0000003      -0.0000000      -0.0000000
  moments of inertia/u·Å² :        0.1092831E+01   0.3627418E+02   0.3736701E+02
rotational constants/cm⁻¹ :        0.1542565E+02   0.4647281E+00   0.4511368E+00

           -------------------------------------------------
          |               Frequency Printout                |
           -------------------------------------------------
 projected vibrational frequencies (cm-1)
eigval :       -0.00    -0.00    -0.00    -0.00     0.00     0.00
eigval :      105.89  1402.54  1979.10
 reduced masses (amu)
   1: 12.01   2: 12.01   3: 12.01   4: 12.01   5: 12.01   6: 12.01   7: 12.01   8: 12.01
   9: 12.01
 IR intensities (amu)
Molecule has the following symmetry elements: (C2) 2*(sigma) 
It seems to be the C2v point group
   1:  0.23   2:  0.07   3:  0.07   4:  0.51   5:  0.02   6:  0.01   7:  0.35   8:  0.09
   9:  0.58
 Raman intensities (amu)
   1:  0.00   2:  0.00   3:  0.00   4:  0.00   5:  0.00   6:  0.00   7:  0.00   8:  0.00
   9:  0.00
 output can be read by thermo (or use thermo option).
 writing <g98.out> molden fake output.
 recommended (thermochemical) frequency scaling factor: 1.0
           -------------------------------------------------
          |             Thermodynamic Functions             |
           -------------------------------------------------

c2v symmetry found (for desy threshold:  0.10E+00) used in thermo

          ...................................................
          :                      SETUP                      :
          :.................................................:
          :  # frequencies                           3      :
          :  # imaginary freq.                       0      :
          :  linear?                             false      :
          :  only rotor calc.                    false      :
          :  symmetry                              c2v      :
          :  rotational number                       2      :
          :  scaling factor                  1.0000000      :
          :  rotor cutoff                   50.0000000 cm⁻¹ :
          :  imag. cutoff                  -20.0000000 cm⁻¹ :
          :.................................................:

    mode    ω/cm⁻¹     T·S(HO)/kcal·mol⁻¹    T·S(FR)/kcal·mol⁻¹   T·S(vib)
   ------------------------------------------------------------------------
       1    105.89    -0.00000 ( 95.26%)     0.00582 (  4.74%)     0.00028
   ------------------------------------------------------------------------

   temp. (K)  partition function   enthalpy   heat capacity  entropy
                                   cal/mol     cal/K/mol   cal/K/mol   J/K/mol
 298.15  VIB   2.50                  458.974      2.062      3.336
         ROT  0.147E+04              888.752      2.981     17.474
         INT  0.368E+04             1347.726      5.043     20.810
         TR   0.209E+27             1481.254      4.968     36.659
         TOT                        2828.9799    10.0114    57.4689   240.4499

   temp. (K)  partition function   enthalpy   heat capacity  entropy
                                   cal/mol     cal/K/mol   cal/K/mol   J/K/mol
 120.00  VIB   1.39                  118.292      1.741      1.653
         ROT   375.                  357.707      2.981     14.761
         INT   522.                  475.999      4.721     16.414
         TR   0.534E+26              596.178      4.968     32.139
         TOT                        1072.1770     9.6896    48.5534   203.1473

   temp. (K)  partition function   enthalpy   heat capacity  entropy
                                   cal/mol     cal/K/mol   cal/K/mol   J/K/mol
 100.00  VIB   1.28                   84.373      1.644      1.350
         ROT   286.                  298.089      2.981     14.218
         INT   365.                  382.462      4.625     15.568
         TR   0.406E+26              496.815      4.968     31.234
         TOT                         879.2768     9.5927    46.8016   195.8181

   temp. (K)  partition function   enthalpy   heat capacity  entropy
                                   cal/mol     cal/K/mol   cal/K/mol   J/K/mol
  80.00  VIB   1.17                   52.973      1.482      1.006
         ROT   204.                  238.471      2.981     13.553
         INT   240.                  291.444      4.463     14.559
         TR   0.291E+26              397.452      4.968     30.126
         TOT                         688.8957     9.4307    44.6848   186.9612

   temp. (K)  partition function   enthalpy   heat capacity  entropy
                                   cal/mol     cal/K/mol   cal/K/mol   J/K/mol
  60.00  VIB   1.09                   25.944      1.192      0.624
         ROT   133.                  178.853      2.981     12.695
         INT   144.                  204.798      4.173     13.319
         TR   0.189E+26              298.089      4.968     28.697
         TOT                         502.8865     9.1411    42.0167   175.7979

   temp. (K)  partition function   enthalpy   heat capacity  entropy
                                   cal/mol     cal/K/mol   cal/K/mol   J/K/mol
  40.00  VIB   1.02                    6.866      0.669      0.244
         ROT   72.2                  119.236      2.981     11.486
         INT   73.9                  126.101      3.649     11.730
         TR   0.103E+26              198.726      4.968     26.684
         TOT                         324.8273     8.6176    38.4139   160.7239

   temp. (K)  partition function   enthalpy   heat capacity  entropy
                                   cal/mol     cal/K/mol   cal/K/mol   J/K/mol
  20.00  VIB   1.00                    0.149      0.057      0.013
         ROT   25.5                   59.618      2.981      9.420
         INT   25.6                   59.767      3.038      9.433
         TR   0.364E+25               99.363      4.968     23.242
         TOT                         159.1297     8.0058    32.6752   136.7131

   temp. (K)  partition function   enthalpy   heat capacity  entropy
                                   cal/mol     cal/K/mol   cal/K/mol   J/K/mol
  10.00  VIB   1.00                    0.000      0.000     -0.028
         ROT   9.03                   29.809      2.981      7.354
         INT   9.03                   29.809      2.981      7.326
         TR   0.129E+25               49.681      4.968     19.800
         TOT                          79.4905     7.9492    27.1264   113.4969

       T/K    H(0)-H(T)+PV         H(T)/Eh          T*S/Eh         G(T)/Eh
   ------------------------------------------------------------------------
    298.15    0.450827E-02    0.124535E-01    0.273053E-01   -0.148519E-01
    120.00    0.170862E-02    0.965381E-02    0.928497E-02    0.368843E-03
    100.00    0.140122E-02    0.934641E-02    0.745832E-02    0.188809E-02
     80.00    0.109783E-02    0.904301E-02    0.569678E-02    0.334623E-02
     60.00    0.801401E-03    0.874659E-02    0.401747E-02    0.472912E-02
     40.00    0.517645E-03    0.846283E-02    0.244866E-02    0.601417E-02
     20.00    0.253589E-03    0.819878E-02    0.104143E-02    0.715735E-02
     10.00    0.126676E-03    0.807186E-02    0.432287E-03    0.763958E-02 (used)
   ------------------------------------------------------------------------

         :::::::::::::::::::::::::::::::::::::::::::::::::::::
         ::                  THERMODYNAMIC                  ::
         :::::::::::::::::::::::::::::::::::::::::::::::::::::
         :: total free energy          -6.083923294593 Eh   ::
         ::.................................................::
         :: total energy               -6.091562872798 Eh   ::
         :: zero point energy           0.007945188767 Eh   ::
         :: G(RRHO) w/o ZPVE           -0.000305610562 Eh   ::
         :: G(RRHO) contrib.            0.007639578205 Eh   ::
         :::::::::::::::::::::::::::::::::::::::::::::::::::::

optimized geometry written to: xtbopt.xyz


           -------------------------------------------------
          | TOTAL ENERGY               -6.091562872798 Eh   |
          | TOTAL ENTHALPY             -6.083491007899 Eh   |
          | TOTAL FREE ENERGY          -6.083923294593 Eh   |
          | GRADIENT NORM               0.000684618486 Eh/α |
          | HOMO-LUMO GAP               1.429382323583 eV   |
           -------------------------------------------------

------------------------------------------------------------------------
 * finished run on 2020/05/12 at 11:44:25.239     
------------------------------------------------------------------------
 total:
 * wall-time:     0 d,  0 h,  0 min,  0.063 sec
 *  cpu-time:     0 d,  0 h,  0 min,  0.063 sec
 * ratio c/w:     0.998 speedup
 SCF:
 * wall-time:     0 d,  0 h,  0 min,  0.002 sec
 *  cpu-time:     0 d,  0 h,  0 min,  0.002 sec
 * ratio c/w:     1.000 speedup
 ANC optimizer:
 * wall-time:     0 d,  0 h,  0 min,  0.018 sec
 *  cpu-time:     0 d,  0 h,  0 min,  0.018 sec
 * ratio c/w:     0.998 speedup
 numerical hessian:
 * wall-time:     0 d,  0 h,  0 min,  0.027 sec
 *  cpu-time:     0 d,  0 h,  0 min,  0.026 sec
 * ratio c/w:     0.998 speedup

