$hessian                                                                        
        1.1521602169   0.0016732209  -0.0000040247  -0.5754363629  -0.1740253549
        0.0000023124  -0.5767238540   0.1723521340   0.0000017123
        0.0016732209   0.1416368790  -0.0000002530  -0.2178966753  -0.0714644476
        0.0000008853   0.2162234544  -0.0701724314  -0.0000006323
       -0.0000040247  -0.0000002530   0.0000000000   0.0000023890   0.0000007322
       -0.0000000000   0.0000016358  -0.0000004792  -0.0000000000
       -0.5754363629  -0.2178966753   0.0000023890   0.6307768796   0.1960682766
       -0.0000025440  -0.0553405167   0.0218283987   0.0000001551
       -0.1740253549  -0.0714644476   0.0000007322   0.1960682766   0.0620894899
       -0.0000007928  -0.0220429217   0.0093749577   0.0000000606
        0.0000023124   0.0000008853  -0.0000000000  -0.0000025440  -0.0000007928
        0.0000000000   0.0000002316  -0.0000000926  -0.0000000000
       -0.5767238540   0.2162234544   0.0000016358  -0.0553405167  -0.0220429217
        0.0000002316   0.6320643706  -0.1941805327  -0.0000018674
        0.1723521340  -0.0701724314  -0.0000004792   0.0218283987   0.0093749577
       -0.0000000926  -0.1941805327   0.0607974737   0.0000005717
        0.0000017123  -0.0000006323  -0.0000000000   0.0000001551   0.0000000606
       -0.0000000000  -0.0000018674   0.0000005717   0.0000000000
