3
 energy: -5.997954888512 gnorm: 0.299688239892 xtb: 6.2.2 (9d81278992624c895f80dd42a50cac0aa55982e2)
C        -0.00096700000000    0.58274700000000    0.00000000000000
C        -1.23568100000000   -0.29342600000000    0.00000000000000
C         1.23664900000000   -0.28932100000000    0.00000000000000
3
 energy: -6.082193768339 gnorm: 0.117821649653 xtb: 6.2.2 (9d81278992624c895f80dd42a50cac0aa55982e2)
C        -0.00078461354187    0.47280114860628    0.00000000000000
C        -1.13336253136787   -0.23828299371101    0.00000000000000
C         1.13414814490974   -0.23451815489527    0.00000000000000
3
 energy: -6.082290150206 gnorm: 0.141952010184 xtb: 6.2.2 (9d81278992624c895f80dd42a50cac0aa55982e2)
C        -0.00066878250656    0.40293649979164    0.00000000000000
C        -1.07304886107714   -0.20325037982669    0.00000000000000
C         1.07371864358370   -0.19968611996495    0.00000000000000
3
 energy: -6.090408653550 gnorm: 0.019145091831 xtb: 6.2.2 (9d81278992624c895f80dd42a50cac0aa55982e2)
C        -0.00066430040974    0.40032972049532    0.00000000000000
C        -1.14013077874115   -0.20205842252310    0.00000000000000
C         1.14079607915088   -0.19827129797221    0.00000000000000
3
 energy: -6.090876541924 gnorm: 0.009849103288 xtb: 6.2.2 (9d81278992624c895f80dd42a50cac0aa55982e2)
C        -0.00062325680720    0.37557169567281    0.00000000000000
C        -1.15455950160582   -0.18970331421273    0.00000000000000
C         1.15518375841302   -0.18586838146008    0.00000000000000
3
 energy: -6.091357926874 gnorm: 0.007134020060 xtb: 6.2.2 (9d81278992624c895f80dd42a50cac0aa55982e2)
C        -0.00053757290404    0.32401067861639    0.00000000000000
C        -1.18905768690671   -0.16398004812585    0.00000000000000
C         1.18959625981074   -0.16003063049054    0.00000000000000
3
 energy: -6.091489173332 gnorm: 0.005524326780 xtb: 6.2.2 (9d81278992624c895f80dd42a50cac0aa55982e2)
C        -0.00048737976634    0.29370862446889    0.00000000000000
C        -1.20665837497850   -0.14885816537069    0.00000000000000
C         1.20714675474485   -0.14485045909821    0.00000000000000
3
 energy: -6.091544848316 gnorm: 0.001626991552 xtb: 6.2.2 (9d81278992624c895f80dd42a50cac0aa55982e2)
C        -0.00045148956134    0.27219070497341    0.00000000000000
C        -1.21665612137872   -0.13811583647201    0.00000000000000
C         1.21710861094006   -0.13407486850140    0.00000000000000
3
 energy: -6.091560793004 gnorm: 0.002013340151 xtb: 6.2.2 (9d81278992624c895f80dd42a50cac0aa55982e2)
C        -0.00041095108661    0.24753778514683    0.00000000000000
C        -1.22933822870105   -0.12581026413056    0.00000000000000
C         1.22975017978766   -0.12172752101627    0.00000000000000
3
 energy: -6.091562872986 gnorm: 0.000684614748 xtb: 6.2.2 (9d81278992624c895f80dd42a50cac0aa55982e2)
C        -0.00040848111725    0.24628930251211    0.00000000000000
C        -1.22864390605677   -0.12518500848197    0.00000000000000
C         1.22905338717403   -0.12110429403014    0.00000000000000
