[Molden Format]
[Title]
[Atoms] AU
N      1     7 -0.41120875633889E+01 -0.53490940465809E+00 -0.22416832595989E+01
C      2     6 -0.21975856976767E+01 -0.28175417181589E+00 -0.11941903074591E+01
C      3     6  0.42311961135270E+01  0.54324754971040E+00  0.22932078109163E+01
C      4     6 -0.35522227212922E-02  0.15559598837739E-02 -0.10246688706206E-03
C      5     6  0.20820274805341E+01  0.27186006688966E+00  0.11427682230356E+01
[GTO]
           1 0
 s           4   1.0000000000000000     
   63.594024466941008      -0.19234388414721629     
   10.951417231523665      -0.23478107924953728     
  0.87999310257376984       0.37593753901700888     
  0.33538715296521110       0.14982889271862770     
 p           4   1.0000000000000000     
   7.2965040481495080       0.97658666315667420     
   1.8918745450712575       0.90372226730345739     
  0.66694432110824120       0.47404958461536373     
  0.26552202674130870        7.1516067715011844E-002

           2 0
 s           4   1.0000000000000000     
   51.049363095579913      -0.16312063210127389     
   8.7911227406887544      -0.19911024581000730     
  0.70640422258929825       0.31882047753655751     
  0.26922813413411617       0.12706504184240380     
 p           4   1.0000000000000000     
   5.8263656140800002       0.73716451545209605     
   1.5106896018720002       0.68216371614850257     
  0.53256483288000001       0.35783053929253711     
  0.21202323690600003        5.3983030275847881E-002

           3 0
 s           4   1.0000000000000000     
   51.049363095579913      -0.16312063210127389     
   8.7911227406887544      -0.19911024581000730     
  0.70640422258929825       0.31882047753655751     
  0.26922813413411617       0.12706504184240380     
 p           4   1.0000000000000000     
   5.8263656140800002       0.73716451545209605     
   1.5106896018720002       0.68216371614850257     
  0.53256483288000001       0.35783053929253711     
  0.21202323690600003        5.3983030275847881E-002

           4 0
 s           4   1.0000000000000000     
   51.049363095579913      -0.16312063210127389     
   8.7911227406887544      -0.19911024581000730     
  0.70640422258929825       0.31882047753655751     
  0.26922813413411617       0.12706504184240380     
 p           4   1.0000000000000000     
   5.8263656140800002       0.73716451545209605     
   1.5106896018720002       0.68216371614850257     
  0.53256483288000001       0.35783053929253711     
  0.21202323690600003        5.3983030275847881E-002

           5 0
 s           4   1.0000000000000000     
   51.049363095579913      -0.16312063210127389     
   8.7911227406887544      -0.19911024581000730     
  0.70640422258929825       0.31882047753655751     
  0.26922813413411617       0.12706504184240380     
 p           4   1.0000000000000000     
   5.8263656140800002       0.73716451545209605     
   1.5106896018720002       0.68216371614850257     
  0.53256483288000001       0.35783053929253711     
  0.21202323690600003        5.3983030275847881E-002

[MO]
Sym=     1a
Ene=  -0.69353423926643476     
Spin= Alpha
Occup=     2.00000000
           1  0.26154504934056189     
           2  0.12662969998674178     
           3   1.6616037802835819E-002
           4   6.9191084765683239E-002
           5  0.46559279514389279     
           6   2.5825165379493208E-002
           7   2.9409731775614269E-003
           8   1.3775517384412225E-002
           9   8.3934035112496932E-002
          10  -4.5117068778017945E-002
          11  -5.7521300726072547E-003
          12  -2.4355595999166438E-002
          13  0.45953797351157905     
          14  -3.6993668205294220E-002
          15  -4.8067725970478564E-003
          16  -1.9850427527978200E-002
          17  0.26041655916454021     
          18  -8.9298322077734263E-002
          19  -1.1686693374365691E-002
          20  -4.9301484989969155E-002
Sym=     2a
Ene=  -0.68754981574889029     
Spin= Alpha
Occup=     2.00000000
           1 -0.35439845711848678     
           2 -0.12844615424824765     
           3  -1.6976938780135072E-002
           4  -7.0263922400412918E-002
           5 -0.27028971620608683     
           6  0.17833581058272946     
           7   2.3490720888090025E-002
           8   9.7518303391975661E-002
           9  0.23525179620375028     
          10  -8.8631124116460860E-002
          11  -1.1250029390648853E-002
          12  -4.7687632566990323E-002
          13  0.24712801880091448     
          14  0.16513253044758866     
          15   2.1414928375321055E-002
          16   9.0203513195751567E-002
          17  0.39918390573845353     
          18  -2.3648324112843518E-002
          19  -3.3332140824358768E-003
          20  -1.4066773491687586E-002
Sym=     3a
Ene=  -0.66576456455352351     
Spin= Alpha
Occup=     2.00000000
           1 -0.28526053934532708     
           2  -6.1730420562224386E-002
           3  -8.2526866111203492E-003
           4  -3.3821615363738747E-002
           5   3.0329268735898328E-002
           6  0.24255826946757963     
           7   3.1715056301752802E-002
           8  0.13247154813427264     
           9 -0.45534410140085768     
          10  0.10562192154409324     
          11   1.3322554380475592E-002
          12   5.6507085558799262E-002
          13  0.27939363695162511     
          14 -0.10990835306865675     
          15  -1.3986493523495626E-002
          16  -5.9306057543209348E-002
          17 -0.25373706533558210     
          18 -0.22931506473943331     
          19  -2.9128808922791318E-002
          20 -0.12338260138860832     
Sym=     4a
Ene=  -0.61902387762699407     
Spin= Alpha
Occup=     2.00000000
           1 -0.27379513341244144     
           2   7.5558908908696237E-003
           3   7.9295967563533369E-004
           4   3.8044029313692822E-003
           5  0.21924955354555420     
           6  0.24831022571395236     
           7   3.2366688609119482E-002
           8  0.13506185499784218     
           9  0.38347282408602446     
          10  -9.3365275459246066E-003
          11  -1.0710478823816759E-003
          12  -4.5911472654796455E-003
          13  -2.8984942465554650E-002
          14 -0.36211843517803483     
          15  -4.6950188233531039E-002
          16 -0.19838630099233132     
          17 -0.15101140768466045     
          18  0.28828108816059667     
          19   3.6807154508338776E-002
          20  0.15591117757271850     
Sym=     5a
Ene=  -0.55177527253967007     
Spin= Alpha
Occup=     2.00000000
           1   8.9207044953577234E-004
           2  0.20865539342458192     
           3  -4.9829259613786647E-002
           4 -0.37061241771457809     
           5  -1.2220711954717301E-003
           6  0.24901202329679778     
           7  -5.9475537966987665E-002
           8 -0.44235129695940872     
           9  -4.7285412409432188E-004
          10   5.2113962976818404E-002
          11  -1.2636987762629641E-002
          12  -9.3777878949694179E-002
          13   9.5157725554654324E-004
          14  0.21044647771817224     
          15  -5.0112194786823661E-002
          16 -0.37288858788674623     
          17  -1.5267516510887578E-003
          18  0.12938805664466532     
          19  -3.1272184161455531E-002
          20 -0.23218198728707737     
Sym=     6a
Ene=  -0.55177517317753222     
Spin= Alpha
Occup=     2.00000000
           1  -2.3681747755986235E-004
           2  -1.8687640889708985E-002
           3  0.42247865682853852     
           4  -6.7323169346800327E-002
           5   7.6129996267593517E-004
           6  -2.2196825547624741E-002
           7  0.50425971742530773     
           8  -8.0294847602509059E-002
           9  -1.6464356580014726E-005
          10  -4.5088966463861530E-003
          11  0.10660808140110509     
          12  -1.6872312309279471E-002
          13  -2.4368684485870656E-006
          14  -1.8171917499987100E-002
          15  0.42540764702363165     
          16  -6.7427350307414410E-002
          17   2.7609700449173500E-004
          18  -1.1188498295643017E-002
          19  0.26411717172263122     
          20  -4.1810704911579087E-002
Sym=     7a
Ene=  -0.49949455007905103     
Spin= Alpha
Occup=     2.00000000
           1   2.0914741798263822E-004
           2 -0.23376789115503019     
           3   8.2475653105469934E-002
           4  0.40719373302424788     
           5  -2.0636974452025835E-004
           6 -0.13624015585561478     
           7   4.8025703389997371E-002
           8  0.23711949443534944     
           9   2.3628183534331894E-003
          10  0.16926392641442481     
          11  -6.0145903828984160E-002
          12 -0.29686165734634407     
          13   1.2749426293354685E-003
          14  0.15492165740611244     
          15  -5.4559116566876786E-002
          16 -0.26938547549993797     
          17  -3.8670627704065238E-003
          18  0.25779948612311793     
          19  -9.2446052046684254E-002
          20 -0.45613286639513806     
Sym=     8a
Ene=  -0.49949369515486858     
Spin= Alpha
Occup=     2.00000000
           1  -1.1059725175476161E-003
           2  -6.7963704711227471E-003
           3  0.46641329820253963     
           4  -9.8372936578637216E-002
           5   5.5679236421264915E-004
           6  -4.4377068963986780E-003
           7  0.27159517455242788     
           8  -5.7559205793053819E-002
           9  -1.5866072495295826E-004
          10   4.5706508402394361E-003
          11 -0.33951853710627411     
          12   7.1393906993278841E-002
          13  -1.4358770746611635E-004
          14   4.5536745495965737E-003
          15 -0.30868625735700533     
          16   6.5136049157725015E-002
          17  -2.7316025312406622E-006
          18   7.1560831153943578E-003
          19 -0.52059150064346860     
          20  0.10955334431864264     
Sym=     9a
Ene=  -0.47693479538328537     
Spin= Alpha
Occup=     2.00000000
           1 -0.60788870977041454     
           2  0.53448787398525066     
           3   6.9879398177901897E-002
           4  0.29332171221068176     
           5  0.18504608863394822     
           6 -0.13656820324116756     
           7  -1.8432704232376581E-002
           8  -7.4616662427026956E-002
           9 -0.28368589296709812     
          10 -0.21893615171342179     
          11  -2.7214411028495450E-002
          12 -0.11825200360087239     
          13 -0.18077979259852062     
          14   7.5881614091222044E-002
          15   9.2838759637737540E-003
          16   3.9078053215986154E-002
          17  0.14213171871204835     
          18   3.7687048062804741E-002
          19   5.3231294042357909E-003
          20   1.9078768459197346E-002
Sym=    10a
Ene=  -0.45513854177200419     
Spin= Alpha
Occup=     2.00000000
           1 -0.23593111317903956     
           2  0.25757801582431794     
           3   3.2981635007216611E-002
           4  0.13708860358915961     
           5   4.5515341078538728E-003
           6 -0.11761704346080872     
           7  -1.5782999631318437E-002
           8  -6.5075642614536633E-002
           9  0.55247185255449605     
          10  0.54314924783652829     
          11   6.8827911412109574E-002
          12  0.29077559238184325     
          13   7.0869264302935650E-002
          14  0.15752217148387154     
          15   2.1312074033757348E-002
          16   9.0024392282068030E-002
          17 -0.17199945263573571     
          18 -0.20942214886671329     
          19  -2.6270886942668232E-002
          20 -0.11222292878146729     
Sym=    11a
Ene=  -0.40095443315225326     
Spin= Alpha
Occup=     0.50007951
           1  -3.1597945531762318E-005
           2   3.8986558641245432E-003
           3 -0.44242725635535418     
           4  0.10037647516166165     
           5   1.7294630466913236E-004
           6  -9.3490630357521780E-004
           7  0.11968122850876764     
           8  -2.7084194545740015E-002
           9   9.6864958695732978E-006
          10   3.6624558842963889E-003
          11 -0.63729191642599425     
          12  0.14346503520800760     
          13  -1.6971525666720691E-004
          14  -3.3595799748017264E-003
          15  0.56307621097643745     
          16 -0.12682853192685523     
          17   3.3911278225221312E-005
          18   9.6905686710397438E-004
          19 -0.17093704279023270     
          20   3.8473082331188700E-002
Sym=    12a
Ene=  -0.40095382883874220     
Spin= Alpha
Occup=     0.49992049
           1   3.6598856908578341E-004
           2  0.22190033888194113     
           3  -8.5693011623184878E-002
           4 -0.38632057951417914     
           5   7.0727513156863147E-004
           6  -5.9465435586112572E-002
           7   2.3251810549817901E-002
           8  0.10479638415527961     
           9  -1.2215792887005339E-003
          10  0.31229043559635061     
          11 -0.12430449104972735     
          12 -0.56015132647913324     
          13  -2.3369499834928987E-003
          14 -0.28314558521005068     
          15  0.10890911331802948     
          16  0.49102713905904205     
          17  -7.8449357499217614E-005
          18   8.5686377331849958E-002
          19  -3.3097877315511358E-002
          20 -0.14921241743203256     
Sym=    13a
Ene=  -0.25774997633297148     
Spin= Alpha
Occup=     0.00000000
           1   8.5417146141724873E-005
           2  0.27596148787843672     
           3 -0.12334571921814311     
           4 -0.47457488133701953     
           5   4.9615712315620507E-004
           6 -0.30597815358825375     
           7  0.13697037147018448     
           8  0.52701055342003378     
           9  -4.4713172893599232E-004
          10 -0.28131269133646425     
          11  0.12769858961948100     
          12  0.49148286784732192     
          13   1.3676409795092823E-003
          14   1.3783656523840086E-002
          15  -5.3542220223574992E-003
          16  -2.0532906417185842E-002
          17  -3.7583230427373753E-003
          18  0.26150662086734411     
          19 -0.11797047311451556     
          20 -0.45397921313803580     
Sym=    14a
Ene=  -0.25774596681642514     
Spin= Alpha
Occup=     0.00000000
           1   8.5788170730740552E-005
           2  -4.5293973556435919E-003
           3 -0.54520403334249490     
           4  0.13906843499531829     
           5   9.2515938558887544E-004
           6   5.2229973588348673E-003
           7  0.60525011717998933     
           8 -0.15427149203854257     
           9  -2.9683423074378231E-006
          10   5.6937111551747261E-003
          11  0.56260459052067124     
          12 -0.14291880686752195     
          13  -5.0335293373553907E-004
          14   7.1492941205995465E-005
          15  -2.4456637181945101E-002
          16   6.3923188438375989E-003
          17   2.4138075982199197E-004
          18  -5.2735013229188374E-003
          19 -0.52046503936788602     
          20  0.13221087227111034     
Sym=    15a
Ene=  -0.12492585181053208     
Spin= Alpha
Occup=     0.00000000
           1  -4.1023303710188984E-004
           2  0.18073376910385888     
           3 -0.12659935533557931     
           4 -0.30382541166570692     
           5   3.3878811053352797E-003
           6 -0.29969732087913531     
           7  0.20898414936639301     
           8  0.50127868172780221     
           9  -1.0684463878888866E-003
          10  0.19588683822175929     
          11 -0.13533226298760129     
          12 -0.32422146570472093     
          13  -2.9109511783538440E-003
          14  0.34269483583019844     
          15 -0.23867083938463365     
          16 -0.57237309679035508     
          17   6.7162379987718342E-003
          18 -0.32379117912153710     
          19  0.22665599392252805     
          20  0.54385493108533889     
Sym=    16a
Ene=  -0.12491520183506268     
Spin= Alpha
Occup=     0.00000000
           1   1.8832178158094406E-004
           2   2.6102681222182067E-002
           3  0.35101351233385497     
           4 -0.13074414215202773     
           5  -1.4052534865099566E-003
           6  -4.2560827167962015E-002
           7 -0.57979059263649024     
           8  0.21629182835753477     
           9  -3.1164085514738092E-006
          10   2.7636131409913965E-002
          11  0.37601004957509210     
          12 -0.14024451742312458     
          13   1.0196147306362107E-003
          14   4.8648721444332660E-002
          15  0.66229098193271618     
          16 -0.24704015621090722     
          17   2.9544610022169508E-005
          18  -4.6150875880735562E-002
          19 -0.62848429442929177     
          20  0.23443753258376263     
Sym=    17a
Ene=    5.8983549604643547E-002
Spin= Alpha
Occup=     0.00000000
           1  0.16437411402650812     
           2  0.34394169362495153     
           3   4.3885751585614502E-002
           4  0.18664312135324268     
           5 -0.77397725749167934     
           6 -0.25413850722534825     
           7  -3.0147790258117552E-002
           8 -0.13571991050734974     
           9  0.19154750090147812     
          10 -0.36238624673611058     
          11  -4.7136168582244370E-002
          12 -0.19800270356359295     
          13  0.90608004242018936     
          14  -9.5796704426677176E-002
          15  -1.4289680792954076E-002
          16  -5.4203349180136168E-002
          17 -0.69444866016604057     
          18  0.15294106533203528     
          19   2.2539700202453689E-002
          20   9.1241689672898668E-002
Sym=    18a
Ene=   0.43771124692460556     
Spin= Alpha
Occup=     0.00000000
           1  0.32229938770433275     
           2  0.39226258447258838     
           3   5.1448265553404690E-002
           4  0.21439206137980943     
           5 -0.77694312353261052     
           6   3.2034440178525914E-002
           7   5.5076905021586298E-003
           8   1.8229270607561521E-002
           9 -0.51203975316875106     
          10  0.61621177114073944     
          11   7.8174107909855114E-002
          12  0.33146598097986313     
          13   9.9319144066473797E-002
          14 -0.60476129457217642     
          15  -7.7904173561179874E-002
          16 -0.32742100874035762     
          17  0.93118695927655992     
          18  0.31204532266717377     
          19   3.8139126629379377E-002
          20  0.16144406324976421     
Sym=    19a
Ene=   0.99783661785705935     
Spin= Alpha
Occup=     0.00000000
           1  0.69115379415108236     
           2  0.60562690883807846     
           3   8.0185762837088920E-002
           4  0.33126389670332534     
           5 -0.50648493273116202     
           6  0.80845606333400755     
           7  0.10658624245619382     
           8  0.44270370496309908     
           9  0.50686027903531983     
          10 -0.45980782402217074     
          11  -5.7764000592629927E-002
          12 -0.24492059713111236     
          13 -0.79960398647570596     
          14 -0.21425764176582188     
          15  -2.8808247083663151E-002
          16 -0.12038122442337507     
          17  -3.8092667909664736E-002
          18 -0.86503777747210764     
          19 -0.11044710578282241     
          20 -0.46797924330261764     
Sym=    20a
Ene=    1.4157309064588846     
Spin= Alpha
Occup=     0.00000000
           1 -0.59735668851226187     
           2 -0.45478766158344741     
           3  -6.0580924454857916E-002
           4 -0.24940387233572853     
           5 -0.11146416559399887     
           6  -1.0038720976665012     
           7 -0.13095770347825078     
           8 -0.54700100342284697     
           9  0.40113740124425179     
          10 -0.32314836618906917     
          11  -4.0346149916857220E-002
          12 -0.17123080076466268     
          13  -8.0934743101033629E-002
          14  -1.1098475407583699     
          15 -0.14349902048982557     
          16 -0.60682854283259702     
          17  0.38380845942603431     
          18 -0.90204624345940643     
          19 -0.11607306968765389     
          20 -0.49110742991126149     
