5
 energy: -10.732528182440 gnorm: 0.158658718937 xtb: 6.2.2 (9d81278992624c895f80dd42a50cac0aa55982e2)
N        -0.85484200000000   -0.14853500000000   -1.17875600000000
C        -0.00734900000000   -0.00127700000000   -0.01013400000000
C         1.11906500000000   -1.01093800000000   -0.07315400000000
C        -0.82709200000000   -0.23712400000000    1.24070400000000
C         0.57021700000000    1.39787400000000    0.02134000000000
5
 energy: -10.770653746553 gnorm: 0.103291975078 xtb: 6.2.2 (9d81278992624c895f80dd42a50cac0aa55982e2)
N        -0.82568751654930   -0.14346885174345   -1.13855384210973
C        -0.02923147088360   -0.00507939820808   -0.04030859954147
C         1.06380901112086   -0.94396686614924   -0.04667410109319
C        -0.75871732969558   -0.21930934102297    1.18371967840861
C         0.54982630600762    1.31182445712374    0.04181686433578
5
 energy: -10.813062694729 gnorm: 0.116001341936 xtb: 6.2.2 (9d81278992624c895f80dd42a50cac0aa55982e2)
N        -0.82582870117025   -0.14351558800836   -1.13872860709925
C        -0.11804308927688   -0.02050226732413   -0.16278164895456
C         1.00034934104951   -0.82004560060056    0.04675718094670
C        -0.60430538168449   -0.18201631346219    1.13005887134951
C         0.54782683108211    1.16607976939524    0.12469420375761
5
 energy: -10.903239099124 gnorm: 0.459862428067 xtb: 6.2.2 (9d81278992624c895f80dd42a50cac0aa55982e2)
N        -0.87628971888107   -0.15230287062097   -1.20829190005456
C        -0.25444112323239   -0.04419036199451   -0.35087636956651
C         0.94075311582303   -0.65375247510468    0.20143468807706
C        -0.37869889043344   -0.12912269754803    1.09218920615610
C         0.56867561672386    0.97936840526819    0.26554437538791
5
 energy: -10.977849030494 gnorm: 0.244430739005 xtb: 6.2.2 (9d81278992624c895f80dd42a50cac0aa55982e2)
N        -0.96370622490425   -0.16751467113685   -1.32881591180352
C        -0.26707796395784   -0.04638670690629   -0.36831256102764
C         0.90288650258018   -0.55708397943086    0.28760483287582
C        -0.24990447424142   -0.09870344282629    1.06584379311875
C         0.57780116052333    0.86968880030029    0.34367984683660
5
 energy: -10.797445884740 gnorm: 1.108530828618 xtb: 6.2.2 (9d81278992624c895f80dd42a50cac0aa55982e2)
N        -0.99318360518775   -0.17266731186217   -1.36947253361865
C        -0.39692383436713   -0.06901524876931   -0.54734667742552
C         0.87682947929320   -0.44673434265853    0.40546482894016
C        -0.09065383039032   -0.06197039443564    1.05863002499539
C         0.60393079065201    0.75038729772565    0.45272435710862
5
 energy: -10.980702858760 gnorm: 0.433656634018 xtb: 6.2.2 (9d81278992624c895f80dd42a50cac0aa55982e2)
N        -1.01980569666126   -0.17731552853887   -1.40618881670040
C        -0.40129797168495   -0.06979958493503   -0.55337344967923
C         0.97916597319567   -0.56226893120424    0.36775077858371
C        -0.20361447684282   -0.09188769681995    1.16628555469886
C         0.64555117199336    0.90127174149808    0.42552593309706
5
 energy: -10.955482153964 gnorm: 0.359944030994 xtb: 6.2.2 (9d81278992624c895f80dd42a50cac0aa55982e2)
N        -1.04495194912132   -0.18174864241150   -1.44082923588096
C        -0.26437900237524   -0.04631840103030   -0.36453295758243
C         0.92972241456605   -0.55240789530960    0.32304098064934
C        -0.22415912330332   -0.09320383113773    1.10206830825389
C         0.60376666023384    0.87367876988913    0.38025290456015
5
 energy: -11.003340438560 gnorm: 0.146840395024 xtb: 6.2.2 (9d81278992624c895f80dd42a50cac0aa55982e2)
N        -1.04568090313721   -0.18282130307552   -1.44170997235755
C        -0.33418850491457   -0.05972028704850   -0.46058411265086
C         0.96215448765753   -0.55705179020898    0.34906905657600
C        -0.21176949622902   -0.08869604366754    1.14207492976163
C         0.62948341662327    0.88828942400054    0.41115009867078
5
 energy: -11.012278526374 gnorm: 0.107661456400 xtb: 6.2.2 (9d81278992624c895f80dd42a50cac0aa55982e2)
N        -1.01991985141877   -0.18785592758910   -1.40454482128893
C        -0.35998023300979   -0.08114718053899   -0.49300510129802
C         0.98650585563143   -0.54954134858061    0.31921286532290
C        -0.23039760336768   -0.04888829709576    1.14529231727347
C         0.62379083216479    0.86743275380447    0.43304473999059
5
 energy: -11.011778817932 gnorm: 0.281918319440 xtb: 6.2.2 (9d81278992624c895f80dd42a50cac0aa55982e2)
N        -1.01664590818420   -0.22202810184953   -1.37960520253807
C        -0.38870300938445   -0.13269818087371   -0.48429636694080
C         1.07364466473278   -0.47763566871527    0.21835193916185
C        -0.32049701094929    0.05516940950270    1.16332374736022
C         0.65220026378517    0.77719254193582    0.48222588295679
5
 energy: -11.043536346613 gnorm: 0.123292086272 xtb: 6.2.2 (9d81278992624c895f80dd42a50cac0aa55982e2)
N        -1.03294340531784   -0.27863691176905   -1.38343135346842
C        -0.36458455123497   -0.16185208510152   -0.45043981774657
C         1.12006152976479   -0.46078822097066    0.12869812632853
C        -0.37138593589514    0.15815655513786    1.15210973872971
C         0.64885136268316    0.74312066270337    0.55306330615675
5
 energy: -11.044617597918 gnorm: 0.207383840070 xtb: 6.2.2 (9d81278992624c895f80dd42a50cac0aa55982e2)
N        -1.08871014052752   -0.39358307316579   -1.38643135638523
C        -0.31714391957633   -0.22578606866393   -0.32571047353784
C         1.25868058919054   -0.34132811665055   -0.08908332366142
C        -0.56029084181337    0.35244653158821    1.14546629848805
C         0.70746331272669    0.60825072689206    0.65575885509644
5
 energy: -11.031351313135 gnorm: 0.292841135931 xtb: 6.2.2 (9d81278992624c895f80dd42a50cac0aa55982e2)
N        -1.05668854213971   -0.43458278667203   -1.35580721282893
C        -0.31555866292369   -0.24071772102747   -0.39777884677509
C         1.24516736913889   -0.43232610273901   -0.11452929606689
C        -0.50044761985475    0.44844262533609    1.10842964975318
C         0.62752645577926    0.65918398510242    0.75968570591772
5
 energy: -11.064173277944 gnorm: 0.058784282819 xtb: 6.2.2 (9d81278992624c895f80dd42a50cac0aa55982e2)
N        -1.07134287240221   -0.41777126927195   -1.31555569481726
C        -0.33606951729119   -0.17047201494221   -0.41322911323694
C         1.17105582734075   -0.40056744482433   -0.01204903503255
C        -0.48299593671925    0.27064019610888    1.08072900154634
C         0.71935149907190    0.71817053292961    0.66010484154042
5
 energy: -11.063920927458 gnorm: 0.111836250636 xtb: 6.2.2 (9d81278992624c895f80dd42a50cac0aa55982e2)
N        -1.07430527484698   -0.41060760721038   -1.33841309934261
C        -0.32508969219290   -0.20305917358293   -0.36716779082400
C         1.21284476760609   -0.36226997510938   -0.06084223469349
C        -0.52758875897715    0.31942393432862    1.10527886430333
C         0.71413795841094    0.65651282157407    0.66114426055677
5
 energy: -11.066759462598 gnorm: 0.051933021340 xtb: 6.2.2 (9d81278992624c895f80dd42a50cac0aa55982e2)
N        -1.05941653427212   -0.37743537317353   -1.33600882217314
C        -0.33345675670914   -0.19513264169083   -0.38397781423780
C         1.19124840027572   -0.38355425085908   -0.02044612036861
C        -0.49366958215259    0.28451481620720    1.10718109958234
C         0.69529347285814    0.67160744951625    0.63325165719721
5
 energy: -11.067022802113 gnorm: 0.049173729243 xtb: 6.2.2 (9d81278992624c895f80dd42a50cac0aa55982e2)
N        -1.06212278206775   -0.41463574434575   -1.31976278111930
C        -0.33427713461821   -0.18780311270360   -0.39664187629211
C         1.18982610614920   -0.38751052126269   -0.04099711131098
C        -0.49842727425199    0.30603503196402    1.08948764512711
C         0.70500008478874    0.68391434634802    0.66791412359527
5
 energy: -11.067835771251 gnorm: 0.040758373939 xtb: 6.2.2 (9d81278992624c895f80dd42a50cac0aa55982e2)
N        -1.05972285385037   -0.40468381093686   -1.32394659570084
C        -0.33483281683526   -0.19067439636739   -0.38990859770968
C         1.19353709633986   -0.38053954643158   -0.04079915022337
C        -0.50165112391974    0.30453511058087    1.09616210842637
C         0.70266869826551    0.67136264315497    0.65849223520751
5
 energy: -11.068699706132 gnorm: 0.034406174903 xtb: 6.2.2 (9d81278992624c895f80dd42a50cac0aa55982e2)
N        -1.05557559925967   -0.40211090832646   -1.32393849308698
C        -0.33785916779307   -0.19062489853619   -0.38450121238209
C         1.20017529059093   -0.36874180706660   -0.04880758727466
C        -0.50932028901419    0.31055393791550    1.10140829402554
C         0.70257876547601    0.65092367601376    0.65583899871818
5
 energy: -11.069635311990 gnorm: 0.028085391927 xtb: 6.2.2 (9d81278992624c895f80dd42a50cac0aa55982e2)
N        -1.05312871382125   -0.41155911730781   -1.31754563400324
C        -0.34166726954027   -0.18617404671246   -0.38389775922694
C         1.21224715278009   -0.35484736431317   -0.06662721631121
C        -0.52263303372743    0.32793580799138    1.10208920158962
C         0.70518086430886    0.62464472034206    0.66598140795177
5
 energy: -11.070330362612 gnorm: 0.013506194270 xtb: 6.2.2 (9d81278992624c895f80dd42a50cac0aa55982e2)
N        -1.05178535696716   -0.42081949781957   -1.31097036193450
C        -0.34139345599068   -0.16846356020872   -0.39221182528034
C         1.21614801396750   -0.35908393253995   -0.07028330626295
C        -0.52623949556346    0.32790241779934    1.10426460224940
C         0.70326929455381    0.62046457276890    0.66920089122840
5
 energy: -11.070929306124 gnorm: 0.010144136812 xtb: 6.2.2 (9d81278992624c895f80dd42a50cac0aa55982e2)
N        -1.05340440351981   -0.44008166921042   -1.30381249412590
C        -0.34088466767755   -0.13825199095261   -0.40585422454462
C         1.22589396053037   -0.36101144236280   -0.07857244139454
C        -0.53328754175067    0.33397360869782    1.10836053870460
C         0.70168165241767    0.60537149382800    0.67987862136046
5
 energy: -11.071108182622 gnorm: 0.008914413713 xtb: 6.2.2 (9d81278992624c895f80dd42a50cac0aa55982e2)
N        -1.05358566598850   -0.44877266784024   -1.29973038062715
C        -0.34075360935161   -0.12666779384854   -0.41043955676435
C         1.23271450052534   -0.35793330438309   -0.08577001091847
C        -0.53919608817659    0.34176092668549    1.10943927573199
C         0.70081986299137    0.59161283938638    0.68650067257799
5
 energy: -11.071246529912 gnorm: 0.005758231221 xtb: 6.2.2 (9d81278992624c895f80dd42a50cac0aa55982e2)
N        -1.05311032117505   -0.45390312976285   -1.29628222236065
C        -0.34107857714445   -0.12120548591975   -0.41175135165205
C         1.24139482876124   -0.35240536429541   -0.09368276852112
C        -0.54618356324199    0.35215655453096    1.11050318756193
C         0.69897663280026    0.57535742544706    0.69121315497190
5
 energy: -11.071322584791 gnorm: 0.003333052601 xtb: 6.2.2 (9d81278992624c895f80dd42a50cac0aa55982e2)
N        -1.05277326845220   -0.45416485795034   -1.29542267704999
C        -0.34196868985318   -0.12225465310592   -0.41002523530174
C         1.24953663335571   -0.34789862717857   -0.09844671567209
C        -0.55108182526214    0.36029520059397    1.11221436176885
C         0.69628615021182    0.56402293764086    0.69168026625497
5
 energy: -11.071360926842 gnorm: 0.002742724538 xtb: 6.2.2 (9d81278992624c895f80dd42a50cac0aa55982e2)
N        -1.05261441655478   -0.45195629597981   -1.29623521231838
C        -0.34338024798722   -0.12569729856459   -0.40724668763769
C         1.25667357477840   -0.34559368844132   -0.10028935913890
C        -0.55383867818425    0.36524874279414    1.11453525108872
C         0.69315876794786    0.55799854019158    0.68923600800625
5
 energy: -11.071378986952 gnorm: 0.002563890217 xtb: 6.2.2 (9d81278992624c895f80dd42a50cac0aa55982e2)
N        -1.05243190263381   -0.44943602587092   -1.29750573848875
C        -0.34507813900855   -0.12836236304104   -0.40499686221906
C         1.26158892230010   -0.34550559483869   -0.09980010241977
C        -0.55465920387328    0.36670392947001    1.11670589185638
C         0.69057932321554    0.55660005428064    0.68559681127120
5
 energy: -11.071391636446 gnorm: 0.002380298594 xtb: 6.2.2 (9d81278992624c895f80dd42a50cac0aa55982e2)
N        -1.05210252223205   -0.44725118793317   -1.29883871242981
C        -0.34731444469785   -0.12966798250198   -0.40320189090366
C         1.26522186518247   -0.34661327143931   -0.09792290036450
C        -0.55442171233933    0.36598759096473    1.11856286864757
C         0.68861581408676    0.55754485090973    0.68140063505040
5
 energy: -11.071405492646 gnorm: 0.002796126096 xtb: 6.2.2 (9d81278992624c895f80dd42a50cac0aa55982e2)
N        -1.05150811050226   -0.44548815631954   -1.30027738097954
C        -0.35079068559050   -0.12959824288595   -0.40126558792919
C         1.26871822387733   -0.34827582456263   -0.09508995206272
C        -0.55366336711894    0.36389526004049    1.11994682694791
C         0.68724293933437    0.55946696372763    0.67668609402354
5
 energy: -11.071443169315 gnorm: 0.005396574005 xtb: 6.2.2 (9d81278992624c895f80dd42a50cac0aa55982e2)
N        -1.04980976357046   -0.44268283314974   -1.30337679302146
C        -0.36062271767406   -0.12765499763931   -0.39614861344629
C         1.27724975102579   -0.35135318599418   -0.08889459084367
C        -0.55222998506358    0.35904302837179    1.12149911610624
C         0.68541171528231    0.56264798841144    0.66692088120518
5
 energy: -11.071581595765 gnorm: 0.073270512738 xtb: 6.2.2 (9d81278992624c895f80dd42a50cac0aa55982e2)
N        -1.02736541201949   -0.40994856808902   -1.34242246179218
C        -0.49358114109993   -0.09970290507400   -0.32671688828158
C         1.39345255126941   -0.38558264556524   -0.01326798403035
C        -0.53735957284931    0.30163080350969    1.13607166221119
C         0.66485257469932    0.59360331521857    0.54633567189292
5
 energy: -11.072325850779 gnorm: 0.030671307636 xtb: 6.2.2 (9d81278992624c895f80dd42a50cac0aa55982e2)
N        -1.03813122871655   -0.42666726436661   -1.32201219747895
C        -0.43952558195195   -0.10871242487118   -0.35944376659175
C         1.35381389480828   -0.36605378517891   -0.04883346850047
C        -0.54829998912139    0.33366536638885    1.12912235672329
C         0.67214190498161    0.56776810802785    0.60116707584789
5
 energy: -11.076051900102 gnorm: 0.063594940199 xtb: 6.2.2 (9d81278992624c895f80dd42a50cac0aa55982e2)
N        -1.02958563580334   -0.41447669554213   -1.33644307940543
C        -0.53778162330099   -0.08287426234195   -0.32438808552320
C         1.46882376052530   -0.36891510725773   -0.01088183558926
C        -0.55504521212137    0.32544157374490    1.13638101770730
C         0.65358771070040    0.54082449139691    0.53533198281060
5
 energy: -11.079185425793 gnorm: 0.099708044673 xtb: 6.2.2 (9d81278992624c895f80dd42a50cac0aa55982e2)
N        -1.02805465833727   -0.40498836477700   -1.35080718392580
C        -0.64214876409857   -0.05675291475966   -0.29585415501362
C         1.59270976709477   -0.36474840465617    0.03199732127010
C        -0.56085109193145    0.32110098306885    1.13954454289408
C         0.63834374727252    0.50538870112399    0.47511947477525
5
 energy: -11.089591249183 gnorm: 0.082525489915 xtb: 6.2.2 (9d81278992624c895f80dd42a50cac0aa55982e2)
N        -1.06017841905757   -0.42019289515582   -1.35355938620856
C        -0.72661522294748   -0.03887456851682   -0.31556919195395
C         1.68449804760392   -0.32268514957061    0.07417134715682
C        -0.55651175592422    0.33638577206910    1.10681763214884
C         0.65880635032536    0.44536684117415    0.48813959885685
5
 energy: -11.106962739660 gnorm: 0.086165552440 xtb: 6.2.2 (9d81278992624c895f80dd42a50cac0aa55982e2)
N        -1.11818574390603   -0.43857960832189   -1.37618441841193
C        -0.83678158978475   -0.04835771877017   -0.34629832557170
C         1.72949319258189   -0.25564108199485    0.15746389541444
C        -0.50793142874116    0.32441895246105    1.02149728447254
C         0.73340456985006    0.41815945662587    0.54352156409665
5
 energy: -11.112676818835 gnorm: 0.387002235987 xtb: 6.2.2 (9d81278992624c895f80dd42a50cac0aa55982e2)
N        -1.23242874041207   -0.46290877445026   -1.42367554949718
C        -1.09892587781643   -0.08282431448735   -0.37602494099062
C         1.86041598668276   -0.11851197028087    0.31990053003852
C        -0.42060709906659    0.30129676309399    0.82032506381148
C         0.89154473061233    0.36294829612449    0.65947489663780
5
 energy: -11.140605907521 gnorm: 0.102878753431 xtb: 6.2.2 (9d81278992624c895f80dd42a50cac0aa55982e2)
N        -1.24699337264508   -0.45859397464818   -1.40899147858308
C        -1.10977552540777   -0.05916942041538   -0.35953414806342
C         1.97536845015788   -0.11261701071569    0.30886665845207
C        -0.45713372868485    0.34080399269324    0.82943650201530
C         0.83853317657982    0.28957641308601    0.63022246617912
5
 energy: -11.145714529067 gnorm: 0.066215721272 xtb: 6.2.2 (9d81278992624c895f80dd42a50cac0aa55982e2)
N        -1.30550512166303   -0.47705627446950   -1.41416590451398
C        -1.19434885526445   -0.04104374677992   -0.36174429215743
C         2.08333226819176   -0.06282454413557    0.35264557199874
C        -0.45257494956558    0.35435188126715    0.75276888201427
C         0.86909565830129    0.22657268411785    0.67049574265840
5
 energy: -11.151128477097 gnorm: 0.062843840949 xtb: 6.2.2 (9d81278992624c895f80dd42a50cac0aa55982e2)
N        -1.35468788236340   -0.47659932048806   -1.40393989035570
C        -1.16456273803530   -0.03841614494969   -0.36194873020899
C         2.07142074840263   -0.07016631315703    0.37671772225745
C        -0.43338297706380    0.32172318821598    0.68033113708487
C         0.88121184905988    0.26345859037881    0.70883976122237
5
 energy: -11.157629766062 gnorm: 0.097931141113 xtb: 6.2.2 (9d81278992624c895f80dd42a50cac0aa55982e2)
N        -1.46411807537605   -0.49885605561860   -1.43977753060386
C        -1.20829814174185    0.00324490149646   -0.38792281687013
C         2.10175203789402   -0.07063056109133    0.50177977808857
C        -0.33861901934733    0.24374649641873    0.57570483338581
C         0.90928219857122    0.32249521879474    0.75021573599961
5
 energy: -11.163452582340 gnorm: 0.061292331306 xtb: 6.2.2 (9d81278992624c895f80dd42a50cac0aa55982e2)
N        -1.58367830273728   -0.50391854426069   -1.44365924079295
C        -1.24687025930723   -0.00849326312421   -0.43042285981702
C         2.17287400529588   -0.02977132952338    0.59582199446239
C        -0.29529544969693    0.21871173094215    0.45725511537676
C         0.95296900644556    0.32347140596612    0.82100499077082
5
 energy: -11.166835319019 gnorm: 0.039326475206 xtb: 6.2.2 (9d81278992624c895f80dd42a50cac0aa55982e2)
N        -1.65993700378264   -0.50424125952233   -1.42713226315512
C        -1.22296992276051    0.01340242827780   -0.46854084561773
C         2.18856952936776   -0.00010694084506    0.64583398170103
C        -0.26294286399408    0.17273694578758    0.43758941893301
C         0.95727926116947    0.31820882630200    0.81224970813881
5
 energy: -11.166427096885 gnorm: 0.128235993152 xtb: 6.2.2 (9d81278992624c895f80dd42a50cac0aa55982e2)
N        -1.78159295785306   -0.41662272772681   -1.44537698233029
C        -1.20732530431366   -0.16145822856498   -0.44709300338972
C         2.20604692069631    0.02434964451313    0.74308350733941
C        -0.18153930044819    0.26204562987028    0.35375154805586
C         0.96440964191862    0.29168568190838    0.79563493032478
5
 energy: -11.174380867795 gnorm: 0.036045367925 xtb: 6.2.2 (9d81278992624c895f80dd42a50cac0aa55982e2)
N        -1.83114875794924   -0.46002576556937   -1.40997377433359
C        -1.18940160011311   -0.07482153132449   -0.51177155915221
C         2.24674199221360    0.07302310820443    0.75065805113442
C        -0.19360629352028    0.22755579260773    0.33508134068291
C         0.96741365936904    0.23426839608169    0.83600594166848
5
 energy: -11.175428279203 gnorm: 0.081343912676 xtb: 6.2.2 (9d81278992624c895f80dd42a50cac0aa55982e2)
N        -1.93184633346577   -0.42560349800883   -1.39703760720306
C        -1.18382216425627   -0.08360105382980   -0.53790663909702
C         2.29035812197111    0.08699423998973    0.85961802948046
C        -0.16964284167874    0.13582309768400    0.29909031439461
C         0.99495221742970    0.28638721416490    0.77623590242507
5
 energy: -11.177721968390 gnorm: 0.025531404417 xtb: 6.2.2 (9d81278992624c895f80dd42a50cac0aa55982e2)
N        -1.93007406969688   -0.41165977163704   -1.37918997785407
C        -1.18498249810647   -0.10311223874986   -0.54026471481040
C         2.28786625570623    0.09602052109966    0.86811942432267
C        -0.17167106552947    0.15068438268239    0.27629687264676
C         0.99886037762662    0.26806710660485    0.77503839569510
5
 energy: -11.178479321316 gnorm: 0.041713786110 xtb: 6.2.2 (9d81278992624c895f80dd42a50cac0aa55982e2)
N        -2.00568167040693   -0.39880119314727   -1.34836329239857
C        -1.16254774601475   -0.12636886052152   -0.57708347744485
C         2.30268560115708    0.14766567486740    0.91001958743585
C        -0.14049447565255    0.17867266988139    0.21656621202461
C         1.00603729091718    0.19883170892000    0.79886097038300
5
 energy: -11.180142166013 gnorm: 0.033356259350 xtb: 6.2.2 (9d81278992624c895f80dd42a50cac0aa55982e2)
N        -2.03725259346119   -0.36920750387002   -1.32846412826830
C        -1.15821725046323   -0.13853886067472   -0.58727990066132
C         2.30001074387043    0.14896571474010    0.96680557705295
C        -0.12571948724342    0.12196054735203    0.20048041711872
C         1.02117758729746    0.23682010245260    0.74845803475803
5
 energy: -11.181021945391 gnorm: 0.006914510208 xtb: 6.2.2 (9d81278992624c895f80dd42a50cac0aa55982e2)
N        -2.05647477555079   -0.35276877431512   -1.30572775124691
C        -1.15566328228038   -0.14404639104633   -0.60043224112835
C         2.29194015280486    0.16182364209156    1.00075271356918
C        -0.11006315900102    0.09779478150839    0.18142443367362
C         1.03026006402739    0.23719674176148    0.72398284513255
5
 energy: -11.180352790904 gnorm: 0.067648421233 xtb: 6.2.2 (9d81278992624c895f80dd42a50cac0aa55982e2)
N        -2.15764011493689   -0.29990036294662   -1.24352986941627
C        -1.14603793120623   -0.17146881088128   -0.64587071976882
C         2.30188973347981    0.21312321247795    1.12753729200865
C        -0.05980171652441    0.03135780661660    0.10156265283333
C         1.06158902918778    0.22688815473333    0.66030064434324
5
 energy: -11.181867252629 gnorm: 0.009579444860 xtb: 6.2.2 (9d81278992624c895f80dd42a50cac0aa55982e2)
N        -2.10347659629461   -0.32742575585964   -1.26786922370832
C        -1.15268803748930   -0.15405669932938   -0.62441356753838
C         2.28913005131355    0.19416959036217    1.06427363332335
C        -0.08029059857576    0.06688699724289    0.13470978062549
C         1.04732418104618    0.22042586758394    0.69329937729797
5
 energy: -11.182133610669 gnorm: 0.008832319706 xtb: 6.2.2 (9d81278992624c895f80dd42a50cac0aa55982e2)
N        -2.11989984202069   -0.31924546835313   -1.25286864931488
C        -1.15123088352905   -0.15651848306619   -0.63237165838854
C         2.28651569899230    0.20837116888958    1.08645683026588
C        -0.06871345316892    0.05821432625570    0.11449740529317
C         1.05332747972641    0.20917845627403    0.68428607214449
5
 energy: -11.182352584619 gnorm: 0.029655036455 xtb: 6.2.2 (9d81278992624c895f80dd42a50cac0aa55982e2)
N        -2.18344455528182   -0.28373175094429   -1.19122903170195
C        -1.15100584699093   -0.16476457656590   -0.65951857107538
C         2.27467511212364    0.26549475062824    1.18345264222329
C        -0.02089648667530    0.01500616099789    0.02860842980878
C         1.08067077682447    0.16799541588405    0.63868653074539
5
 energy: -11.182725396338 gnorm: 0.007023678372 xtb: 6.2.2 (9d81278992624c895f80dd42a50cac0aa55982e2)
N        -2.15676794928365   -0.29797179683914   -1.21192179448542
C        -1.15075625288943   -0.15919541503955   -0.64720891224310
C         2.27158160366546    0.24691317915457    1.14589621797961
C        -0.03560194068574    0.03160879358007    0.05606726852715
C         1.07154353919341    0.17864523914403    0.65716722022189
5
 energy: -11.182867186691 gnorm: 0.007358430955 xtb: 6.2.2 (9d81278992624c895f80dd42a50cac0aa55982e2)
N        -2.16512902238133   -0.29152768936016   -1.20024961094037
C        -1.15174146695741   -0.15909008143196   -0.64870289195713
C         2.26481417387153    0.25770749541589    1.16394344018834
C        -0.02514279441718    0.02203559998140    0.03828806675676
C         1.07719810988444    0.17087467539481    0.64672099595253
5
 energy: -11.183047149326 gnorm: 0.008828751447 xtb: 6.2.2 (9d81278992624c895f80dd42a50cac0aa55982e2)
N        -2.19041522264163   -0.27275776991676   -1.16679100696401
C        -1.15260431168158   -0.15892609930299   -0.65211000343947
C         2.24200699016437    0.28931018467726    1.21623485729931
C         0.00682203286377   -0.00627326532071   -0.01413684039788
C         1.09418951129515    0.14864694986317    0.61680299350219
5
 energy: -11.183107247883 gnorm: 0.006581468569 xtb: 6.2.2 (9d81278992624c895f80dd42a50cac0aa55982e2)
N        -2.18304459159874   -0.27463802602126   -1.17144433775564
C        -1.15490532294429   -0.15729454943200   -0.64583670381246
C         2.23971360051558    0.28519242844908    1.21156929243528
C         0.00446218610833   -0.00592532678419   -0.01033180465030
C         1.09377312791920    0.15266547378835    0.61604355378326
5
 energy: -11.183123443028 gnorm: 0.003428082838 xtb: 6.2.2 (9d81278992624c895f80dd42a50cac0aa55982e2)
N        -2.18476041874278   -0.27295209972026   -1.16889790026033
C        -1.15468510157196   -0.15701564073782   -0.64413207394973
C         2.23507514590802    0.28841971901590    1.21666316964860
C         0.00825566937324   -0.00876191765207   -0.01615595710301
C         1.09611370503354    0.15030993909423    0.61252276166460
5
 energy: -11.183133957070 gnorm: 0.002916568962 xtb: 6.2.2 (9d81278992624c895f80dd42a50cac0aa55982e2)
N        -2.18650636251568   -0.27032569591286   -1.16640716070063
C        -1.15647526896860   -0.15680791273828   -0.64097197995830
C         2.23087974347629    0.29207547412130    1.22507592294622
C         0.01232706079672   -0.01337142235499   -0.02309765420961
C         1.09977382721133    0.14842955688480    0.60540087192245
5
 energy: -11.183144310036 gnorm: 0.001852739297 xtb: 6.2.2 (9d81278992624c895f80dd42a50cac0aa55982e2)
N        -2.18529443045003   -0.27139353665550   -1.16904109761451
C        -1.15716269873678   -0.15638892590490   -0.63893724214757
C         2.23110479777268    0.29132103093150    1.22418467776265
C         0.01106101872528   -0.01209918449911   -0.02102073486433
C         1.10029031268892    0.14856061612800    0.60481439686390
5
 energy: -11.183169931505 gnorm: 0.005809575652 xtb: 6.2.2 (9d81278992624c895f80dd42a50cac0aa55982e2)
N        -2.17653479868358   -0.28031754613537   -1.18705921725324
C        -1.16251512670178   -0.15250378558826   -0.62880238617410
C         2.23734261748703    0.28510816604971    1.21484595864580
C        -0.00005134298109   -0.00166755934669   -0.00297953502260
C         1.10175765087949    0.14938072502059    0.60399517980428
5
 energy: -11.183178855138 gnorm: 0.003039554012 xtb: 6.2.2 (9d81278992624c895f80dd42a50cac0aa55982e2)
N        -2.17649197092870   -0.28093509311155   -1.18632610209047
C        -1.16244229323559   -0.15174384726242   -0.63033975928949
C         2.23824092047227    0.28556359238092    1.21405440626855
C        -0.00044606417517   -0.00103795310250   -0.00233580963264
C         1.10113840786726    0.14815330109553    0.60494726474419
5
 energy: -11.183184005152 gnorm: 0.000994217271 xtb: 6.2.2 (9d81278992624c895f80dd42a50cac0aa55982e2)
N        -2.17614247374108   -0.28241988114441   -1.18620493396768
C        -1.16273157272831   -0.15003050615832   -0.63176476846546
C         2.23929392216089    0.28652836263677    1.21314409933795
C        -0.00145957824928    0.00027039647293   -0.00072166754527
C         1.10103870255785    0.14565162819302    0.60554727064060
5
 energy: -11.183185521105 gnorm: 0.000981708366 xtb: 6.2.2 (9d81278992624c895f80dd42a50cac0aa55982e2)
N        -2.17601760673654   -0.28307121632562   -1.18625589489827
C        -1.16290939153294   -0.14910288668022   -0.63194267437779
C         2.23904702466191    0.28748385551183    1.21352174350307
C        -0.00187975960845    0.00082336884022   -0.00005422827109
C         1.10175873321608    0.14386687865377    0.60473105404421
