      -----------------------------------------------------------      
     |                   =====================                   |     
     |                           x T B                           |     
     |                   =====================                   |     
     |                         S. Grimme                         |     
     |          Mulliken Center for Theoretical Chemistry        |     
     |                    University of Bonn                     |     
      -----------------------------------------------------------      

   * xtb version 6.2.2 (9d81278992624c895f80dd42a50cac0aa55982e2) compiled by '@Darwin' on 04/03/2020

   xtb is free software: you can redistribute it and/or modify it under
   the terms of the GNU Lesser General Public License as published by
   the Free Software Foundation, either version 3 of the License, or
   (at your option) any later version.
   
   xtb is distributed in the hope that it will be useful,
   but WITHOUT ANY WARRANTY; without even the implied warranty of
   MERCHANTABILITY or FITNESS FOR A PARTICULAR PURPOSE.  See the
   GNU Lesser General Public License for more details.
   
   Cite this work as:
   * S. Grimme, C. Bannwarth, P. Shushkov, J. Chem. Theory Comput., 2017,
     13, 1989-2009. DOI: 10.1021/acs.jctc.7b00118
   * C. Bannwarth, S. Ehlert and S. Grimme., J. Chem. Theory Comput., 2019,
     15, 1652-1671. DOI: 10.1021/acs.jctc.8b01176
   * P. Pracht, E. Caldeweyher, S. Ehlert, S. Grimme, ChemRxiv, 2019, preprint.
     DOI: 10.26434/chemrxiv.8326202.v1
   
   for DFT-D4:
   * E. Caldeweyher, C. Bannwarth and S. Grimme, J. Chem. Phys., 2017,
     147, 034112. DOI: 10.1063/1.4993215
   * E. Caldeweyher, S. Ehlert, A. Hansen, H. Neugebauer, S. Spicher,
     C. Bannwarth and S. Grimme, J. Chem. Phys., 2019, 150, 154122.
     DOI: 10.1063/1.5090222
   
   for sTDA-xTB:
   * S. Grimme and C. Bannwarth, J. Chem. Phys., 2016, 145, 054103.
     DOI: 10.1063/1.4959605
   
   in the mass-spec context:
   * V. Asgeirsson, C. Bauer and S. Grimme, Chem. Sci., 2017, 8, 4879.
     DOI: 10.1039/c7sc00601b
   
   for metadynamics refer to:
   * S. Grimme, J. Chem. Theory Comput., 2019, 155, 2847-2862
     DOI: 10.1021/acs.jctc.9b00143
   
   with help from (in alphabetical order)
   C. Bannwarth, F. Bohle, G. Brandenburg, E. Caldeweyher, M. Checinski,
   S. Dohm, S. Ehlert, S. Ehrlich, F. März, H. Neugebauer, J. Pisarek,
   P. Pracht, P. Shushkov, and S. Spicher.
   
 * started run on 2020/05/12 at 11:43:56.002     

           -------------------------------------------------
          |                Calculation Setup                |
           -------------------------------------------------

          program call               : xtb --input C4N1_0_S_1.input C4N1_0_S_1.xyz --ohess --molden --namespace C4N1_0_S_1 output.out
          calculation namespace      : C4N1_0_S_1
          coordinate file            : C4N1_0_S_1.xyz
          number of atoms            :                     5
          number of electrons        :                    21
          charge                     :                     0
          spin                       :                   0.5
          first test random number   :      0.06812519717726

   ID    Z sym.   atoms
    1    7 N      1
    2    6 C      2-5

           -------------------------------------------------
          |                 G F N 2 - x T B                 |
           -------------------------------------------------

        Reference                      10.1021/acs.jctc.8b01176
      * Hamiltonian:
        H0-scaling (s, p, d)           1.850000    2.230000    2.230000
        zeta-weighting                 0.500000
      * Dispersion:
        s8                             2.700000
        a1                             0.520000
        a2                             5.000000
        s9                             5.000000
      * Repulsion:
        kExp                           1.500000    1.000000
        rExp                           1.000000
      * Coulomb:
        alpha                          2.000000
        third order                    shell-resolved
        anisotropic                    true
        a3                             3.000000
        a5                             4.000000
        cn-shift                       1.200000
        cn-exp                         4.000000
        max-rad                        5.000000


          ...................................................
          :                      SETUP                      :
          :.................................................:
          :  # basis functions                  20          :
          :  # atomic orbitals                  20          :
          :  # shells                           10          :
          :  # electrons                        21          :
          :  max. iterations                   250          :
          :  Hamiltonian                  GFN2-xTB          :
          :  restarted?                      false          :
          :  GBSA solvation                  false          :
          :  PC potential                    false          :
          :  electronic temp.          300.0000000     K    :
          :  accuracy                    1.0000000          :
          :  -> integral cutoff          0.2500000E+02      :
          :  -> integral neglect         0.1000000E-07      :
          :  -> SCF convergence          0.1000000E-05 Eh   :
          :  -> wf. convergence          0.1000000E-03 e    :
          :  Broyden damping             0.4000000          :
          ...................................................

 iter      E             dE          RMSdq      gap      omega  full diag
   1    -10.5707821 -0.105708E+02  0.109E+01    0.17       0.0  T
   2     -9.6552400  0.915542E+00  0.156E+01    0.13       1.0  T
   3    -10.5251122 -0.869872E+00  0.916E+00    0.00       1.0  T
   4     -9.7321525  0.792960E+00  0.122E+01    0.00       1.0  T
   5    -10.2044953 -0.472343E+00  0.868E+00    0.00       1.0  T
   6    -10.7757604 -0.571265E+00  0.236E+00    0.09       1.0  T
   7    -10.7808217 -0.506129E-02  0.222E+00    0.09       1.0  T
   8    -10.7815246 -0.702942E-03  0.220E+00    0.09       1.0  T
   9    -10.7878290 -0.630435E-02  0.933E-01    0.04       1.0  T
  10    -10.7309678  0.568611E-01  0.272E+00    0.03       1.0  T
  11    -10.7381535 -0.718570E-02  0.294E+00    0.00       1.0  T
  12    -10.7624283 -0.242747E-01  0.210E+00    0.00       1.0  T
  13    -10.7884646 -0.260364E-01  0.140E-01    0.02       1.0  T
  14    -10.7884242  0.404098E-04  0.202E-01    0.03       1.0  T
  15    -10.7884991 -0.748276E-04  0.148E-01    0.02       1.0  T
  16    -10.7885652 -0.661781E-04  0.975E-02    0.02       1.0  T
  17    -10.7886113 -0.460622E-04  0.174E-02    0.02       2.6  T
  18    -10.7886134 -0.209448E-05  0.649E-03    0.02       6.9  T
  19    -10.7886132  0.199808E-06  0.113E-02    0.02       4.0  T
  20    -10.7886137 -0.549901E-06  0.173E-03    0.02      25.8  T
  21    -10.7886138 -0.996305E-08  0.518E-04    0.02      86.3  T
  22    -10.7886138 -0.148134E-08  0.326E-04    0.02     137.3  T

   *** convergence criteria satisfied after 22 iterations ***

         #    Occupation            Energy/Eh            Energy/eV
      -------------------------------------------------------------
         1        2.0000           -0.7547248             -20.5371
       ...           ...                  ...                  ...
         5        2.0000           -0.5667628             -15.4224
         6        2.0000           -0.5440636             -14.8047
         7        2.0000           -0.5440635             -14.8047
         8        2.0000           -0.5325462             -14.4913
         9        2.0000           -0.4717597             -12.8372
        10        2.0000           -0.4717597             -12.8372
        11        0.4597           -0.4339588             -11.8086 (HOMO)
        12        0.2702           -0.4331682             -11.7871 (LUMO)
        13        0.2702           -0.4331682             -11.7871
        14        0.0000           -0.4219384             -11.4815
        15        0.0000           -0.4219384             -11.4815
        16                         -0.4169576             -11.3460
       ...                                ...                  ...
        20                          0.0671111               1.8262
      -------------------------------------------------------------
                  HL-Gap            0.0007906 Eh            0.0215 eV
             Fermi-level           -0.4434699 Eh          -12.0674 eV

 SCC (total)                   0 d,  0 h,  0 min,  0.007 sec
 SCC setup                      ...        0 min,  0.000 sec (  1.180%)
 Dispersion                     ...        0 min,  0.000 sec (  0.224%)
 integral evaluation            ...        0 min,  0.002 sec ( 23.012%)
 zeroth order Hamiltonian       ...        0 min,  0.000 sec (  0.308%)
 iterations                     ...        0 min,  0.004 sec ( 50.120%)
 molecular gradient             ...        0 min,  0.002 sec ( 22.451%)
 printout                       ...        0 min,  0.000 sec (  2.514%)

         :::::::::::::::::::::::::::::::::::::::::::::::::::::
         ::                     SUMMARY                     ::
         :::::::::::::::::::::::::::::::::::::::::::::::::::::
         :: total energy             -10.732528180797 Eh    ::
         :: gradient norm              0.158660293303 Eh/a0 ::
         :: HOMO-LUMO gap              0.021513046088 eV    ::
         ::.................................................::
         :: SCC energy               -10.788613753906 Eh    ::
         :: -> isotropic ES           -0.035818589483 Eh    ::
         :: -> anisotropic ES         -0.000180396699 Eh    ::
         :: -> anisotropic XC          0.005860949067 Eh    ::
         :: -> dispersion             -0.003042336388 Eh    ::
         :: repulsion energy           0.056085328381 Eh    ::
         :: add. restraining           0.000000000000 Eh    ::
         :::::::::::::::::::::::::::::::::::::::::::::::::::::

      ----------------------------------------------------------- 
     |                   =====================                   |
     |                        A N C O P T                        |
     |                   =====================                   |
     |               Approximate Normal Coordinate               |
     |                Rational Function Optimizer                |
      ----------------------------------------------------------- 

          ...................................................
          :                      SETUP                      :
          :.................................................:
          :   optimization level            normal          :
          :   max. optcycles                   200          :
          :   ANC micro-cycles                  20          :
          :   degrees of freedom                 9          :
          :.................................................:
          :   RF solver                   davidson          :
          :   write xtbopt.log                true          :
          :   linear?                        false          :
          :   energy convergence         0.5000000E-05 Eh   :
          :   grad. convergence          0.1000000E-02 Eh/α :
          :   maximium RF displ.         1.0000000          :
          :   Hlow (freq-cutoff)         0.1000000E-01      :
          :   Hmax (freq-cutoff)         5.0000000          :
          :   S6 in model hess.         20.0000000          :
          ...................................................

generating ANC from model Hessian ...
Using Lindh-Hessian (1995)
 Shifting diagonal of input Hessian by    0.0000000000000000     
 Lowest  eigenvalues of input Hessian
   -0.000000   -0.000000   -0.000000    0.000000    0.000000    0.000000
    0.064926    0.064926    0.091417    0.097160    0.097161    0.465641
    1.016444    1.016446    1.163668
 Highest eigenvalues
    0.097160    0.097161    0.465641    1.016444    1.016446    1.163668


........................................................................
.............................. CYCLE    1 ..............................
........................................................................
   1    -10.7886138 -0.107886E+02  0.134E-04    0.02       0.0  T
   2    -10.7886137  0.722234E-08  0.108E-03    0.02      41.5  T
   3    -10.7886138 -0.717190E-08  0.130E-04    0.02     344.4  T
   4    -10.7886138 -0.112486E-09  0.762E-05    0.02     586.5  T
     SCC iter.                  ...        0 min,  0.001 sec
     gradient                   ...        0 min,  0.001 sec
 * total energy  :   -10.7325282 Eh     change       -0.1643230E-08 Eh
   gradient norm :     0.1586587 Eh/α   predicted     0.0000000E+00 (-100.00%)
   displ. norm   :     0.3196626 α      lambda       -0.4751810E-01
   maximum displ.:     0.2888025 α      in ANC's #6, #3, #9, ...

........................................................................
.............................. CYCLE    2 ..............................
........................................................................
   1    -10.8360248 -0.108360E+02  0.248E+00    0.21       0.0  T
   2    -10.3896388  0.446386E+00  0.829E+00    0.00       1.0  T
   3    -10.8645125 -0.474874E+00  0.755E-01    0.13       1.0  T
   4    -10.8594947  0.501776E-02  0.904E-01    0.13       1.0  T
   5    -10.8628647 -0.336997E-02  0.546E-01    0.09       1.0  T
   6    -10.8622036  0.661046E-03  0.567E-01    0.10       1.0  T
   7    -10.8645242 -0.232056E-02  0.200E-01    0.10       1.0  T
   8    -10.8623978  0.212643E-02  0.499E-01    0.11       1.0  T
   9    -10.8647579 -0.236009E-02  0.470E-02    0.11       1.0  T
  10    -10.8647683 -0.104179E-04  0.192E-02    0.11       2.3  T
  11    -10.8647702 -0.190577E-05  0.212E-03    0.11      21.1  T
  12    -10.8647702 -0.350002E-07  0.641E-04    0.11      69.8  T
  13    -10.8647702 -0.768447E-09  0.488E-04    0.11      91.7  T
     SCC iter.                  ...        0 min,  0.001 sec
     gradient                   ...        0 min,  0.001 sec
 * total energy  :   -10.7706537 Eh     change       -0.3812556E-01 Eh
   gradient norm :     0.1032920 Eh/α   predicted    -0.2618684E-01 ( -31.31%)
   displ. norm   :     0.6194888 α      lambda       -0.5091270E-01
   maximum displ.:     0.4856664 α      in ANC's #3, #6, #9, ...

........................................................................
.............................. CYCLE    3 ..............................
........................................................................
   1    -10.9204618 -0.109205E+02  0.383E+00    0.93       0.0  T
   2    -10.4882754  0.432186E+00  0.850E+00    0.60       1.0  T
   3    -10.9774065 -0.489131E+00  0.181E+00    0.79       1.0  T
   4    -10.9310195  0.463870E-01  0.255E+00    0.87       1.0  T
   5    -10.9781425 -0.471230E-01  0.296E-01    0.78       1.0  T
   6    -10.9784551 -0.312600E-03  0.132E-01    0.78       1.0  T
   7    -10.9784802 -0.251372E-04  0.937E-02    0.78       1.0  T
   8    -10.9785569 -0.766450E-04  0.188E-02    0.79       2.4  T
   9    -10.9785559  0.943299E-06  0.155E-02    0.79       2.9  T
  10    -10.9785570 -0.110708E-05  0.546E-03    0.79       8.2  T
  11    -10.9785573 -0.230188E-06  0.178E-03    0.79      25.2  T
  12    -10.9785573  0.896686E-08  0.180E-03    0.79      24.9  T
  13    -10.9785573 -0.187936E-07  0.252E-04    0.79     177.6  T
  14    -10.9785573 -0.181073E-09  0.170E-04    0.79     262.4  T
     SCC iter.                  ...        0 min,  0.002 sec
     gradient                   ...        0 min,  0.002 sec
 * total energy  :   -10.8130627 Eh     change       -0.4240895E-01 Eh
   gradient norm :     0.1160013 Eh/α   predicted    -0.3522565E-01 ( -16.94%)
   displ. norm   :     0.9011491 α      lambda       -0.6723633E-01
   maximum displ.:     0.8167230 α      in ANC's #3, #6, #9, ...

........................................................................
.............................. CYCLE    4 ..............................
........................................................................
   1    -11.1564203 -0.111564E+02  0.575E+00    2.04       0.0  T
   2    -11.1542862  0.213414E-02  0.352E+00    1.72       1.0  T
   3    -10.8936874  0.260599E+00  0.536E+00    2.17       1.0  T
   4    -11.1469643 -0.253277E+00  0.149E+00    1.59       1.0  T
   5    -11.1605654 -0.136011E-01  0.618E-01    1.74       1.0  T
   6    -11.1615171 -0.951702E-03  0.459E-01    1.76       1.0  T
   7    -11.1615476 -0.304337E-04  0.429E-01    1.76       1.0  T
   8    -11.1625364 -0.988781E-03  0.701E-02    1.83       1.0  T
   9    -11.1624443  0.920802E-04  0.141E-01    1.83       1.0  T
  10    -11.1625279 -0.836609E-04  0.710E-02    1.83       1.0  T
  11    -11.1625508 -0.228702E-04  0.221E-02    1.83       2.0  T
  12    -11.1625531 -0.234449E-05  0.100E-02    1.82       4.5  T
  13    -11.1625536 -0.476296E-06  0.252E-03    1.82      17.8  T
  14    -11.1625537 -0.254431E-07  0.124E-03    1.82      36.1  T
  15    -11.1625537 -0.719179E-08  0.381E-04    1.82     117.4  T
  16    -11.1625537 -0.781199E-09  0.645E-05    1.82     693.4  T
     SCC iter.                  ...        0 min,  0.002 sec
     gradient                   ...        0 min,  0.001 sec
 * total energy  :   -10.9032391 Eh     change       -0.9017640E-01 Eh
   gradient norm :     0.4598624 Eh/α   predicted    -0.6091842E-01 ( -32.45%)
   displ. norm   :     0.5260674 α      lambda       -0.1606515E+00
   maximum displ.:     0.4670649 α      in ANC's #3, #9, #6, ...

........................................................................
.............................. CYCLE    5 ..............................
........................................................................
   1    -11.1868469 -0.111868E+02  0.297E+00    1.34       0.0  T
   2    -11.1859445  0.902420E-03  0.182E+00    1.19       1.0  T
   3    -11.1508890  0.350555E-01  0.275E+00    1.47       1.0  T
   4    -11.1429329  0.795612E-02  0.279E+00    1.12       1.0  T
   5    -11.1877791 -0.448462E-01  0.406E-01    1.19       1.0  T
   6    -11.1760855  0.116936E-01  0.150E+00    1.15       1.0  T
   7    -11.1882159 -0.121303E-01  0.195E-01    1.19       1.0  T
   8    -11.1882355 -0.196338E-04  0.153E-01    1.19       1.0  T
   9    -11.1882726 -0.371019E-04  0.121E-01    1.19       1.0  T
  10    -11.1883342 -0.616259E-04  0.230E-02    1.19       1.9  T
  11    -11.1883366 -0.235264E-05  0.553E-03    1.19       8.1  T
  12    -11.1883367 -0.763188E-07  0.149E-03    1.19      29.9  T
  13    -11.1883367 -0.290783E-08  0.129E-03    1.19      34.7  T
  14    -11.1883367 -0.580055E-08  0.425E-04    1.19     105.2  T
  15    -11.1883367 -0.760984E-09  0.159E-04    1.19     281.9  T
     SCC iter.                  ...        0 min,  0.001 sec
     gradient                   ...        0 min,  0.001 sec
 * total energy  :   -10.9778490 Eh     change       -0.7460993E-01 Eh
   gradient norm :     0.2444307 Eh/α   predicted    -0.1025557E+00 (  37.46%)
   displ. norm   :     0.6873229 α      lambda       -0.6576707E-01
   maximum displ.:     0.6220466 α      in ANC's #3, #9, #6, ...

........................................................................
.............................. CYCLE    6 ..............................
........................................................................
   1    -11.3285817 -0.113286E+02  0.421E+00    2.31       0.0  T
   2    -11.3320745 -0.349283E-02  0.255E+00    1.81       1.0  T
   3    -11.2796487  0.524259E-01  0.369E+00    1.64       1.0  T
   4    -11.3136189 -0.339702E-01  0.220E+00    1.77       1.0  T
   5    -11.3224609 -0.884203E-02  0.167E+00    1.75       1.0  T
   6    -11.3275220 -0.506107E-02  0.129E+00    1.76       1.0  T
   7    -11.3335715 -0.604954E-02  0.373E-01    1.78       1.0  T
   8    -11.3336097 -0.381096E-04  0.341E-01    1.78       1.0  T
   9    -11.3339038 -0.294190E-03  0.479E-02    1.79       1.0  T
  10    -11.3339019  0.192635E-05  0.610E-02    1.79       1.0  T
  11    -11.3339052 -0.325397E-05  0.172E-02    1.79       2.6  T
  12    -11.3339060 -0.791032E-06  0.812E-03    1.79       5.5  T
  13    -11.3339062 -0.201916E-06  0.124E-03    1.79      36.0  T
  14    -11.3339062 -0.315561E-08  0.822E-04    1.79      54.4  T
  15    -11.3339062 -0.218812E-08  0.436E-05    1.79    1024.8  T
     SCC iter.                  ...        0 min,  0.001 sec
     gradient                   ...        0 min,  0.001 sec
 * total energy  :   -10.7974459 Eh     change        0.1804031E+00 Eh
   gradient norm :     1.1085308 Eh/α   predicted    -0.4841811E-01 (-126.84%)
   displ. norm   :     0.5273007 α      lambda       -0.4998445E+00
   maximum displ.:     0.4869570 α      in ANC's #6, #3, #9, ...

........................................................................
.............................. CYCLE    7 ..............................
........................................................................
   1    -11.2174034 -0.112174E+02  0.318E+00    1.49       0.0  T
   2    -11.2211723 -0.376891E-02  0.188E+00    1.77       1.0  T
   3    -11.1724388  0.487335E-01  0.300E+00    1.61       1.0  T
   4    -11.1903975 -0.179587E-01  0.243E+00    1.70       1.0  T
   5    -11.2217932 -0.313957E-01  0.659E-01    1.82       1.0  T
   6    -11.2221650 -0.371745E-03  0.460E-01    1.85       1.0  T
   7    -11.2100997  0.120653E-01  0.150E+00    1.81       1.0  T
   8    -11.2226324 -0.125327E-01  0.137E-01    1.86       1.0  T
   9    -11.2226913 -0.589330E-04  0.768E-02    1.87       1.0  T
  10    -11.2226990 -0.763714E-05  0.663E-02    1.87       1.0  T
  11    -11.2227051 -0.609553E-05  0.520E-02    1.87       1.0  T
  12    -11.2227144 -0.934565E-05  0.224E-02    1.87       2.0  T
  13    -11.2227157 -0.131540E-05  0.126E-02    1.87       3.5  T
  14    -11.2227162 -0.517754E-06  0.502E-03    1.87       8.9  T
  15    -11.2227163 -0.964118E-07  0.286E-04    1.87     156.6  T
  16    -11.2227163 -0.187656E-09  0.685E-05    1.87     653.0  T
     SCC iter.                  ...        0 min,  0.002 sec
     gradient                   ...        0 min,  0.001 sec
 * total energy  :   -10.9807029 Eh     change       -0.1832570E+00 Eh
   gradient norm :     0.4336566 Eh/α   predicted    -0.3194122E+00 (  74.30%)
   displ. norm   :     0.5016016 α      lambda       -0.1714922E+00
   maximum displ.:     0.4307844 α      in ANC's #9, #3, #6, ...

........................................................................
.............................. CYCLE    8 ..............................
........................................................................
   1    -11.0884371 -0.110884E+02  0.311E+00    0.56       0.0  T
   2    -10.9697979  0.118639E+00  0.547E+00    1.24       1.0  T
   3    -11.0853790 -0.115581E+00  0.273E+00    0.80       1.0  T
   4    -11.0090863  0.762926E-01  0.398E+00    0.42       1.0  T
   5    -11.0986720 -0.895856E-01  0.127E+00    0.76       1.0  T
   6    -11.0571448  0.415271E-01  0.301E+00    0.64       1.0  T
   7    -11.1001809 -0.430361E-01  0.110E+00    0.75       1.0  T
   8    -11.1012213 -0.104037E-02  0.922E-01    0.74       1.0  T
   9    -11.1037600 -0.253867E-02  0.431E-01    0.71       1.0  T
  10    -11.1044770 -0.717014E-03  0.151E-01    0.71       1.0  T
  11    -11.1045273 -0.503195E-04  0.102E-01    0.71       1.0  T
  12    -11.1045582 -0.308498E-04  0.625E-02    0.71       1.0  T
  13    -11.1045683 -0.101638E-04  0.386E-02    0.71       1.2  T
  14    -11.1045744 -0.609197E-05  0.760E-03    0.71       5.9  T
  15    -11.1045746 -0.215393E-06  0.260E-03    0.71      17.2  T
  16    -11.1045746 -0.135172E-07  0.158E-03    0.71      28.3  T
  17    -11.1045746 -0.957655E-08  0.539E-04    0.71      82.9  T
  18    -11.1045746 -0.125059E-08  0.677E-05    0.71     660.9  T
     SCC iter.                  ...        0 min,  0.002 sec
     gradient                   ...        0 min,  0.001 sec
 * total energy  :   -10.9554822 Eh     change        0.2522070E-01 Eh
   gradient norm :     0.3599437 Eh/α   predicted    -0.1073202E+00 (-525.52%)
   displ. norm   :     0.2648041 α      lambda       -0.7542019E-01
   maximum displ.:     0.1980437 α      in ANC's #9, #3, #6, ...

........................................................................
.............................. CYCLE    9 ..............................
........................................................................
   1    -11.1395188 -0.111395E+02  0.171E+00    1.16       0.0  T
   2    -11.0882738  0.512449E-01  0.323E+00    0.93       1.0  T
   3    -11.1211886 -0.329147E-01  0.216E+00    1.03       1.0  T
   4    -11.1317359 -0.105473E-01  0.144E+00    1.21       1.0  T
   5    -11.1075547  0.241812E-01  0.252E+00    1.03       1.0  T
   6    -11.1420817 -0.345270E-01  0.190E-01    1.12       1.0  T
   7    -11.1418265  0.255222E-03  0.268E-01    1.13       1.0  T
   8    -11.1419807 -0.154288E-03  0.202E-01    1.12       1.0  T
   9    -11.1421616 -0.180835E-03  0.663E-02    1.13       1.0  T
  10    -11.1421477  0.139153E-04  0.914E-02    1.13       1.0  T
  11    -11.1421804 -0.327052E-04  0.286E-02    1.13       1.6  T
  12    -11.1421816 -0.126683E-05  0.230E-02    1.13       1.9  T
  13    -11.1421841 -0.241945E-05  0.278E-03    1.13      16.1  T
  14    -11.1421841 -0.217483E-07  0.840E-04    1.13      53.2  T
  15    -11.1421841  0.640965E-09  0.701E-04    1.13      63.8  T
     SCC iter.                  ...        0 min,  0.001 sec
     gradient                   ...        0 min,  0.001 sec
 * total energy  :   -11.0033404 Eh     change       -0.4785828E-01 Eh
   gradient norm :     0.1468389 Eh/α   predicted    -0.4035437E-01 ( -15.68%)
   displ. norm   :     0.1760111 α      lambda       -0.1829758E-01
   maximum displ.:     0.1123427 α      in ANC's #9, #1, #2, ...

........................................................................
.............................. CYCLE   10 ..............................
........................................................................
   1    -11.1846460 -0.111846E+02  0.244E+00    1.06       0.0  T
   2    -11.0435543  0.141092E+00  0.491E+00    1.19       1.0  T
   3    -11.1906414 -0.147087E+00  0.167E+00    1.09       1.0  T
   4    -11.1942887 -0.364738E-02  0.103E+00    1.12       1.0  T
   5    -11.1974449 -0.315615E-02  0.700E-01    1.16       1.0  T
   6    -11.1985773 -0.113246E-02  0.468E-01    1.18       1.0  T
   7    -11.1992969 -0.719552E-03  0.189E-01    1.18       1.0  T
   8    -11.1994045 -0.107630E-03  0.684E-02    1.21       1.0  T
   9    -11.1994123 -0.778364E-05  0.195E-02    1.20       2.3  T
  10    -11.1994134 -0.113655E-05  0.276E-03    1.20      16.2  T
  11    -11.1994134  0.159781E-07  0.479E-03    1.20       9.3  T
  12    -11.1994134 -0.185578E-07  0.121E-03    1.20      37.0  T
  13    -11.1994135 -0.260560E-08  0.903E-05    1.20     495.4  T
  14    -11.1994135 -0.843769E-12  0.355E-05    1.20    1261.2  T
     SCC iter.                  ...        0 min,  0.001 sec
     gradient                   ...        0 min,  0.001 sec
 * total energy  :   -11.0122785 Eh     change       -0.8938088E-02 Eh
   gradient norm :     0.1075729 Eh/α   predicted    -0.9432215E-02 (   5.53%)
   displ. norm   :     0.4587620 α      lambda       -0.1694941E-01
   maximum displ.:     0.3537837 α      in ANC's #2, #1, #4, ...

........................................................................
.............................. CYCLE   11 ..............................
........................................................................
   1    -11.1850373 -0.111850E+02  0.529E+00    0.22       0.0  T
   2    -11.0468799  0.138157E+00  0.584E+00    1.10       1.0  T
   3    -11.2105732 -0.163693E+00  0.296E+00    0.08       1.0  T
   4    -11.2260920 -0.155188E-01  0.257E+00    0.24       1.0  T
   5    -11.2354474 -0.935538E-02  0.211E+00    0.20       1.0  T
   6    -11.2365181 -0.107071E-02  0.200E+00    0.19       1.0  T
   7    -11.1897253  0.467928E-01  0.418E+00    0.18       1.0  T
   8    -11.2466499 -0.569246E-01  0.850E-01    0.03       1.0  T
   9    -11.2483505 -0.170059E-02  0.419E-01    0.07       1.0  T
  10    -11.2486041 -0.253553E-03  0.326E-01    0.04       1.0  T
  11    -11.2489469 -0.342864E-03  0.121E-02    0.05       3.7  T
  12    -11.2489388  0.817482E-05  0.513E-02    0.05       1.0  T
  13    -11.2489474 -0.860647E-05  0.142E-03    0.05      31.6  T
  14    -11.2489474 -0.226434E-08  0.490E-04    0.05      91.3  T
  15    -11.2489474  0.235893E-08  0.968E-04    0.05      46.2  T
     SCC iter.                  ...        0 min,  0.001 sec
     gradient                   ...        0 min,  0.001 sec
 * total energy  :   -11.0117788 Eh     change        0.4997084E-03 Eh
   gradient norm :     0.2807847 Eh/α   predicted    -0.1025832E-01 (*******%)
   displ. norm   :     0.3588028 α      lambda       -0.3122600E-01
   maximum displ.:     0.2892376 α      in ANC's #1, #2, #9, ...

........................................................................
.............................. CYCLE   12 ..............................
........................................................................
   1    -11.2234589 -0.112235E+02  0.370E+00    0.78       0.0  T
   2    -11.0949428  0.128516E+00  0.493E+00    0.15       1.0  T
   3    -11.2308846 -0.135942E+00  0.257E+00    0.70       1.0  T
   4    -11.2465605 -0.156760E-01  0.126E+00    0.46       1.0  T
   5    -11.2493850 -0.282442E-02  0.906E-01    0.42       1.0  T
   6    -11.2503809 -0.995930E-03  0.753E-01    0.39       1.0  T
   7    -11.2514333 -0.105239E-02  0.376E-01    0.31       1.0  T
   8    -11.2521804 -0.747146E-03  0.984E-02    0.25       1.0  T
   9    -11.2521325  0.479309E-04  0.148E-01    0.29       1.0  T
  10    -11.2521883 -0.558322E-04  0.157E-02    0.26       2.9  T
  11    -11.2521883  0.889389E-07  0.145E-02    0.26       3.1  T
  12    -11.2521888 -0.542825E-06  0.607E-04    0.26      73.7  T
  13    -11.2521888 -0.324182E-09  0.449E-04    0.26      99.7  T
     SCC iter.                  ...        0 min,  0.001 sec
     gradient                   ...        0 min,  0.001 sec
 * total energy  :   -11.0435363 Eh     change       -0.3175753E-01 Eh
   gradient norm :     0.1226113 Eh/α   predicted    -0.1762300E-01 ( -44.51%)
   displ. norm   :     0.8959599 α      lambda       -0.7763485E-01
   maximum displ.:     0.6768044 α      in ANC's #2, #1, #9, ...

........................................................................
.............................. CYCLE   13 ..............................
........................................................................
   1    -11.1743105 -0.111743E+02  0.352E+00    0.82       0.0  T
   2    -11.1641151  0.101954E-01  0.264E+00    0.35       1.0  T
   3    -11.1530652  0.110499E-01  0.237E+00    1.02       1.0  T
   4    -11.1679372 -0.148719E-01  0.156E+00    0.49       1.0  T
   5    -11.1820732 -0.141361E-01  0.323E-01    0.64       1.0  T
   6    -11.1822886 -0.215397E-03  0.231E-01    0.63       1.0  T
   7    -11.1821991  0.894984E-04  0.224E-01    0.62       1.0  T
   8    -11.1823319 -0.132750E-03  0.950E-02    0.62       1.0  T
   9    -11.1823786 -0.467189E-04  0.127E-02    0.61       3.5  T
  10    -11.1823789 -0.326076E-06  0.242E-03    0.61      18.5  T
  11    -11.1823789 -0.195400E-07  0.118E-03    0.61      37.8  T
  12    -11.1823789 -0.154977E-08  0.243E-04    0.61     183.8  T
  13    -11.1823789 -0.104880E-09  0.562E-05    0.61     795.6  T
     SCC iter.                  ...        0 min,  0.001 sec
     gradient                   ...        0 min,  0.001 sec
 * total energy  :   -11.0446176 Eh     change       -0.1081251E-02 Eh
   gradient norm :     0.2061667 Eh/α   predicted    -0.6997790E-01 (6371.94%)
   displ. norm   :     0.4314510 α      lambda       -0.3886029E-01
   maximum displ.:     0.3141935 α      in ANC's #1, #2, #4, ...

........................................................................
.............................. CYCLE   14 ..............................
........................................................................
   1    -11.2237030 -0.112237E+02  0.395E+00    0.42       0.0  T
   2    -11.1554656  0.682374E-01  0.324E+00    0.52       1.0  T
   3    -11.0972811  0.581846E-01  0.443E+00    0.66       1.0  T
   4    -11.2174630 -0.120182E+00  0.145E+00    0.31       1.0  T
   5    -11.2259539 -0.849095E-02  0.971E-01    0.54       1.0  T
   6    -11.2295043 -0.355034E-02  0.607E-01    0.47       1.0  T
   7    -11.2300046 -0.500313E-03  0.510E-01    0.47       1.0  T
   8    -11.2313352 -0.133065E-02  0.622E-02    0.46       1.0  T
   9    -11.2313401 -0.483866E-05  0.541E-02    0.46       1.0  T
  10    -11.2313327  0.735915E-05  0.632E-02    0.46       1.0  T
  11    -11.2313511 -0.184367E-04  0.606E-03    0.46       7.4  T
  12    -11.2313512 -0.903328E-07  0.203E-03    0.46      22.0  T
  13    -11.2313512 -0.242917E-08  0.642E-04    0.46      69.6  T
  14    -11.2313512 -0.181084E-08  0.171E-04    0.46     261.5  T
     SCC iter.                  ...        0 min,  0.001 sec
     gradient                   ...        0 min,  0.001 sec
 * total energy  :   -11.0313513 Eh     change        0.1326628E-01 Eh
   gradient norm :     0.2589297 Eh/α   predicted    -0.2304704E-01 (-273.73%)
   displ. norm   :     0.5319099 α      lambda       -0.7042443E-01
   maximum displ.:     0.4705761 α      in ANC's #1, #5, #4, ...

........................................................................
.............................. CYCLE   15 ..............................
........................................................................
   1    -11.2361013 -0.112361E+02  0.320E+00    0.54       0.0  T
   2    -11.2216425  0.144588E-01  0.199E+00    0.36       1.0  T
   3    -11.1695404  0.521021E-01  0.331E+00    0.58       1.0  T
   4    -11.2358121 -0.662717E-01  0.892E-01    0.52       1.0  T
   5    -11.2413523 -0.554027E-02  0.201E-01    0.43       1.0  T
   6    -11.2414431 -0.907396E-04  0.136E-01    0.45       1.0  T
   7    -11.2414425  0.620351E-06  0.113E-01    0.44       1.0  T
   8    -11.2414891 -0.466004E-04  0.293E-02    0.45       1.5  T
   9    -11.2414923 -0.325115E-05  0.124E-02    0.45       3.6  T
  10    -11.2414928 -0.464353E-06  0.341E-03    0.45      13.1  T
  11    -11.2414928 -0.240506E-07  0.638E-04    0.45      70.1  T
  12    -11.2414928 -0.798030E-09  0.131E-04    0.45     342.5  T
     SCC iter.                  ...        0 min,  0.001 sec
     gradient                   ...        0 min,  0.001 sec
 * total energy  :   -11.0641733 Eh     change       -0.3282196E-01 Eh
   gradient norm :     0.0558591 Eh/α   predicted    -0.4517473E-01 (  37.64%)
   displ. norm   :     0.2555079 α      lambda       -0.7968172E-02
   maximum displ.:     0.1475553 α      in ANC's #2, #4, #1, ...

........................................................................
.............................. CYCLE   16 ..............................
........................................................................
   1    -11.2232845 -0.112233E+02  0.114E+00    0.85       0.0  T
   2    -11.2216228  0.166172E-02  0.972E-01    0.79       1.0  T
   3    -11.2225741 -0.951321E-03  0.662E-01    0.90       1.0  T
   4    -11.2237684 -0.119430E-02  0.339E-01    0.83       1.0  T
   5    -11.2243884 -0.620025E-03  0.115E-01    0.87       1.0  T
   6    -11.2244804 -0.919454E-04  0.364E-02    0.87       1.2  T
   7    -11.2244792  0.120304E-05  0.372E-02    0.86       1.2  T
   8    -11.2244864 -0.717625E-05  0.522E-03    0.87       8.6  T
   9    -11.2244864 -0.614398E-07  0.262E-03    0.87      17.1  T
  10    -11.2244864 -0.193133E-07  0.591E-04    0.87      75.6  T
  11    -11.2244864 -0.107752E-08  0.913E-05    0.87     489.9  T
     SCC iter.                  ...        0 min,  0.001 sec
     gradient                   ...        0 min,  0.001 sec
 * total energy  :   -11.0639209 Eh     change        0.2523505E-03 Eh
   gradient norm :     0.1113092 Eh/α   predicted    -0.4244192E-02 (*******%)
   displ. norm   :     0.1693206 α      lambda       -0.5676609E-02
   maximum displ.:     0.1268627 α      in ANC's #2, #1, #9, ...

........................................................................
.............................. CYCLE   17 ..............................
........................................................................
   1    -11.2497244 -0.112497E+02  0.709E-01    0.85       0.0  T
   2    -11.2496939  0.305523E-04  0.430E-01    0.80       1.0  T
   3    -11.2492871  0.406756E-03  0.412E-01    0.87       1.0  T
   4    -11.2496126 -0.325534E-03  0.206E-01    0.82       1.0  T
   5    -11.2499796 -0.366986E-03  0.523E-02    0.82       1.0  T
   6    -11.2499976 -0.179719E-04  0.190E-02    0.83       2.4  T
   7    -11.2499965  0.112247E-05  0.180E-02    0.82       2.5  T
   8    -11.2499984 -0.189744E-05  0.189E-03    0.83      23.7  T
   9    -11.2499984 -0.232166E-08  0.966E-04    0.83      46.3  T
  10    -11.2499984 -0.261554E-08  0.198E-04    0.83     225.3  T
     SCC iter.                  ...        0 min,  0.001 sec
     gradient                   ...        0 min,  0.001 sec
 * total energy  :   -11.0667595 Eh     change       -0.2838535E-02 Eh
   gradient norm :     0.0519003 Eh/α   predicted    -0.2919676E-02 (   2.86%)
   displ. norm   :     0.1275515 α      lambda       -0.1936358E-02
   maximum displ.:     0.0844179 α      in ANC's #1, #4, #5, ...

........................................................................
.............................. CYCLE   18 ..............................
........................................................................
   1    -11.2479885 -0.112480E+02  0.626E-01    0.70       0.0  T
   2    -11.2477420  0.246592E-03  0.432E-01    0.75       1.0  T
   3    -11.2466804  0.106157E-02  0.473E-01    0.66       1.0  T
   4    -11.2480097 -0.132933E-02  0.121E-01    0.71       1.0  T
   5    -11.2481316 -0.121930E-03  0.567E-02    0.72       1.0  T
   6    -11.2481512 -0.195271E-04  0.195E-02    0.72       2.3  T
   7    -11.2481521 -0.916602E-06  0.550E-03    0.72       8.1  T
   8    -11.2481522 -0.792027E-07  0.342E-03    0.72      13.1  T
   9    -11.2481522 -0.411142E-07  0.131E-03    0.72      34.2  T
  10    -11.2481522 -0.557842E-08  0.306E-04    0.72     146.1  T
  11    -11.2481522 -0.205629E-09  0.297E-05    0.72    1506.5  T
     SCC iter.                  ...        0 min,  0.001 sec
     gradient                   ...        0 min,  0.001 sec
 * total energy  :   -11.0670228 Eh     change       -0.2633395E-03 Eh
   gradient norm :     0.0457092 Eh/α   predicted    -0.9839292E-03 ( 273.64%)
   displ. norm   :     0.0442189 α      lambda       -0.1089333E-02
   maximum displ.:     0.0339979 α      in ANC's #4, #5, #1, ...

........................................................................
.............................. CYCLE   19 ..............................
........................................................................
   1    -11.2507714 -0.112508E+02  0.271E-01    0.82       0.0  T
   2    -11.2507152  0.562158E-04  0.201E-01    0.80       1.0  T
   3    -11.2506147  0.100518E-03  0.183E-01    0.83       1.0  T
   4    -11.2507786 -0.163961E-03  0.556E-02    0.81       1.0  T
   5    -11.2508059 -0.272544E-04  0.189E-02    0.81       2.4  T
   6    -11.2508077 -0.176988E-05  0.797E-03    0.81       5.6  T
   7    -11.2508078 -0.935530E-07  0.419E-03    0.81      10.7  T
   8    -11.2508078 -0.880852E-07  0.149E-03    0.81      30.0  T
   9    -11.2508078 -0.641163E-08  0.406E-04    0.81     110.2  T
  10    -11.2508078 -0.435071E-09  0.129E-04    0.81     346.1  T
     SCC iter.                  ...        0 min,  0.001 sec
     gradient                   ...        0 min,  0.002 sec
 * total energy  :   -11.0678358 Eh     change       -0.8129691E-03 Eh
   gradient norm :     0.0392254 Eh/α   predicted    -0.5457312E-03 ( -32.87%)
   displ. norm   :     0.0553200 α      lambda       -0.1197318E-02
   maximum displ.:     0.0346566 α      in ANC's #4, #2, #6, ...

........................................................................
.............................. CYCLE   20 ..............................
........................................................................
   1    -11.2566343 -0.112566E+02  0.348E-01    0.97       0.0  T
   2    -11.2565895  0.447755E-04  0.230E-01    0.96       1.0  T
   3    -11.2562877  0.301737E-03  0.251E-01    0.99       1.0  T
   4    -11.2566277 -0.339946E-03  0.650E-02    0.97       1.0  T
   5    -11.2566647 -0.369963E-04  0.174E-02    0.97       2.6  T
   6    -11.2566658 -0.108219E-05  0.952E-03    0.97       4.7  T
   7    -11.2566661 -0.371201E-06  0.310E-03    0.97      14.4  T
   8    -11.2566662 -0.332694E-07  0.135E-03    0.97      33.1  T
   9    -11.2566662 -0.481311E-08  0.500E-04    0.97      89.4  T
  10    -11.2566662 -0.704514E-09  0.136E-04    0.97     327.9  T
     SCC iter.                  ...        0 min,  0.001 sec
     gradient                   ...        0 min,  0.001 sec
 * total energy  :   -11.0686997 Eh     change       -0.8639349E-03 Eh
   gradient norm :     0.0341509 Eh/α   predicted    -0.6004916E-03 ( -30.49%)
   displ. norm   :     0.0867458 α      lambda       -0.1235729E-02
   maximum displ.:     0.0623778 α      in ANC's #2, #1, #8, ...
 * RMSD in coord.:     1.2859750 α      energy gain  -0.3361715E+00 Eh

generating ANC from model Hessian ...
Using Lindh-Hessian (1995)
 Shifting diagonal of input Hessian by    0.0000000000000000     
 Lowest  eigenvalues of input Hessian
   -0.000000   -0.000000   -0.000000    0.000000    0.000000    0.000000
    0.115514    0.204040    0.231625    0.410308    0.631170    0.823562
    1.346071    1.722842    2.341735
 Highest eigenvalues
    0.410308    0.631170    0.823562    1.346071    1.722842    2.341735


........................................................................
.............................. CYCLE   21 ..............................
........................................................................
   1    -11.2628542 -0.112629E+02  0.449E-01    0.89       0.0  T
   2    -11.2628460  0.823588E-05  0.259E-01    0.88       1.0  T
   3    -11.2625723  0.273736E-03  0.244E-01    0.91       1.0  T
   4    -11.2628402 -0.267927E-03  0.680E-02    0.88       1.0  T
   5    -11.2628805 -0.403193E-04  0.178E-02    0.88       2.5  T
   6    -11.2628815 -0.955115E-06  0.130E-02    0.89       3.5  T
   7    -11.2628821 -0.678449E-06  0.572E-03    0.88       7.8  T
   8    -11.2628823 -0.146792E-06  0.848E-04    0.88      52.8  T
   9    -11.2628823 -0.116526E-08  0.334E-04    0.88     134.0  T
     SCC iter.                  ...        0 min,  0.001 sec
     gradient                   ...        0 min,  0.001 sec
 * total energy  :   -11.0696353 Eh     change       -0.9356059E-03 Eh
   gradient norm :     0.0280854 Eh/α   predicted     0.0000000E+00 (-100.00%)
   displ. norm   :     0.0466505 α      lambda       -0.9015178E-03
   maximum displ.:     0.0366974 α      in ANC's #3, #4, #5, ...

........................................................................
.............................. CYCLE   22 ..............................
........................................................................
   1    -11.2644381 -0.112644E+02  0.248E-01    0.87       0.0  T
   2    -11.2644014  0.367705E-04  0.167E-01    0.88       1.0  T
   3    -11.2643696  0.317648E-04  0.151E-01    0.86       1.0  T
   4    -11.2644494 -0.798369E-04  0.714E-02    0.88       1.0  T
   5    -11.2644857 -0.362404E-04  0.188E-02    0.88       2.4  T
   6    -11.2644876 -0.188401E-05  0.720E-03    0.88       6.2  T
   7    -11.2644876 -0.571397E-07  0.449E-03    0.88      10.0  T
   8    -11.2644877 -0.777742E-07  0.738E-04    0.88      60.6  T
   9    -11.2644877 -0.972928E-09  0.291E-04    0.88     153.8  T
     SCC iter.                  ...        0 min,  0.001 sec
     gradient                   ...        0 min,  0.001 sec
 * total energy  :   -11.0703304 Eh     change       -0.6950506E-03 Eh
   gradient norm :     0.0135062 Eh/α   predicted    -0.4517400E-03 ( -35.01%)
   displ. norm   :     0.0873997 α      lambda       -0.9463145E-03
   maximum displ.:     0.0679679 α      in ANC's #3, #5, #1, ...

........................................................................
.............................. CYCLE   23 ..............................
........................................................................
   1    -11.2642410 -0.112642E+02  0.457E-01    0.82       0.0  T
   2    -11.2641729  0.680858E-04  0.275E-01    0.84       1.0  T
   3    -11.2638618  0.311092E-03  0.297E-01    0.81       1.0  T
   4    -11.2642440 -0.382135E-03  0.112E-01    0.84       1.0  T
   5    -11.2643387 -0.947758E-04  0.268E-02    0.83       1.7  T
   6    -11.2643415 -0.279361E-05  0.128E-02    0.83       3.5  T
   7    -11.2643418 -0.281872E-06  0.190E-03    0.83      23.5  T
   8    -11.2643418 -0.945844E-08  0.101E-03    0.83      44.3  T
   9    -11.2643418 -0.175686E-08  0.526E-04    0.83      85.0  T
  10    -11.2643418 -0.649745E-09  0.890E-05    0.83     502.5  T
     SCC iter.                  ...        0 min,  0.001 sec
     gradient                   ...        0 min,  0.001 sec
 * total energy  :   -11.0709293 Eh     change       -0.5989435E-03 Eh
   gradient norm :     0.0101434 Eh/α   predicted    -0.4767715E-03 ( -20.40%)
   displ. norm   :     0.0494905 α      lambda       -0.2462398E-03
   maximum displ.:     0.0305136 α      in ANC's #1, #3, #5, ...

........................................................................
.............................. CYCLE   24 ..............................
........................................................................
   1    -11.2652868 -0.112653E+02  0.260E-01    0.78       0.0  T
   2    -11.2652819  0.490920E-05  0.146E-01    0.78       1.0  T
   3    -11.2651881  0.937633E-04  0.146E-01    0.77       1.0  T
   4    -11.2652933 -0.105107E-03  0.371E-02    0.78       1.2  T
   5    -11.2653023 -0.904575E-05  0.101E-02    0.78       4.4  T
   6    -11.2653019  0.363347E-06  0.998E-03    0.78       4.5  T
   7    -11.2653026 -0.699500E-06  0.998E-04    0.78      44.8  T
   8    -11.2653026 -0.340554E-08  0.423E-04    0.78     105.7  T
     SCC iter.                  ...        0 min,  0.001 sec
     gradient                   ...        0 min,  0.001 sec
 * total energy  :   -11.0711082 Eh     change       -0.1788765E-03 Eh
   gradient norm :     0.0089119 Eh/α   predicted    -0.1234220E-03 ( -31.00%)
   displ. norm   :     0.0495125 α      lambda       -0.1989061E-03
   maximum displ.:     0.0363386 α      in ANC's #1, #5, #7, ...

........................................................................
.............................. CYCLE   25 ..............................
........................................................................
   1    -11.2671283 -0.112671E+02  0.261E-01    0.71       0.0  T
   2    -11.2671268  0.148263E-05  0.147E-01    0.71       1.0  T
   3    -11.2670654  0.614180E-04  0.130E-01    0.72       1.0  T
   4    -11.2671374 -0.720326E-04  0.182E-02    0.71       2.5  T
   5    -11.2671392 -0.179223E-05  0.112E-02    0.71       4.0  T
   6    -11.2671398 -0.577546E-06  0.538E-03    0.71       8.3  T
   7    -11.2671399 -0.157019E-06  0.165E-03    0.71      27.1  T
   8    -11.2671399 -0.139050E-07  0.420E-04    0.71     106.6  T
   9    -11.2671399 -0.139993E-09  0.114E-04    0.71     391.2  T
     SCC iter.                  ...        0 min,  0.001 sec
     gradient                   ...        0 min,  0.002 sec
 * total energy  :   -11.0712465 Eh     change       -0.1383473E-03 Eh
   gradient norm :     0.0057542 Eh/α   predicted    -0.9969759E-04 ( -27.94%)
   displ. norm   :     0.0350581 α      lambda       -0.1091246E-03
   maximum displ.:     0.0234898 α      in ANC's #1, #5, #7, ...

........................................................................
.............................. CYCLE   26 ..............................
........................................................................
   1    -11.2683990 -0.112684E+02  0.183E-01    0.66       0.0  T
   2    -11.2683940  0.494615E-05  0.110E-01    0.65       1.0  T
   3    -11.2683488  0.452091E-04  0.116E-01    0.67       1.0  T
   4    -11.2684016 -0.527671E-04  0.289E-02    0.66       1.5  T
   5    -11.2684071 -0.551891E-05  0.772E-03    0.66       5.8  T
   6    -11.2684072 -0.758004E-07  0.668E-03    0.66       6.7  T
   7    -11.2684074 -0.262381E-06  0.614E-04    0.66      72.8  T
   8    -11.2684074 -0.151405E-08  0.291E-04    0.66     153.7  T
     SCC iter.                  ...        0 min,  0.001 sec
     gradient                   ...        0 min,  0.001 sec
 * total energy  :   -11.0713226 Eh     change       -0.7605488E-04 Eh
   gradient norm :     0.0033312 Eh/α   predicted    -0.5463011E-04 ( -28.17%)
   displ. norm   :     0.0250946 α      lambda       -0.5657756E-04
   maximum displ.:     0.0173963 α      in ANC's #5, #3, #1, ...

........................................................................
.............................. CYCLE   27 ..............................
........................................................................
   1    -11.2688431 -0.112688E+02  0.129E-01    0.63       0.0  T
   2    -11.2688362  0.689112E-05  0.860E-02    0.62       1.0  T
   3    -11.2688241  0.120939E-04  0.828E-02    0.63       1.0  T
   4    -11.2688475 -0.233323E-04  0.268E-02    0.62       1.7  T
   5    -11.2688514 -0.392972E-05  0.595E-03    0.62       7.5  T
   6    -11.2688515 -0.766239E-07  0.437E-03    0.62      10.2  T
   7    -11.2688516 -0.839742E-07  0.185E-03    0.62      24.1  T
   8    -11.2688516 -0.236818E-07  0.229E-04    0.62     195.0  T
   9    -11.2688516 -0.283098E-10  0.126E-04    0.62     355.7  T
     SCC iter.                  ...        0 min,  0.001 sec
     gradient                   ...        0 min,  0.001 sec
 * total energy  :   -11.0713609 Eh     change       -0.3834205E-04 Eh
   gradient norm :     0.0027427 Eh/α   predicted    -0.2830824E-04 ( -26.17%)
   displ. norm   :     0.0165618 α      lambda       -0.2571962E-04
   maximum displ.:     0.0113709 α      in ANC's #3, #5, #6, ...

........................................................................
.............................. CYCLE   28 ..............................
........................................................................
   1    -11.2688056 -0.112688E+02  0.861E-02    0.61       0.0  T
   2    -11.2688011  0.449507E-05  0.599E-02    0.60       1.0  T
   3    -11.2687983  0.279311E-05  0.548E-02    0.61       1.0  T
   4    -11.2688048 -0.652524E-05  0.284E-02    0.61       1.6  T
   5    -11.2688104 -0.552472E-05  0.852E-03    0.61       5.2  T
   6    -11.2688109 -0.525436E-06  0.274E-03    0.61      16.3  T
   7    -11.2688109 -0.452635E-08  0.166E-03    0.61      27.0  T
   8    -11.2688109 -0.131014E-07  0.229E-04    0.61     195.0  T
   9    -11.2688109 -0.927081E-10  0.110E-04    0.61     405.7  T
     SCC iter.                  ...        0 min,  0.001 sec
     gradient                   ...        0 min,  0.001 sec
 * total energy  :   -11.0713790 Eh     change       -0.1806011E-04 Eh
   gradient norm :     0.0025636 Eh/α   predicted    -0.1286442E-04 ( -28.77%)
   displ. norm   :     0.0147483 α      lambda       -0.1738513E-04
   maximum displ.:     0.0084207 α      in ANC's #3, #1, #5, ...

........................................................................
.............................. CYCLE   29 ..............................
........................................................................
   1    -11.2686442 -0.112686E+02  0.766E-02    0.61       0.0  T
   2    -11.2686410  0.319514E-05  0.517E-02    0.60       1.0  T
   3    -11.2686326  0.845190E-05  0.536E-02    0.61       1.0  T
   4    -11.2686402 -0.766664E-05  0.299E-02    0.61       1.5  T
   5    -11.2686474 -0.711318E-05  0.718E-03    0.61       6.2  T
   6    -11.2686477 -0.321790E-06  0.263E-03    0.61      17.0  T
   7    -11.2686477 -0.541072E-08  0.160E-03    0.61      27.9  T
   8    -11.2686477 -0.124864E-07  0.221E-04    0.61     202.5  T
   9    -11.2686477 -0.902105E-10  0.989E-05    0.61     452.0  T
     SCC iter.                  ...        0 min,  0.001 sec
     gradient                   ...        0 min,  0.001 sec
 * total energy  :   -11.0713916 Eh     change       -0.1264949E-04 Eh
   gradient norm :     0.0023789 Eh/α   predicted    -0.8695225E-05 ( -31.26%)
   displ. norm   :     0.0168025 α      lambda       -0.1749043E-04
   maximum displ.:     0.0116395 α      in ANC's #1, #6, #3, ...

........................................................................
.............................. CYCLE   30 ..............................
........................................................................
   1    -11.2684930 -0.112685E+02  0.916E-02    0.61       0.0  T
   2    -11.2684893  0.367497E-05  0.592E-02    0.61       1.0  T
   3    -11.2684603  0.290629E-04  0.725E-02    0.61       1.0  T
   4    -11.2684877 -0.274656E-04  0.322E-02    0.61       1.4  T
   5    -11.2684960 -0.823483E-05  0.622E-03    0.61       7.2  T
   6    -11.2684961 -0.180759E-06  0.323E-03    0.61      13.9  T
   7    -11.2684962 -0.140574E-07  0.177E-03    0.61      25.2  T
   8    -11.2684962 -0.173507E-07  0.258E-04    0.61     173.5  T
   9    -11.2684962 -0.122325E-09  0.114E-04    0.61     390.8  T
     SCC iter.                  ...        0 min,  0.001 sec
     gradient                   ...        0 min,  0.001 sec
 * total energy  :   -11.0714055 Eh     change       -0.1385620E-04 Eh
   gradient norm :     0.0027933 Eh/α   predicted    -0.8748226E-05 ( -36.86%)
   displ. norm   :     0.0380050 α      lambda       -0.4127521E-04
   maximum displ.:     0.0254821 α      in ANC's #6, #1, #5, ...

........................................................................
.............................. CYCLE   31 ..............................
........................................................................
   1    -11.2682839 -0.112683E+02  0.228E-01    0.62       0.0  T
   2    -11.2682616  0.223286E-04  0.145E-01    0.61       1.0  T
   3    -11.2680234  0.238226E-03  0.192E-01    0.63       1.0  T
   4    -11.2682592 -0.235836E-03  0.720E-02    0.62       1.0  T
   5    -11.2682994 -0.401641E-04  0.128E-02    0.62       3.5  T
   6    -11.2683000 -0.591588E-06  0.791E-03    0.62       5.7  T
   7    -11.2683001 -0.117124E-06  0.393E-03    0.62      11.4  T
   8    -11.2683002 -0.889581E-07  0.644E-04    0.62      69.4  T
   9    -11.2683002 -0.709786E-09  0.327E-04    0.62     136.8  T
     SCC iter.                  ...        0 min,  0.001 sec
     gradient                   ...        0 min,  0.001 sec
 * total energy  :   -11.0714432 Eh     change       -0.3767667E-04 Eh
   gradient norm :     0.0053918 Eh/α   predicted    -0.2066625E-04 ( -45.15%)
   displ. norm   :     0.4870413 α      lambda       -0.5587649E-03
   maximum displ.:     0.3468374 α      in ANC's #6, #1, #5, ...

........................................................................
.............................. CYCLE   32 ..............................
........................................................................
   1    -11.2499676 -0.112500E+02  0.261E+00    0.84       0.0  T
   2    -11.2417805  0.818710E-02  0.186E+00    0.75       1.0  T
   3    -11.2102099  0.315706E-01  0.238E+00    0.82       1.0  T
   4    -11.2425082 -0.322983E-01  0.118E+00    0.89       1.0  T
   5    -11.2537069 -0.111987E-01  0.165E-01    0.81       1.0  T
   6    -11.2538083 -0.101371E-03  0.101E-01    0.81       1.0  T
   7    -11.2538325 -0.242162E-04  0.469E-02    0.81       1.0  T
   8    -11.2538393 -0.685365E-05  0.178E-02    0.81       2.5  T
   9    -11.2538408 -0.150940E-05  0.625E-03    0.81       7.2  T
  10    -11.2538409 -0.593433E-07  0.808E-04    0.81      55.3  T
  11    -11.2538409 -0.299631E-09  0.224E-04    0.81     200.0  T
     SCC iter.                  ...        0 min,  0.001 sec
     gradient                   ...        0 min,  0.001 sec
 * total energy  :   -11.0715816 Eh     change       -0.1384264E-03 Eh
   gradient norm :     0.0729847 Eh/α   predicted    -0.3456534E-03 ( 149.70%)
   displ. norm   :     0.2156690 α      lambda       -0.2273273E-02
   maximum displ.:     0.1425462 α      in ANC's #6, #1, #3, ...

........................................................................
.............................. CYCLE   33 ..............................
........................................................................
   1    -11.2674779 -0.112675E+02  0.110E+00    0.66       0.0  T
   2    -11.2669086  0.569364E-03  0.722E-01    0.69       1.0  T
   3    -11.2618467  0.506191E-02  0.915E-01    0.66       1.0  T
   4    -11.2659573 -0.411066E-02  0.490E-01    0.64       1.0  T
   5    -11.2680120 -0.205467E-02  0.522E-02    0.67       1.0  T
   6    -11.2680208 -0.879380E-05  0.276E-02    0.67       1.6  T
   7    -11.2680214 -0.658465E-06  0.119E-02    0.67       3.8  T
   8    -11.2680221 -0.612132E-06  0.529E-03    0.67       8.5  T
   9    -11.2680222 -0.121770E-06  0.212E-03    0.67      21.1  T
  10    -11.2680222 -0.149888E-07  0.386E-04    0.67     115.8  T
  11    -11.2680222 -0.379696E-09  0.597E-05    0.67     749.2  T
     SCC iter.                  ...        0 min,  0.001 sec
     gradient                   ...        0 min,  0.001 sec
 * total energy  :   -11.0723259 Eh     change       -0.7442550E-03 Eh
   gradient norm :     0.0306176 Eh/α   predicted    -0.1189509E-02 (  59.83%)
   displ. norm   :     0.3392399 α      lambda       -0.2622950E-02
   maximum displ.:     0.2489296 α      in ANC's #6, #5, #1, ...

........................................................................
.............................. CYCLE   34 ..............................
........................................................................
   1    -11.2678384 -0.112678E+02  0.166E+00    0.72       0.0  T
   2    -11.2669789  0.859498E-03  0.103E+00    0.70       1.0  T
   3    -11.2617308  0.524805E-02  0.112E+00    0.73       1.0  T
   4    -11.2608859  0.844964E-03  0.950E-01    0.76       1.0  T
   5    -11.2693950 -0.850916E-02  0.699E-02    0.72       1.0  T
   6    -11.2694154 -0.203602E-04  0.337E-02    0.72       1.3  T
   7    -11.2694175 -0.209506E-05  0.128E-02    0.72       3.5  T
   8    -11.2694180 -0.556193E-06  0.657E-03    0.72       6.8  T
   9    -11.2694182 -0.154881E-06  0.327E-03    0.72      13.7  T
  10    -11.2694183 -0.486378E-07  0.450E-04    0.72      99.4  T
  11    -11.2694183 -0.177270E-09  0.621E-05    0.72     719.7  T
     SCC iter.                  ...        0 min,  0.001 sec
     gradient                   ...        0 min,  0.001 sec
 * total energy  :   -11.0760519 Eh     change       -0.3726049E-02 Eh
   gradient norm :     0.0632050 Eh/α   predicted    -0.1462417E-02 ( -60.75%)
   displ. norm   :     0.3538767 α      lambda       -0.5227673E-02
   maximum displ.:     0.2588042 α      in ANC's #6, #5, #1, ...

........................................................................
.............................. CYCLE   35 ..............................
........................................................................
   1    -11.2612407 -0.112612E+02  0.144E+00    0.78       0.0  T
   2    -11.2605270  0.713642E-03  0.889E-01    0.80       1.0  T
   3    -11.2557113  0.481577E-02  0.101E+00    0.77       1.0  T
   4    -11.2537408  0.197043E-02  0.952E-01    0.83       1.0  T
   5    -11.2623326 -0.859174E-02  0.591E-02    0.80       1.0  T
   6    -11.2623346 -0.204454E-05  0.435E-02    0.79       1.0  T
   7    -11.2623443 -0.963740E-05  0.123E-02    0.80       3.6  T
   8    -11.2623443 -0.813627E-07  0.482E-03    0.80       9.3  T
   9    -11.2623444 -0.100459E-06  0.238E-03    0.80      18.8  T
  10    -11.2623445 -0.257092E-07  0.458E-04    0.80      97.7  T
  11    -11.2623445 -0.613516E-09  0.895E-05    0.80     499.5  T
     SCC iter.                  ...        0 min,  0.001 sec
     gradient                   ...        0 min,  0.001 sec
 * total energy  :   -11.0791854 Eh     change       -0.3133526E-02 Eh
   gradient norm :     0.0984139 Eh/α   predicted    -0.2941161E-02 (  -6.14%)
   displ. norm   :     0.3082108 α      lambda       -0.1316465E-01
   maximum displ.:     0.1828454 α      in ANC's #6, #5, #4, ...

........................................................................
.............................. CYCLE   36 ..............................
........................................................................
   1    -11.2903592 -0.112904E+02  0.130E+00    0.87       0.0  T
   2    -11.2850173  0.534193E-02  0.107E+00    0.87       1.0  T
   3    -11.2760007  0.901665E-02  0.137E+00    0.92       1.0  T
   4    -11.2888688 -0.128682E-01  0.580E-01    0.82       1.0  T
   5    -11.2914600 -0.259120E-02  0.761E-02    0.87       1.0  T
   6    -11.2914723 -0.123010E-04  0.403E-02    0.87       1.1  T
   7    -11.2914754 -0.306748E-05  0.212E-02    0.87       2.1  T
   8    -11.2914761 -0.749871E-06  0.970E-03    0.87       4.6  T
   9    -11.2914768 -0.620312E-06  0.248E-03    0.87      18.0  T
  10    -11.2914768 -0.358074E-08  0.490E-04    0.87      91.3  T
  11    -11.2914768 -0.115679E-08  0.144E-04    0.87     311.2  T
     SCC iter.                  ...        0 min,  0.001 sec
     gradient                   ...        0 min,  0.001 sec
 * total energy  :   -11.0895912 Eh     change       -0.1040582E-01 Eh
   gradient norm :     0.0817343 Eh/α   predicted    -0.7207606E-02 ( -30.73%)
   displ. norm   :     0.4225466 α      lambda       -0.1971842E-01
   maximum displ.:     0.2732548 α      in ANC's #4, #6, #2, ...

........................................................................
.............................. CYCLE   37 ..............................
........................................................................
   1    -11.3482512 -0.113483E+02  0.250E+00    1.08       0.0  T
   2    -11.2242087  0.124043E+00  0.397E+00    0.98       1.0  T
   3    -11.3487043 -0.124496E+00  0.163E+00    1.06       1.0  T
   4    -11.3608431 -0.121388E-01  0.445E-01    1.00       1.0  T
   5    -11.3617951 -0.952034E-03  0.148E-01    1.02       1.0  T
   6    -11.3617713  0.237976E-04  0.114E-01    1.02       1.0  T
   7    -11.3617713  0.905451E-07  0.731E-02    1.01       1.0  T
   8    -11.3618148 -0.435408E-04  0.791E-03    1.01       5.7  T
   9    -11.3618149 -0.103528E-06  0.430E-03    1.01      10.4  T
  10    -11.3618149 -0.174636E-07  0.111E-03    1.01      40.1  T
  11    -11.3618149 -0.230175E-08  0.313E-04    1.01     142.7  T
  12    -11.3618149 -0.653859E-10  0.482E-05    1.01     928.8  T
     SCC iter.                  ...        0 min,  0.001 sec
     gradient                   ...        0 min,  0.001 sec
 * total energy  :   -11.1069627 Eh     change       -0.1737149E-01 Eh
   gradient norm :     0.0855231 Eh/α   predicted    -0.1161954E-01 ( -33.11%)
   displ. norm   :     0.9241379 α      lambda       -0.4054588E-01
   maximum displ.:     0.5641307 α      in ANC's #4, #6, #2, ...

........................................................................
.............................. CYCLE   38 ..............................
........................................................................
   1    -11.4637517 -0.114638E+02  0.360E+00    0.51       0.0  T
   2    -11.3419645  0.121787E+00  0.468E+00    0.57       1.0  T
   3    -11.4311288 -0.891644E-01  0.275E+00    0.46       1.0  T
   4    -11.4587052 -0.275764E-01  0.161E+00    0.49       1.0  T
   5    -11.4760649 -0.173597E-01  0.304E-01    0.47       1.0  T
   6    -11.4761940 -0.129058E-03  0.233E-01    0.47       1.0  T
   7    -11.4763601 -0.166141E-03  0.888E-02    0.47       1.0  T
   8    -11.4763872 -0.270258E-04  0.164E-02    0.46       2.7  T
   9    -11.4763884 -0.121051E-05  0.646E-03    0.46       6.9  T
  10    -11.4763884 -0.785445E-08  0.170E-03    0.46      26.4  T
  11    -11.4763884 -0.725087E-08  0.630E-04    0.46      71.0  T
  12    -11.4763884 -0.237666E-08  0.948E-05    0.46     471.8  T
     SCC iter.                  ...        0 min,  0.001 sec
     gradient                   ...        0 min,  0.001 sec
 * total energy  :   -11.1126768 Eh     change       -0.5714079E-02 Eh
   gradient norm :     0.3728901 Eh/α   predicted    -0.3758662E-01 ( 557.79%)
   displ. norm   :     0.3093242 α      lambda       -0.5178486E-01
   maximum displ.:     0.2487606 α      in ANC's #5, #2, #4, ...

........................................................................
.............................. CYCLE   39 ..............................
........................................................................
   1    -11.4189197 -0.114189E+02  0.209E+00    0.37       0.0  T
   2    -11.4185444  0.375372E-03  0.124E+00    0.35       1.0  T
   3    -11.3985318  0.200126E-01  0.155E+00    0.36       1.0  T
   4    -11.4140884 -0.155566E-01  0.795E-01    0.34       1.0  T
   5    -11.4196463 -0.555783E-02  0.125E-01    0.34       1.0  T
   6    -11.4196629 -0.166228E-04  0.689E-02    0.34       1.0  T
   7    -11.4196729 -0.999175E-05  0.292E-02    0.34       1.5  T
   8    -11.4196749 -0.202072E-05  0.697E-03    0.34       6.4  T
   9    -11.4196749 -0.225996E-07  0.432E-03    0.34      10.4  T
  10    -11.4196750 -0.412173E-07  0.542E-04    0.34      82.5  T
  11    -11.4196750  0.113468E-08  0.392E-04    0.34     114.2  T
     SCC iter.                  ...        0 min,  0.001 sec
     gradient                   ...        0 min,  0.001 sec
 * total energy  :   -11.1406059 Eh     change       -0.2792909E-01 Eh
   gradient norm :     0.0997817 Eh/α   predicted    -0.2836986E-01 (   1.58%)
   displ. norm   :     0.3776480 α      lambda       -0.9756502E-02
   maximum displ.:     0.2280318 α      in ANC's #6, #2, #4, ...

........................................................................
.............................. CYCLE   40 ..............................
........................................................................
   1    -11.3935171 -0.113935E+02  0.141E+00    0.14       0.0  T
   2    -11.3920394  0.147774E-02  0.848E-01    0.12       1.0  T
   3    -11.3667588  0.252806E-01  0.166E+00    0.15       1.0  T
   4    -11.3933429 -0.265841E-01  0.343E-01    0.13       1.0  T
   5    -11.3939275 -0.584666E-03  0.899E-02    0.13       1.0  T
   6    -11.3939365 -0.893669E-05  0.355E-02    0.13       1.3  T
   7    -11.3939400 -0.348676E-05  0.144E-02    0.13       3.1  T
   8    -11.3939405 -0.509561E-06  0.759E-03    0.13       5.9  T
   9    -11.3939406 -0.837629E-07  0.468E-03    0.13       9.5  T
  10    -11.3939407 -0.101321E-06  0.603E-04    0.13      74.1  T
  11    -11.3939407 -0.665876E-09  0.129E-04    0.13     347.4  T
     SCC iter.                  ...        0 min,  0.001 sec
     gradient                   ...        0 min,  0.001 sec
 * total energy  :   -11.1457145 Eh     change       -0.5108622E-02 Eh
   gradient norm :     0.0659966 Eh/α   predicted    -0.5573974E-02 (   9.11%)
   displ. norm   :     0.2224021 α      lambda       -0.8686872E-02
   maximum displ.:     0.1363130 α      in ANC's #5, #2, #3, ...

........................................................................
.............................. CYCLE   41 ..............................
........................................................................
   1    -11.4239352 -0.114239E+02  0.266E+00    0.09       0.0  T
   2    -11.4215360  0.239925E-02  0.106E+00    0.06       1.0  T
   3    -11.3874271  0.341088E-01  0.215E+00    0.06       1.0  T
   4    -11.4215094 -0.340822E-01  0.715E-01    0.05       1.0  T
   5    -11.4253174 -0.380805E-02  0.212E-01    0.05       1.0  T
   6    -11.4254353 -0.117851E-03  0.502E-02    0.05       1.0  T
   7    -11.4254393 -0.404008E-05  0.258E-02    0.05       1.7  T
   8    -11.4254406 -0.128578E-05  0.132E-02    0.05       3.4  T
   9    -11.4254406 -0.420830E-07  0.240E-03    0.05      18.6  T
  10    -11.4254407 -0.266205E-07  0.122E-03    0.05      36.6  T
  11    -11.4254407 -0.987052E-09  0.300E-04    0.05     149.0  T
  12    -11.4254407 -0.207496E-10  0.250E-04    0.05     178.9  T
     SCC iter.                  ...        0 min,  0.001 sec
     gradient                   ...        0 min,  0.001 sec
 * total energy  :   -11.1511285 Eh     change       -0.5413948E-02 Eh
   gradient norm :     0.0614920 Eh/α   predicted    -0.4558274E-02 ( -15.80%)
   displ. norm   :     0.4877944 α      lambda       -0.1457246E-01
   maximum displ.:     0.2417636 α      in ANC's #4, #2, #3, ...

........................................................................
.............................. CYCLE   42 ..............................
........................................................................
   1    -11.4256594 -0.114257E+02  0.200E+00    0.26       0.0  T
   2    -11.4247180  0.941429E-03  0.118E+00    0.23       1.0  T
   3    -11.3921599  0.325581E-01  0.194E+00    0.21       1.0  T
   4    -11.4256860 -0.335261E-01  0.317E-01    0.19       1.0  T
   5    -11.4262686 -0.582599E-03  0.172E-01    0.19       1.0  T
   6    -11.4263780 -0.109410E-03  0.714E-02    0.19       1.0  T
   7    -11.4263959 -0.178543E-04  0.213E-02    0.19       2.1  T
   8    -11.4263963 -0.410479E-06  0.106E-02    0.19       4.2  T
   9    -11.4263963 -0.407988E-07  0.457E-03    0.19       9.8  T
  10    -11.4263964 -0.731359E-07  0.140E-03    0.19      32.0  T
  11    -11.4263964 -0.177457E-08  0.233E-04    0.19     192.0  T
  12    -11.4263964 -0.113305E-09  0.828E-05    0.19     540.4  T
     SCC iter.                  ...        0 min,  0.001 sec
     gradient                   ...        0 min,  0.001 sec
 * total energy  :   -11.1576298 Eh     change       -0.6501289E-02 Eh
   gradient norm :     0.0967548 Eh/α   predicted    -0.9019932E-02 (  38.74%)
   displ. norm   :     0.4503481 α      lambda       -0.1088370E-01
   maximum displ.:     0.3067361 α      in ANC's #2, #4, #3, ...
 * RMSD in coord.:     1.5310099 α      energy gain  -0.8893006E-01 Eh

generating ANC from model Hessian ...
Using Lindh-Hessian (1995)
 Shifting diagonal of input Hessian by    8.9001696854258006E-003
 Lowest  eigenvalues of input Hessian
   -0.000000   -0.000000    0.000000    0.000000    0.000000    0.000000
    0.010000    0.011026    0.087094    0.363244    0.491446    0.872662
    1.304771    2.146848    2.681898
 Highest eigenvalues
    0.363244    0.491446    0.872662    1.304771    2.146848    2.681898


........................................................................
.............................. CYCLE   43 ..............................
........................................................................
   1    -11.4188527 -0.114189E+02  0.136E+00    0.21       0.0  T
   2    -11.4188499  0.281598E-05  0.756E-01    0.20       1.0  T
   3    -11.4157867  0.306315E-02  0.621E-01    0.20       1.0  T
   4    -11.4182721 -0.248539E-02  0.300E-01    0.20       1.0  T
   5    -11.4190112 -0.739057E-03  0.979E-02    0.20       1.0  T
   6    -11.4190439 -0.326856E-04  0.344E-02    0.20       1.3  T
   7    -11.4190511 -0.722346E-05  0.101E-02    0.20       4.4  T
   8    -11.4190513 -0.234965E-06  0.494E-03    0.20       9.1  T
   9    -11.4190514 -0.355640E-07  0.153E-03    0.20      29.3  T
  10    -11.4190514 -0.112307E-07  0.495E-04    0.20      90.3  T
  11    -11.4190514 -0.335966E-09  0.102E-04    0.20     438.1  T
     SCC iter.                  ...        0 min,  0.001 sec
     gradient                   ...        0 min,  0.001 sec
 * total energy  :   -11.1634526 Eh     change       -0.5822816E-02 Eh
   gradient norm :     0.0612923 Eh/α   predicted     0.0000000E+00 (-100.00%)
   displ. norm   :     0.2382091 α      lambda       -0.4795435E-02
   maximum displ.:     0.1891995 α      in ANC's #1, #3, #2, ...

........................................................................
.............................. CYCLE   44 ..............................
........................................................................
   1    -11.4320633 -0.114321E+02  0.846E-01    0.19       0.0  T
   2    -11.4320849 -0.215717E-04  0.480E-01    0.19       1.0  T
   3    -11.4306225  0.146233E-02  0.418E-01    0.20       1.0  T
   4    -11.4319238 -0.130126E-02  0.171E-01    0.19       1.0  T
   5    -11.4321442 -0.220393E-03  0.543E-02    0.20       1.0  T
   6    -11.4321498 -0.561640E-05  0.298E-02    0.20       1.5  T
   7    -11.4321566 -0.677225E-05  0.798E-03    0.20       5.6  T
   8    -11.4321567 -0.130009E-06  0.462E-03    0.20       9.7  T
   9    -11.4321568 -0.577743E-07  0.529E-04    0.20      84.6  T
  10    -11.4321568 -0.145990E-09  0.198E-04    0.20     226.3  T
     SCC iter.                  ...        0 min,  0.001 sec
     gradient                   ...        0 min,  0.001 sec
 * total energy  :   -11.1668353 Eh     change       -0.3382737E-02 Eh
   gradient norm :     0.0392901 Eh/α   predicted    -0.2533772E-02 ( -25.10%)
   displ. norm   :     0.5577537 α      lambda       -0.1341286E-01
   maximum displ.:     0.4463858 α      in ANC's #3, #2, #5, ...

........................................................................
.............................. CYCLE   45 ..............................
........................................................................
   1    -11.4493955 -0.114494E+02  0.242E+00    0.11       0.0  T
   2    -11.4494882 -0.926586E-04  0.122E+00    0.11       1.0  T
   3    -11.4385665  0.109217E-01  0.114E+00    0.11       1.0  T
   4    -11.4489786 -0.104121E-01  0.442E-01    0.11       1.0  T
   5    -11.4499687 -0.990151E-03  0.189E-01    0.11       1.0  T
   6    -11.4501348 -0.166054E-03  0.585E-02    0.11       1.0  T
   7    -11.4501532 -0.184757E-04  0.237E-02    0.11       1.9  T
   8    -11.4501537 -0.495798E-06  0.113E-02    0.11       4.0  T
   9    -11.4501541 -0.352484E-06  0.222E-03    0.11      20.2  T
  10    -11.4501541 -0.190993E-07  0.807E-04    0.11      55.4  T
  11    -11.4501541 -0.534762E-09  0.174E-04    0.11     257.1  T
     SCC iter.                  ...        0 min,  0.001 sec
     gradient                   ...        0 min,  0.001 sec
 * total energy  :   -11.1664271 Eh     change        0.4082221E-03 Eh
   gradient norm :     0.1278873 Eh/α   predicted    -0.8792747E-02 (*******%)
   displ. norm   :     0.3179313 α      lambda       -0.1468891E-01
   maximum displ.:     0.2832623 α      in ANC's #2, #1, #3, ...

........................................................................
.............................. CYCLE   46 ..............................
........................................................................
   1    -11.4435440 -0.114435E+02  0.124E+00    0.08       0.0  T
   2    -11.4433069  0.237127E-03  0.723E-01    0.09       1.0  T
   3    -11.4330272  0.102797E-01  0.105E+00    0.09       1.0  T
   4    -11.4435520 -0.105248E-01  0.167E-01    0.09       1.0  T
   5    -11.4437357 -0.183650E-03  0.493E-02    0.09       1.0  T
   6    -11.4437358 -0.814385E-07  0.306E-02    0.09       1.5  T
   7    -11.4437394 -0.369316E-05  0.133E-02    0.09       3.4  T
   8    -11.4437398 -0.368640E-06  0.410E-03    0.09      10.9  T
   9    -11.4437399 -0.854537E-07  0.150E-03    0.09      29.8  T
  10    -11.4437399 -0.973137E-08  0.363E-04    0.09     123.3  T
  11    -11.4437399 -0.401101E-11  0.119E-04    0.09     375.6  T
     SCC iter.                  ...        0 min,  0.001 sec
     gradient                   ...        0 min,  0.001 sec
 * total energy  :   -11.1743809 Eh     change       -0.7953771E-02 Eh
   gradient norm :     0.0359917 Eh/α   predicted    -0.8086830E-02 (   1.67%)
   displ. norm   :     0.3945186 α      lambda       -0.3291134E-02
   maximum displ.:     0.3487003 α      in ANC's #1, #3, #2, ...

........................................................................
.............................. CYCLE   47 ..............................
........................................................................
   1    -11.4263213 -0.114263E+02  0.210E+00    0.06       0.0  T
   2    -11.4257870  0.534236E-03  0.886E-01    0.06       1.0  T
   3    -11.4127244  0.130626E-01  0.119E+00    0.06       1.0  T
   4    -11.4263171 -0.135926E-01  0.357E-01    0.06       1.0  T
   5    -11.4267103 -0.393226E-03  0.150E-01    0.06       1.0  T
   6    -11.4268233 -0.113029E-03  0.299E-02    0.06       1.5  T
   7    -11.4268249 -0.152408E-05  0.206E-02    0.06       2.2  T
   8    -11.4268257 -0.841557E-06  0.894E-03    0.06       5.0  T
   9    -11.4268262 -0.515263E-06  0.199E-03    0.06      22.5  T
  10    -11.4268262 -0.762840E-08  0.978E-04    0.06      45.7  T
  11    -11.4268262 -0.266867E-08  0.211E-04    0.06     211.7  T
     SCC iter.                  ...        0 min,  0.001 sec
     gradient                   ...        0 min,  0.001 sec
 * total energy  :   -11.1754283 Eh     change       -0.1047411E-02 Eh
   gradient norm :     0.0812206 Eh/α   predicted    -0.1901681E-02 (  81.56%)
   displ. norm   :     0.0878367 α      lambda       -0.3989188E-02
   maximum displ.:     0.0518333 α      in ANC's #3, #5, #8, ...

........................................................................
.............................. CYCLE   48 ..............................
........................................................................
   1    -11.4446918 -0.114447E+02  0.501E-01    0.04       0.0  T
   2    -11.4435010  0.119082E-02  0.424E-01    0.05       1.0  T
   3    -11.4429528  0.548167E-03  0.469E-01    0.05       1.0  T
   4    -11.4449436 -0.199080E-02  0.647E-02    0.05       1.0  T
   5    -11.4449434  0.292138E-06  0.275E-02    0.05       1.6  T
   6    -11.4449475 -0.414487E-05  0.903E-03    0.05       5.0  T
   7    -11.4449477 -0.207673E-06  0.526E-03    0.05       8.5  T
   8    -11.4449478 -0.986492E-07  0.172E-03    0.05      26.1  T
   9    -11.4449478 -0.716669E-08  0.775E-04    0.05      57.7  T
  10    -11.4449478 -0.188630E-08  0.353E-04    0.05     126.8  T
     SCC iter.                  ...        0 min,  0.001 sec
     gradient                   ...        0 min,  0.001 sec
 * total energy  :   -11.1777220 Eh     change       -0.2293689E-02 Eh
   gradient norm :     0.0254547 Eh/α   predicted    -0.2009983E-02 ( -12.37%)
   displ. norm   :     0.2964524 α      lambda       -0.2407536E-02
   maximum displ.:     0.2445767 α      in ANC's #3, #2, #5, ...

........................................................................
.............................. CYCLE   49 ..............................
........................................................................
   1    -11.4347111 -0.114347E+02  0.153E+00    0.06       0.0  T
   2    -11.4349133 -0.202181E-03  0.660E-01    0.05       1.0  T
   3    -11.4349034  0.995416E-05  0.230E-01    0.05       1.0  T
   4    -11.4348044  0.989908E-04  0.169E-01    0.05       1.0  T
   5    -11.4349331 -0.128680E-03  0.365E-02    0.05       1.2  T
   6    -11.4349275  0.559757E-05  0.408E-02    0.05       1.1  T
[...]
C         2.23904702466191    0.28748385551183    1.21352174350307
C        -0.00187975960845    0.00082336884022   -0.00005422827109
C         1.10175873321608    0.14386687865377    0.60473105404421

 Bond Distances (Angstroems)
 ---------------------------
N1-C2=1.1626         C2-N1=1.1626         C2-C4=1.3303         C3-C5=1.2980         C4-C2=1.3303         C4-C5=1.2666         
C5-C3=1.2980         C5-C4=1.2666         
 C  C  Rav=1.2983 sigma=0.0260  Rmin=1.2666  Rmax=1.3303     3
 N  C  Rav=1.1626 sigma=0.0000  Rmin=1.1626  Rmax=1.1626     1

 selected bond angles (degree)
 --------------------
C4-C2-N1=179.81                C5-C4-C2=179.84                C4-C5-C3=179.43                

 selected dihedral angles (degree)
 ---------------------------------
C5-C4-C2-N1=224.28            C3-C5-C4-C2=171.50            
           -------------------------------------------------
          |                Final Singlepoint                |
           -------------------------------------------------

          ...................................................
          :                      SETUP                      :
          :.................................................:
          :  # basis functions                  20          :
          :  # atomic orbitals                  20          :
          :  # shells                           10          :
          :  # electrons                        21          :
          :  max. iterations                   250          :
          :  Hamiltonian                  GFN2-xTB          :
          :  restarted?                      false          :
          :  GBSA solvation                  false          :
          :  PC potential                    false          :
          :  electronic temp.          300.0000000     K    :
          :  accuracy                    1.0000000          :
          :  -> integral cutoff          0.2500000E+02      :
          :  -> integral neglect         0.1000000E-07      :
          :  -> SCF convergence          0.1000000E-05 Eh   :
          :  -> wf. convergence          0.1000000E-03 e    :
          :  Broyden damping             0.4000000          :
          ...................................................

 iter      E             dE          RMSdq      gap      omega  full diag
   1    -11.4568519 -0.114569E+02  0.790E-05    0.00       0.0  T
   2    -11.4568519  0.149765E-10  0.630E-05    0.00     709.3  T
   3    -11.4568519 -0.112443E-10  0.515E-05    0.00     867.7  T

   *** convergence criteria satisfied after 3 iterations ***

         #    Occupation            Energy/Eh            Energy/eV
      -------------------------------------------------------------
         1        2.0000           -0.6935337             -18.8720
       ...           ...                  ...                  ...
         5        2.0000           -0.5517747             -15.0146
         6        2.0000           -0.5517746             -15.0146
         7        2.0000           -0.4994946             -13.5919
         8        2.0000           -0.4994937             -13.5919
         9        2.0000           -0.4769347             -12.9781
        10        2.0000           -0.4551393             -12.3850
        11        0.5001           -0.4009546             -10.9105 (HOMO)
        12        0.4999           -0.4009540             -10.9105 (LUMO)
        13                         -0.2577501              -7.0137
        14                         -0.2577461              -7.0136
        15                         -0.1249256              -3.3994
        16                         -0.1249149              -3.3991
       ...                                ...                  ...
        20                          1.4157313              38.5240
      -------------------------------------------------------------
                  HL-Gap            0.0000006 Eh            0.0000 eV
             Fermi-level           -0.4146589 Eh          -11.2834 eV

 SCC (total)                   0 d,  0 h,  0 min,  0.003 sec
 SCC setup                      ...        0 min,  0.000 sec (  1.556%)
 Dispersion                     ...        0 min,  0.000 sec (  0.289%)
 integral evaluation            ...        0 min,  0.001 sec ( 44.787%)
 zeroth order Hamiltonian       ...        0 min,  0.000 sec (  0.466%)
 iterations                     ...        0 min,  0.000 sec ( 11.758%)
 molecular gradient             ...        0 min,  0.001 sec ( 39.355%)
 printout                       ...        0 min,  0.000 sec (  1.444%)

         :::::::::::::::::::::::::::::::::::::::::::::::::::::
         ::                     SUMMARY                     ::
         :::::::::::::::::::::::::::::::::::::::::::::::::::::
         :: total energy             -11.183185519572 Eh    ::
         :: gradient norm              0.000982907800 Eh/a0 ::
         :: HOMO-LUMO gap              0.000016453868 eV    ::
         ::.................................................::
         :: SCC energy               -11.456851887678 Eh    ::
         :: -> isotropic ES           -0.003919522201 Eh    ::
         :: -> anisotropic ES          0.001059038896 Eh    ::
         :: -> anisotropic XC          0.028912890292 Eh    ::
         :: -> dispersion             -0.002572117898 Eh    ::
         :: repulsion energy           0.273667581683 Eh    ::
         :: add. restraining           0.000000000000 Eh    ::
         :::::::::::::::::::::::::::::::::::::::::::::::::::::

           ------------------------------------------------- 
          |                Numerical Hessian                |
           ------------------------------------------------- 
step length          :   0.00500
SCC accuracy         :   0.30000
Hessian scale factor :   1.00000
frozen atoms in %    :   0.00000    0
RMS gradient         :   0.00098
estimated CPU  time      0.00 min
estimated wall time      0.00 min

writing file <hessian>.

 projected vibrational frequencies (cm-1)
eigval :       -0.00    -0.00    -0.00    -0.00     0.00     0.00
eigval :      115.25   240.79   272.67   447.89   466.07   781.70
eigval :     1508.86  1955.59  2178.42
           -------------------------------------------------
          |                Property Printout                |
           -------------------------------------------------

    * Orbital Energies and Occupations

         #    Occupation            Energy/Eh            Energy/eV
      -------------------------------------------------------------
         1        2.0000           -0.6935342             -18.8720
         2        2.0000           -0.6875498             -18.7092
         3        2.0000           -0.6657646             -18.1164
         4        2.0000           -0.6190239             -16.8445
         5        2.0000           -0.5517753             -15.0146
         6        2.0000           -0.5517752             -15.0146
         7        2.0000           -0.4994946             -13.5919
         8        2.0000           -0.4994937             -13.5919
         9        2.0000           -0.4769348             -12.9781
        10        2.0000           -0.4551385             -12.3850
        11        0.5001           -0.4009544             -10.9105 (HOMO)
        12        0.4999           -0.4009538             -10.9105 (LUMO)
        13                         -0.2577500              -7.0137
        14                         -0.2577460              -7.0136
        15                         -0.1249259              -3.3994
        16                         -0.1249152              -3.3991
        17                          0.0589835               1.6050
        18                          0.4377112              11.9107
        19                          0.9978366              27.1525
        20                          1.4157309              38.5240
      -------------------------------------------------------------
                  HL-Gap            0.0000006 Eh            0.0000 eV
             Fermi-level           -0.4146586 Eh          -11.2834 eV

     #   Z        covCN         q      C6AA      α(0)
     1   7 N      0.912    -0.156    24.363     7.138
     2   6 C      1.892     0.140    27.713     8.502
     3   6 C      0.982    -0.110    39.434    10.548
     4   6 C      1.964     0.058    29.605     8.787
     5   6 C      1.962     0.068    29.354     8.749

 Mol. C6AA /au·bohr⁶  :        745.824796
 Mol. C8AA /au·bohr⁸  :      20598.992784
 Mol. α(0) /au        :         43.724477


Wiberg/Mayer (AO) data.
largest (>0.10) Wiberg bond orders for each atom
          total WBO             WBO to atom ...
     1  N   2.742        C    2 2.537    C    5 0.135
     2  C   3.940        N    1 2.537    C    4 1.357
Molecule has the following symmetry elements: (Cinf) (sigma) 
It seems to be the Cinfv point group
     3  C   2.019        C    5 1.812    C    4 0.132
     4  C   3.491        C    5 1.971    C    2 1.357    C    3 0.132
     5  C   3.925        C    4 1.971    C    3 1.812    N    1 0.135

MOs/occ written to file <molden.input>


molecular dipole:
                 x           y           z       tot (Debye)
 q only:        0.010       0.003       0.008
   full:       -0.048      -0.003      -0.020       0.133
molecular quadrupole (traceless):
                xx          xy          yy          xz          yz          zz
 q only:       -3.061      -0.704       2.289      -2.957      -0.383       0.773
  q+dip:       -5.074      -1.163       3.783      -4.878      -0.630       1.292
   full:       -8.333      -1.909       6.216      -8.019      -1.035       2.117

           -------------------------------------------------
          |                Geometry Summary                 |
           -------------------------------------------------

      molecular mass/u    :       62.0496468
   center of mass at/Å    :       -0.0699969      -0.0091053      -0.0381583
  moments of inertia/u·Å² :        0.6525705E-03   0.2061757E+03   0.2061763E+03
rotational constants/cm⁻¹ :        0.2583266E+05   0.8176345E-01   0.8176321E-01

 * 2 selected distances

     #   Z        #   Z                                     value/Å
     1   7 N      2   6 C                                 1.1625829 (min)
     4   6 C      5   6 C                                 1.2665878 (max)

 * 2 distinct bonds (by element types)

   Z      Z             #   av. dist./Å        max./Å        min./Å
   6 C    6 C           1     1.2665878     1.2665878     1.2665878
   6 C    7 N           1     1.1625829     1.1625829     1.1625829

           -------------------------------------------------
          |               Frequency Printout                |
           -------------------------------------------------
 projected vibrational frequencies (cm-1)
eigval :       -0.00    -0.00    -0.00    -0.00     0.00     0.00
eigval :      115.25   240.79   272.67   447.89   466.07   781.70
eigval :     1508.86  1955.59  2178.42
 reduced masses (amu)
   1: 12.02   2: 12.95   3: 12.55   4: 12.30   5: 13.04   6: 12.40   7: 12.44   8: 12.42
   9: 12.17  10: 12.10  11: 12.17  12: 12.65  13: 12.19  14: 12.01  15: 12.74
 IR intensities (amu)
   1:  0.08   2:  0.14   3:  0.06   4:  0.21   5:  0.20   6:  0.35   7:  0.52   8:  0.28
   9:  0.04  10:  0.09  11:  0.20  12:  0.05  13:  0.24  14:  0.93  15:  0.44
 Raman intensities (amu)
   1:  0.00   2:  0.00   3:  0.00   4:  0.00   5:  0.00   6:  0.00   7:  0.00   8:  0.00
   9:  0.00  10:  0.00  11:  0.00  12:  0.00  13:  0.00  14:  0.00  15:  0.00
 output can be read by thermo (or use thermo option).
 writing <g98.out> molden fake output.
 recommended (thermochemical) frequency scaling factor: 1.0
           -------------------------------------------------
          |             Thermodynamic Functions             |
           -------------------------------------------------

cin symmetry found (for desy threshold:  0.10E+00) used in thermo

          ...................................................
          :                      SETUP                      :
          :.................................................:
          :  # frequencies                           9      :
          :  # imaginary freq.                       0      :
          :  linear?                             false      :
          :  only rotor calc.                    false      :
          :  symmetry                              cin      :
          :  rotational number                       1      :
          :  scaling factor                  1.0000000      :
          :  rotor cutoff                   50.0000000 cm⁻¹ :
          :  imag. cutoff                  -20.0000000 cm⁻¹ :
          :.................................................:

    mode    ω/cm⁻¹     T·S(HO)/kcal·mol⁻¹    T·S(FR)/kcal·mol⁻¹   T·S(vib)
   ------------------------------------------------------------------------
       1    115.25    -0.00000 ( 96.58%)     0.00660 (  3.42%)     0.00023
       2    240.79    -0.00000 ( 99.81%)     0.01392 (  0.19%)     0.00003
       3    272.67    -0.00000 ( 99.89%)     0.01515 (  0.11%)     0.00002
   ------------------------------------------------------------------------

   temp. (K)  partition function   enthalpy   heat capacity  entropy
                                   cal/mol     cal/K/mol   cal/K/mol   J/K/mol
 298.15  VIB   6.03                 1422.273      8.904      8.327
         ROT   402.                  888.752      2.981     14.899
         INT  0.243E+04             2311.025     11.885     23.226
         TR   0.473E+27             1481.254      4.968     38.278
         TOT                        3792.2791    16.8527    61.5043   257.3341

   temp. (K)  partition function   enthalpy   heat capacity  entropy
                                   cal/mol     cal/K/mol   cal/K/mol   J/K/mol
 120.00  VIB   1.48                  193.154      4.126      2.405
         ROT   103.                  357.707      2.981     12.186
         INT   152.                  550.860      7.107     14.591
         TR   0.121E+27              596.178      4.968     33.759
         TOT                        1147.0385    12.0747    48.3498   202.2958

   temp. (K)  partition function   enthalpy   heat capacity  entropy
                                   cal/mol     cal/K/mol   cal/K/mol   J/K/mol
 100.00  VIB   1.30                  119.214      3.258      1.737
         ROT   78.2                  298.089      2.981     11.643
         INT   102.                  417.303      6.239     13.380
         TR   0.919E+26              496.815      4.968     32.853
         TOT                         914.1183    11.2069    46.2333   193.4402

   temp. (K)  partition function   enthalpy   heat capacity  entropy
                                   cal/mol     cal/K/mol   cal/K/mol   J/K/mol
  80.00  VIB   1.17                   63.161      2.343      1.119
         ROT   55.9                  238.471      2.981     10.978
         INT   65.3                  301.632      5.324     12.097
         TR   0.657E+26              397.452      4.968     31.745
         TOT                         699.0841    10.2918    43.8420   183.4351

   temp. (K)  partition function   enthalpy   heat capacity  entropy
                                   cal/mol     cal/K/mol   cal/K/mol   J/K/mol
  60.00  VIB   1.07                   25.502      1.429      0.586
         ROT   36.3                  178.853      2.981     10.120
         INT   38.9                  204.355      4.410     10.706
         TR   0.427E+26              298.089      4.968     30.317
         TOT                         502.4443     9.3783    41.0224   171.6379

   temp. (K)  partition function   enthalpy   heat capacity  entropy
                                   cal/mol     cal/K/mol   cal/K/mol   J/K/mol
  40.00  VIB   1.02                    5.465      0.595      0.187
         ROT   19.8                  119.236      2.981      8.911
         INT   20.1                  124.701      3.576      9.099
         TR   0.232E+26              198.726      4.968     28.303
         TOT                         323.4267     8.5439    37.4020   156.4899

   temp. (K)  partition function   enthalpy   heat capacity  entropy
                                   cal/mol     cal/K/mol   cal/K/mol   J/K/mol
  20.00  VIB   1.00                    0.083      0.034      0.003
         ROT   6.99                   59.618      2.981      6.845
         INT   6.99                   59.700      3.015      6.848
         TR   0.822E+25               99.363      4.968     24.861
         TOT                         159.0635     7.9833    31.7093   132.6717

   temp. (K)  partition function   enthalpy   heat capacity  entropy
                                   cal/mol     cal/K/mol   cal/K/mol   J/K/mol
  10.00  VIB   1.00                    0.000      0.000     -0.028
         ROT   2.47                   29.809      2.981      4.779
         INT   2.47                   29.809      2.981      4.751
         TR   0.290E+25               49.681      4.968     21.419
         TOT                          79.4904     7.9491    26.1708   109.4987

       T/K    H(0)-H(T)+PV         H(T)/Eh          T*S/Eh         G(T)/Eh
   ------------------------------------------------------------------------
    298.15    0.604338E-02    0.241941E-01    0.292227E-01   -0.502862E-02
    120.00    0.182792E-02    0.199786E-01    0.924605E-02    0.107326E-01
    100.00    0.145674E-02    0.196074E-01    0.736775E-02    0.122397E-01
     80.00    0.111406E-02    0.192647E-01    0.558934E-02    0.136754E-01
     60.00    0.800696E-03    0.189514E-01    0.392241E-02    0.150290E-01
     40.00    0.515413E-03    0.186661E-01    0.238415E-02    0.162819E-01
     20.00    0.253484E-03    0.184042E-01    0.101064E-02    0.173935E-01
     10.00    0.126676E-03    0.182774E-01    0.417058E-03    0.178603E-01 (used)
   ------------------------------------------------------------------------

         :::::::::::::::::::::::::::::::::::::::::::::::::::::
         ::                  THERMODYNAMIC                  ::
         :::::::::::::::::::::::::::::::::::::::::::::::::::::
         :: total free energy         -11.165325214649 Eh   ::
         ::.................................................::
         :: total energy              -11.183185518134 Eh   ::
         :: zero point energy           0.018150685809 Eh   ::
         :: G(RRHO) w/o ZPVE           -0.000290382324 Eh   ::
         :: G(RRHO) contrib.            0.017860303485 Eh   ::
         :::::::::::::::::::::::::::::::::::::::::::::::::::::

optimized geometry written to: xtbopt.xyz


           -------------------------------------------------
          | TOTAL ENERGY              -11.183185518134 Eh   |
          | TOTAL ENTHALPY            -11.164908156277 Eh   |
          | TOTAL FREE ENERGY         -11.165325214649 Eh   |
          | GRADIENT NORM               0.000980996220 Eh/α |
          | HOMO-LUMO GAP               0.000016444208 eV   |
           -------------------------------------------------

------------------------------------------------------------------------
 * finished run on 2020/05/12 at 11:43:56.350     
------------------------------------------------------------------------
 total:
 * wall-time:     0 d,  0 h,  0 min,  0.347 sec
 *  cpu-time:     0 d,  0 h,  0 min,  0.345 sec
 * ratio c/w:     0.994 speedup
 SCF:
 * wall-time:     0 d,  0 h,  0 min,  0.007 sec
 *  cpu-time:     0 d,  0 h,  0 min,  0.007 sec
 * ratio c/w:     0.965 speedup
 ANC optimizer:
 * wall-time:     0 d,  0 h,  0 min,  0.236 sec
 *  cpu-time:     0 d,  0 h,  0 min,  0.235 sec
 * ratio c/w:     0.995 speedup
 numerical hessian:
 * wall-time:     0 d,  0 h,  0 min,  0.088 sec
 *  cpu-time:     0 d,  0 h,  0 min,  0.088 sec
 * ratio c/w:     0.996 speedup

