      -----------------------------------------------------------      
     |                   =====================                   |     
     |                           x T B                           |     
     |                   =====================                   |     
     |                         S. Grimme                         |     
     |          Mulliken Center for Theoretical Chemistry        |     
     |                    University of Bonn                     |     
      -----------------------------------------------------------      

   * xtb version 6.2.2 (9d81278992624c895f80dd42a50cac0aa55982e2) compiled by '@Darwin' on 04/03/2020

   xtb is free software: you can redistribute it and/or modify it under
   the terms of the GNU Lesser General Public License as published by
   the Free Software Foundation, either version 3 of the License, or
   (at your option) any later version.
   
   xtb is distributed in the hope that it will be useful,
   but WITHOUT ANY WARRANTY; without even the implied warranty of
   MERCHANTABILITY or FITNESS FOR A PARTICULAR PURPOSE.  See the
   GNU Lesser General Public License for more details.
   
   Cite this work as:
   * S. Grimme, C. Bannwarth, P. Shushkov, J. Chem. Theory Comput., 2017,
     13, 1989-2009. DOI: 10.1021/acs.jctc.7b00118
   * C. Bannwarth, S. Ehlert and S. Grimme., J. Chem. Theory Comput., 2019,
     15, 1652-1671. DOI: 10.1021/acs.jctc.8b01176
   * P. Pracht, E. Caldeweyher, S. Ehlert, S. Grimme, ChemRxiv, 2019, preprint.
     DOI: 10.26434/chemrxiv.8326202.v1
   
   for DFT-D4:
   * E. Caldeweyher, C. Bannwarth and S. Grimme, J. Chem. Phys., 2017,
     147, 034112. DOI: 10.1063/1.4993215
   * E. Caldeweyher, S. Ehlert, A. Hansen, H. Neugebauer, S. Spicher,
     C. Bannwarth and S. Grimme, J. Chem. Phys., 2019, 150, 154122.
     DOI: 10.1063/1.5090222
   
   for sTDA-xTB:
   * S. Grimme and C. Bannwarth, J. Chem. Phys., 2016, 145, 054103.
     DOI: 10.1063/1.4959605
   
   in the mass-spec context:
   * V. Asgeirsson, C. Bauer and S. Grimme, Chem. Sci., 2017, 8, 4879.
     DOI: 10.1039/c7sc00601b
   
   for metadynamics refer to:
   * S. Grimme, J. Chem. Theory Comput., 2019, 155, 2847-2862
     DOI: 10.1021/acs.jctc.9b00143
   
   with help from (in alphabetical order)
   C. Bannwarth, F. Bohle, G. Brandenburg, E. Caldeweyher, M. Checinski,
   S. Dohm, S. Ehlert, S. Ehrlich, F. März, H. Neugebauer, J. Pisarek,
   P. Pracht, P. Shushkov, and S. Spicher.
   
 * started run on 2020/05/12 at 11:45:07.813     

           -------------------------------------------------
          |                Calculation Setup                |
           -------------------------------------------------

          program call               : xtb --input H1C4_0_S_3.input H1C4_0_S_3.xyz --ohess --molden --namespace H1C4_0_S_3 output.out
          calculation namespace      : H1C4_0_S_3
          coordinate file            : H1C4_0_S_3.xyz
          number of atoms            :                     5
          number of electrons        :                    17
          charge                     :                     0
          spin                       :                   1.5
          first test random number   :      0.62585620052298

   ID    Z sym.   atoms
    1    6 C      1-4
    2    1 H      5

           -------------------------------------------------
          |                 G F N 2 - x T B                 |
           -------------------------------------------------

        Reference                      10.1021/acs.jctc.8b01176
      * Hamiltonian:
        H0-scaling (s, p, d)           1.850000    2.230000    2.230000
        zeta-weighting                 0.500000
      * Dispersion:
        s8                             2.700000
        a1                             0.520000
        a2                             5.000000
        s9                             5.000000
      * Repulsion:
        kExp                           1.500000    1.000000
        rExp                           1.000000
      * Coulomb:
        alpha                          2.000000
        third order                    shell-resolved
        anisotropic                    true
        a3                             3.000000
        a5                             4.000000
        cn-shift                       1.200000
        cn-exp                         4.000000
        max-rad                        5.000000


          ...................................................
          :                      SETUP                      :
          :.................................................:
          :  # basis functions                  17          :
          :  # atomic orbitals                  17          :
          :  # shells                            9          :
          :  # electrons                        17          :
          :  max. iterations                   250          :
          :  Hamiltonian                  GFN2-xTB          :
          :  restarted?                      false          :
          :  GBSA solvation                  false          :
          :  PC potential                    false          :
          :  electronic temp.          300.0000000     K    :
          :  accuracy                    1.0000000          :
          :  -> integral cutoff          0.2500000E+02      :
          :  -> integral neglect         0.1000000E-07      :
          :  -> SCF convergence          0.1000000E-05 Eh   :
          :  -> wf. convergence          0.1000000E-03 e    :
          :  Broyden damping             0.4000000          :
          ...................................................

 iter      E             dE          RMSdq      gap      omega  full diag
   1     -8.4737219 -0.847372E+01  0.105E+01    0.34       0.0  T
   2     -7.4094841  0.106424E+01  0.116E+01    0.60       1.0  T
   3     -6.6083181  0.801166E+00  0.137E+01    1.53       1.0  T
   4     -8.1931482 -0.158483E+01  0.708E+00    0.10       1.0  T
   5     -8.2284689 -0.353207E-01  0.616E+00    0.40       1.0  T
   6     -8.4657538 -0.237285E+00  0.327E+00    0.58       1.0  T
   7     -8.5001190 -0.343652E-01  0.255E+00    0.51       1.0  T
   8     -8.5170928 -0.169738E-01  0.211E+00    0.43       1.0  T
   9     -8.5243963 -0.730347E-02  0.153E+00    0.38       1.0  T
  10     -8.5338407 -0.944446E-02  0.103E+00    0.12       1.0  T
  11     -8.5335377  0.303062E-03  0.104E+00    0.12       1.0  T
  12     -8.5384988 -0.496110E-02  0.452E-01    0.16       1.0  T
  13     -8.5397205 -0.122175E-02  0.279E-01    0.21       1.0  T
  14     -8.5398160 -0.954818E-04  0.159E-01    0.21       1.0  T
  15     -8.5398629 -0.468927E-04  0.830E-02    0.20       1.0  T
  16     -8.5398730 -0.100999E-04  0.470E-02    0.20       1.0  T
  17     -8.5398832 -0.101977E-04  0.128E-02    0.20       3.5  T
  18     -8.5398829  0.308981E-06  0.124E-02    0.20       3.6  T
  19     -8.5398836 -0.737472E-06  0.439E-03    0.20      10.2  T
  20     -8.5398837 -0.104654E-06  0.865E-04    0.20      51.7  T
  21     -8.5398837 -0.111484E-08  0.216E-04    0.20     207.3  T

   *** convergence criteria satisfied after 21 iterations ***

         #    Occupation            Energy/Eh            Energy/eV
      -------------------------------------------------------------
         1        2.0000           -0.6901120             -18.7789
       ...           ...                  ...                  ...
         4        2.0000           -0.5510235             -14.9941
         5        2.0000           -0.5160537             -14.0425
         6        2.0000           -0.4879611             -13.2781
         7        2.0000           -0.4766805             -12.9711
         8        1.0000           -0.4291175             -11.6769
         9        1.0000           -0.4027355             -10.9590
        10        0.9778           -0.3823097             -10.4032 (HOMO)
        11        0.0222           -0.3751169             -10.2075 (LUMO)
        12        0.0000           -0.3642944              -9.9130
        13                         -0.2953629              -8.0372
        14                          0.0651543               1.7729
        15                          0.0862048               2.3458
       ...                                ...                  ...
        17                          0.1449659               3.9447
      -------------------------------------------------------------
                  HL-Gap            0.0071928 Eh            0.1957 eV
             Fermi-level           -0.4158061 Eh          -11.3147 eV

 SCC (total)                   0 d,  0 h,  0 min,  0.005 sec
 SCC setup                      ...        0 min,  0.000 sec (  2.332%)
 Dispersion                     ...        0 min,  0.000 sec (  0.490%)
 integral evaluation            ...        0 min,  0.002 sec ( 31.858%)
 zeroth order Hamiltonian       ...        0 min,  0.000 sec (  0.416%)
 iterations                     ...        0 min,  0.002 sec ( 38.907%)
 molecular gradient             ...        0 min,  0.001 sec ( 20.986%)
 printout                       ...        0 min,  0.000 sec (  4.747%)

         :::::::::::::::::::::::::::::::::::::::::::::::::::::
         ::                     SUMMARY                     ::
         :::::::::::::::::::::::::::::::::::::::::::::::::::::
         :: total energy              -8.481161349140 Eh    ::
         :: gradient norm              0.198264841793 Eh/a0 ::
         :: HOMO-LUMO gap              0.195725563049 eV    ::
         ::.................................................::
         :: SCC energy                -8.539883735152 Eh    ::
         :: -> isotropic ES           -0.033263227421 Eh    ::
         :: -> anisotropic ES         -0.000808933264 Eh    ::
         :: -> anisotropic XC          0.008663858665 Eh    ::
         :: -> dispersion             -0.002365408682 Eh    ::
         :: repulsion energy           0.058722233192 Eh    ::
         :: add. restraining           0.000000000000 Eh    ::
         :::::::::::::::::::::::::::::::::::::::::::::::::::::

      ----------------------------------------------------------- 
     |                   =====================                   |
     |                        A N C O P T                        |
     |                   =====================                   |
     |               Approximate Normal Coordinate               |
     |                Rational Function Optimizer                |
      ----------------------------------------------------------- 

          ...................................................
          :                      SETUP                      :
          :.................................................:
          :   optimization level            normal          :
          :   max. optcycles                   200          :
          :   ANC micro-cycles                  20          :
          :   degrees of freedom                 9          :
          :.................................................:
          :   RF solver                   davidson          :
          :   write xtbopt.log                true          :
          :   linear?                        false          :
          :   energy convergence         0.5000000E-05 Eh   :
          :   grad. convergence          0.1000000E-02 Eh/α :
          :   maximium RF displ.         1.0000000          :
          :   Hlow (freq-cutoff)         0.1000000E-01      :
          :   Hmax (freq-cutoff)         5.0000000          :
          :   S6 in model hess.         20.0000000          :
          ...................................................

generating ANC from model Hessian ...
Using Lindh-Hessian (1995)
 Shifting diagonal of input Hessian by    0.0000000000000000     
 Lowest  eigenvalues of input Hessian
   -0.000000   -0.000000   -0.000000    0.000000    0.000000    0.000000
    0.010663    0.038709    0.058407    0.066415    0.098242    0.569240
    0.790728    0.983678    1.033672
 Highest eigenvalues
    0.066415    0.098242    0.569240    0.790728    0.983678    1.033672


........................................................................
.............................. CYCLE    1 ..............................
........................................................................
   1     -8.5398837 -0.853988E+01  0.220E-04    0.20       0.0  T
   2     -8.5398837  0.156864E-07  0.129E-03    0.20      34.6  T
   3     -8.5398837 -0.146507E-07  0.381E-04    0.20     117.5  T
   4     -8.5398837 -0.118674E-08  0.139E-04    0.20     320.9  T
     SCC iter.                  ...        0 min,  0.001 sec
     gradient                   ...        0 min,  0.001 sec
 * total energy  :    -8.4811613 Eh     change        0.3077893E-09 Eh
   gradient norm :     0.1982649 Eh/α   predicted     0.0000000E+00 (-100.00%)
   displ. norm   :     0.3750609 α      lambda       -0.6594499E-01
   maximum displ.:     0.3041492 α      in ANC's #6, #3, #4, ...

........................................................................
.............................. CYCLE    2 ..............................
........................................................................
   1     -8.6264814 -0.862648E+01  0.156E+00    0.54       0.0  T
   2     -8.6114337  0.150477E-01  0.187E+00    0.32       1.0  T
   3     -8.6153050 -0.387124E-02  0.148E+00    0.55       1.0  T
   4     -8.6043181  0.109868E-01  0.175E+00    0.59       1.0  T
   5     -8.6188062 -0.144881E-01  0.115E+00    0.28       1.0  T
   6     -8.6302474 -0.114412E-01  0.102E-01    0.47       1.0  T
   7     -8.6302902 -0.427418E-04  0.622E-02    0.46       1.0  T
   8     -8.6302966 -0.645188E-05  0.106E-02    0.46       4.2  T
   9     -8.6302968 -0.203664E-06  0.562E-03    0.46       8.0  T
  10     -8.6302969 -0.827588E-07  0.182E-03    0.46      24.5  T
  11     -8.6302969 -0.123328E-07  0.333E-04    0.46     134.1  T
  12     -8.6302969 -0.543137E-09  0.109E-04    0.46     408.4  T
     SCC iter.                  ...        0 min,  0.001 sec
     gradient                   ...        0 min,  0.001 sec
 * total energy  :    -8.5316942 Eh     change       -0.5053285E-01 Eh
   gradient norm :     0.1018493 Eh/α   predicted    -0.3761076E-01 ( -25.57%)
   displ. norm   :     0.4143373 α      lambda       -0.3550912E-01
   maximum displ.:     0.2969484 α      in ANC's #6, #4, #5, ...

........................................................................
.............................. CYCLE    3 ..............................
........................................................................
   1     -8.6991205 -0.869912E+01  0.170E+00    1.08       0.0  T
   2     -8.6677884  0.313321E-01  0.242E+00    1.00       1.0  T
   3     -8.7015539 -0.337655E-01  0.104E+00    1.08       1.0  T
   4     -8.6984646  0.308927E-02  0.101E+00    1.04       1.0  T
   5     -8.7019912 -0.352651E-02  0.731E-01    1.06       1.0  T
   6     -8.7061656 -0.417444E-02  0.607E-02    1.06       1.0  T
   7     -8.7061688 -0.324245E-05  0.274E-02    1.06       1.6  T
   8     -8.7061697 -0.908712E-06  0.742E-03    1.06       6.0  T
   9     -8.7061699 -0.106442E-06  0.150E-03    1.06      29.9  T
  10     -8.7061699 -0.758739E-08  0.276E-04    1.06     161.8  T
  11     -8.7061699 -0.150791E-09  0.854E-05    1.06     523.9  T
     SCC iter.                  ...        0 min,  0.001 sec
     gradient                   ...        0 min,  0.001 sec
 * total energy  :    -8.5473951 Eh     change       -0.1570094E-01 Eh
   gradient norm :     0.0797903 Eh/α   predicted    -0.2080259E-01 (  32.49%)
   displ. norm   :     0.3986746 α      lambda       -0.1522122E-01
   maximum displ.:     0.2372249 α      in ANC's #2, #3, #5, ...

........................................................................
.............................. CYCLE    4 ..............................
........................................................................
   1     -8.6773721 -0.867737E+01  0.150E+00    0.77       0.0  T
   2     -8.5730636  0.104308E+00  0.358E+00    0.49       1.0  T
   3     -8.6782794 -0.105216E+00  0.108E+00    0.76       1.0  T
   4     -8.6795083 -0.122893E-02  0.886E-01    0.68       1.0  T
   5     -8.6840976 -0.458930E-02  0.278E-01    0.69       1.0  T
   6     -8.6843509 -0.253327E-03  0.193E-01    0.68       1.0  T
   7     -8.6845232 -0.172288E-03  0.359E-02    0.67       1.2  T
   8     -8.6845285 -0.526792E-05  0.746E-03    0.67       6.0  T
   9     -8.6845286 -0.849622E-07  0.161E-03    0.67      27.8  T
  10     -8.6845286 -0.494708E-08  0.623E-04    0.67      71.8  T
  11     -8.6845286 -0.109297E-09  0.337E-04    0.67     132.8  T
     SCC iter.                  ...        0 min,  0.001 sec
     gradient                   ...        0 min,  0.001 sec
 * total energy  :    -8.5542768 Eh     change       -0.6881674E-02 Eh
   gradient norm :     0.0510627 Eh/α   predicted    -0.8820261E-02 (  28.17%)
   displ. norm   :     0.2110908 α      lambda       -0.5654239E-02
   maximum displ.:     0.1413126 α      in ANC's #5, #3, #2, ...

........................................................................
.............................. CYCLE    5 ..............................
........................................................................
   1     -8.6901621 -0.869016E+01  0.112E+00    0.39       0.0  T
   2     -8.6436123  0.465499E-01  0.273E+00    0.26       1.0  T
   3     -8.6901393 -0.465270E-01  0.720E-01    0.39       1.0  T
   4     -8.6826023  0.753701E-02  0.100E+00    0.27       1.0  T
   5     -8.6914360 -0.883370E-02  0.173E-01    0.37       1.0  T
   6     -8.6916118 -0.175845E-03  0.658E-02    0.36       1.0  T
   7     -8.6916207 -0.888697E-05  0.319E-02    0.36       1.4  T
   8     -8.6916238 -0.310274E-05  0.103E-02    0.35       4.4  T
   9     -8.6916241 -0.338319E-06  0.700E-03    0.35       6.4  T
  10     -8.6916241 -0.905360E-08  0.171E-03    0.35      26.2  T
  11     -8.6916242 -0.195147E-08  0.952E-04    0.35      47.0  T
  12     -8.6916242 -0.254383E-08  0.501E-04    0.35      89.2  T
     SCC iter.                  ...        0 min,  0.001 sec
     gradient                   ...        0 min,  0.001 sec
 * total energy  :    -8.5592257 Eh     change       -0.4948921E-02 Eh
   gradient norm :     0.0296954 Eh/α   predicted    -0.2953094E-02 ( -40.33%)
   displ. norm   :     0.7502882 α      lambda       -0.1535002E-01
   maximum displ.:     0.4768189 α      in ANC's #5, #2, #3, ...

........................................................................
.............................. CYCLE    6 ..............................
........................................................................
   1     -8.6177849 -0.861778E+01  0.734E+00    0.85       0.0  T
   2     -7.5636086  0.105418E+01  0.101E+01    2.09       1.0  T
   3     -8.2895941 -0.725986E+00  0.723E+00    1.37       1.0  T
   4     -8.6320174 -0.342423E+00  0.453E+00    0.38       1.0  T
   5     -8.7355964 -0.103579E+00  0.219E+00    0.37       1.0  T
   6     -8.7383302 -0.273380E-02  0.184E+00    0.43       1.0  T
   7     -8.7200983  0.182319E-01  0.195E+00    0.31       1.0  T
   8     -8.7350803 -0.149820E-01  0.120E+00    0.33       1.0  T
   9     -8.7381910 -0.311074E-02  0.957E-01    0.34       1.0  T
  10     -8.7394667 -0.127570E-02  0.833E-01    0.35       1.0  T
  11     -8.7437801 -0.431343E-02  0.123E-01    0.40       1.0  T
  12     -8.7437731  0.704641E-05  0.569E-02    0.39       1.0  T
  13     -8.7437587  0.143981E-04  0.573E-02    0.40       1.0  T
  14     -8.7437694 -0.106930E-04  0.389E-02    0.40       1.2  T
  15     -8.7437810 -0.116294E-04  0.500E-03    0.40       8.9  T
  16     -8.7437811 -0.964868E-07  0.234E-03    0.40      19.1  T
  17     -8.7437811 -0.236251E-07  0.526E-04    0.40      85.0  T
  18     -8.7437811 -0.233242E-08  0.170E-04    0.40     262.9  T
     SCC iter.                  ...        0 min,  0.001 sec
     gradient                   ...        0 min,  0.001 sec
 * total energy  :    -8.5909423 Eh     change       -0.3171659E-01 Eh
   gradient norm :     0.1176104 Eh/α   predicted    -0.1199555E-01 ( -62.18%)
   displ. norm   :     0.7704564 α      lambda       -0.4737207E-01
   maximum displ.:     0.5370830 α      in ANC's #5, #2, #6, ...

........................................................................
.............................. CYCLE    7 ..............................
........................................................................
   1     -8.7850795 -0.878508E+01  0.493E+00    1.99       0.0  T
   2     -8.5120501  0.273029E+00  0.585E+00    1.75       1.0  T
   3     -8.5748538 -0.628037E-01  0.510E+00    1.99       1.0  T
   4     -8.8002191 -0.225365E+00  0.313E+00    1.95       1.0  T
   5     -8.8151946 -0.149754E-01  0.187E+00    2.10       1.0  T
   6     -8.8149504  0.244164E-03  0.178E+00    2.05       1.0  T
   7     -8.8155602 -0.609795E-03  0.138E+00    2.07       1.0  T
   8     -8.8159147 -0.354534E-03  0.106E+00    2.08       1.0  T
   9     -8.8164237 -0.508970E-03  0.504E-01    2.09       1.0  T
  10     -8.8164627 -0.389589E-04  0.471E-01    2.09       1.0  T
  11     -8.8167071 -0.244452E-03  0.562E-02    2.10       1.0  T
  12     -8.8167088 -0.165875E-05  0.129E-02    2.10       3.5  T
  13     -8.8167089 -0.153271E-06  0.398E-03    2.10      11.2  T
  14     -8.8167089 -0.118898E-07  0.741E-04    2.10      60.3  T
  15     -8.8167089 -0.182840E-08  0.263E-04    2.10     170.0  T
     SCC iter.                  ...        0 min,  0.001 sec
     gradient                   ...        0 min,  0.001 sec
 * total energy  :    -8.5264981 Eh     change        0.6444423E-01 Eh
   gradient norm :     0.5497421 Eh/α   predicted    -0.3774612E-01 (-158.57%)
   displ. norm   :     0.4654202 α      lambda       -0.2128968E+00
   maximum displ.:     0.2839829 α      in ANC's #4, #5, #3, ...

........................................................................
.............................. CYCLE    8 ..............................
........................................................................
   1     -8.6661990 -0.866620E+01  0.412E+00    0.86       0.0  T
   2     -7.9727971  0.693402E+00  0.799E+00    2.32       1.0  T
   3     -8.7044090 -0.731612E+00  0.246E+00    0.90       1.0  T
   4     -8.7086418 -0.423276E-02  0.201E+00    1.18       1.0  T
   5     -8.7271510 -0.185092E-01  0.766E-01    0.99       1.0  T
   6     -8.7308722 -0.372120E-02  0.526E-01    1.07       1.0  T
   7     -8.7315004 -0.628147E-03  0.304E-01    1.04       1.0  T
   8     -8.7319347 -0.434328E-03  0.343E-02    1.03       1.3  T
   9     -8.7319347  0.176324E-07  0.228E-02    1.03       2.0  T
  10     -8.7319358 -0.113836E-05  0.350E-03    1.03      12.8  T
  11     -8.7319359 -0.344460E-07  0.129E-03    1.03      34.6  T
  12     -8.7319358  0.109419E-07  0.162E-03    1.03      27.7  T
  13     -8.7319359 -0.156360E-07  0.170E-04    1.03     262.6  T
  14     -8.7319359 -0.935874E-10  0.648E-05    1.03     690.3  T
     SCC iter.                  ...        0 min,  0.001 sec
     gradient                   ...        0 min,  0.001 sec
 * total energy  :    -8.5984099 Eh     change       -0.7191177E-01 Eh
   gradient norm :     0.1046897 Eh/α   predicted    -0.1295068E+00 (  80.09%)
   displ. norm   :     0.6488375 α      lambda       -0.3957666E-01
   maximum displ.:     0.5006638 α      in ANC's #2, #1, #4, ...

........................................................................
.............................. CYCLE    9 ..............................
........................................................................
   1     -8.7523086 -0.875231E+01  0.188E+00    0.67       0.0  T
   2     -8.6380652  0.114243E+00  0.355E+00    1.03       1.0  T
   3     -8.7271459 -0.890807E-01  0.185E+00    0.48       1.0  T
   4     -8.7547195 -0.275737E-01  0.711E-01    0.76       1.0  T
   5     -8.7525642  0.215537E-02  0.720E-01    0.68       1.0  T
   6     -8.7526800 -0.115819E-03  0.667E-01    0.69       1.0  T
   7     -8.7532059 -0.525944E-03  0.544E-01    0.70       1.0  T
   8     -8.7549586 -0.175262E-02  0.247E-01    0.74       1.0  T
   9     -8.7549068  0.517600E-04  0.264E-01    0.74       1.0  T
  10     -8.7552939 -0.387139E-03  0.553E-02    0.76       1.0  T
  11     -8.7553132 -0.192702E-04  0.391E-03    0.77      11.4  T
  12     -8.7553129  0.262040E-06  0.669E-03    0.77       6.7  T
  13     -8.7553132 -0.259418E-06  0.114E-03    0.77      39.1  T
  14     -8.7553132 -0.706318E-08  0.158E-04    0.77     282.7  T
  15     -8.7553132 -0.143292E-09  0.118E-05    0.77    3805.7  T
     SCC iter.                  ...        0 min,  0.001 sec
     gradient                   ...        0 min,  0.001 sec
 * total energy  :    -8.5970364 Eh     change        0.1373465E-02 Eh
   gradient norm :     0.1426966 Eh/α   predicted    -0.2811901E-01 (*******%)
   displ. norm   :     0.3336217 α      lambda       -0.2828410E-01
   maximum displ.:     0.2395147 α      in ANC's #1, #4, #6, ...

........................................................................
.............................. CYCLE   10 ..............................
........................................................................
   1     -8.7630651 -0.876307E+01  0.997E-01    1.18       0.0  T
   2     -8.7443728  0.186923E-01  0.151E+00    0.85       1.0  T
   3     -8.7528371 -0.846430E-02  0.121E+00    1.22       1.0  T
   4     -8.7623595 -0.952243E-02  0.545E-01    1.08       1.0  T
   5     -8.7643373 -0.197777E-02  0.160E-01    1.08       1.0  T
   6     -8.7642818  0.554724E-04  0.154E-01    1.08       1.0  T
   7     -8.7643602 -0.783905E-04  0.103E-01    1.08       1.0  T
   8     -8.7644273 -0.670514E-04  0.888E-03    1.09       5.0  T
   9     -8.7644256  0.168040E-05  0.144E-02    1.09       3.1  T
  10     -8.7644274 -0.183206E-05  0.806E-04    1.09      55.5  T
  11     -8.7644274 -0.140058E-08  0.229E-04    1.09     195.3  T
  12     -8.7644274 -0.108573E-09  0.109E-04    1.09     408.8  T
     SCC iter.                  ...        0 min,  0.001 sec
     gradient                   ...        0 min,  0.001 sec
 * total energy  :    -8.6132076 Eh     change       -0.1617122E-01 Eh
   gradient norm :     0.0714405 Eh/α   predicted    -0.1571611E-01 (  -2.81%)
   displ. norm   :     0.1881800 α      lambda       -0.7732811E-02
   maximum displ.:     0.1006941 α      in ANC's #6, #2, #1, ...

........................................................................
.............................. CYCLE   11 ..............................
........................................................................
   1     -8.7723097 -0.877231E+01  0.760E-01    1.22       0.0  T
   2     -8.7583658  0.139439E-01  0.120E+00    1.05       1.0  T
   3     -8.7227486  0.356172E-01  0.247E+00    1.37       1.0  T
   4     -8.7684807 -0.457321E-01  0.751E-01    1.25       1.0  T
   5     -8.7726775 -0.419684E-02  0.146E-01    1.18       1.0  T
   6     -8.7727158 -0.383322E-04  0.120E-01    1.18       1.0  T
   7     -8.7726523  0.635373E-04  0.129E-01    1.17       1.0  T
   8     -8.7727136 -0.613035E-04  0.791E-02    1.18       1.0  T
   9     -8.7727487 -0.350683E-04  0.359E-02    1.18       1.2  T
  10     -8.7727530 -0.435997E-05  0.212E-02    1.18       2.1  T
  11     -8.7727544 -0.137781E-05  0.123E-02    1.18       3.6  T
  12     -8.7727553 -0.867534E-06  0.129E-03    1.18      34.7  T
  13     -8.7727553 -0.829526E-08  0.328E-04    1.18     136.4  T
  14     -8.7727553 -0.399540E-09  0.169E-05    1.18    2644.8  T
     SCC iter.                  ...        0 min,  0.002 sec
     gradient                   ...        0 min,  0.001 sec
 * total energy  :    -8.6167693 Eh     change       -0.3561684E-02 Eh
   gradient norm :     0.0389393 Eh/α   predicted    -0.4003321E-02 (  12.40%)
   displ. norm   :     0.3252796 α      lambda       -0.5114757E-02
   maximum displ.:     0.2814242 α      in ANC's #1, #6, #4, ...

........................................................................
.............................. CYCLE   12 ..............................
........................................................................
   1     -8.7098246 -0.870982E+01  0.258E+00    1.33       0.0  T
   2     -7.7257602  0.984064E+00  0.101E+01    0.63       1.0  T
   3     -8.6801094 -0.954349E+00  0.286E+00    0.79       1.0  T
   4     -8.7481426 -0.680333E-01  0.529E-01    1.15       1.0  T
   5     -8.7448232  0.331942E-02  0.806E-01    1.22       1.0  T
   6     -8.7475557 -0.273246E-02  0.373E-01    1.15       1.0  T
   7     -8.7480264 -0.470763E-03  0.348E-01    1.12       1.0  T
   8     -8.7482260 -0.199551E-03  0.275E-01    1.12       1.0  T
   9     -8.7485206 -0.294622E-03  0.139E-01    1.13       1.0  T
  10     -8.7486002 -0.795787E-04  0.412E-02    1.13       1.1  T
  11     -8.7486114 -0.112312E-04  0.134E-02    1.13       3.3  T
  12     -8.7486128 -0.135224E-05  0.859E-03    1.13       5.2  T
  13     -8.7486127  0.915614E-07  0.821E-03    1.13       5.4  T
  14     -8.7486127 -0.456960E-07  0.637E-03    1.13       7.0  T
  15     -8.7486128 -0.715272E-07  0.143E-03    1.13      31.3  T
  16     -8.7486128 -0.792232E-08  0.525E-04    1.13      85.2  T
  17     -8.7486128 -0.891735E-09  0.120E-04    1.13     372.2  T
     SCC iter.                  ...        0 min,  0.002 sec
     gradient                   ...        0 min,  0.001 sec
 * total energy  :    -8.6154817 Eh     change        0.1287579E-02 Eh
   gradient norm :     0.0678116 Eh/α   predicted    -0.2827967E-02 (-319.63%)
   displ. norm   :     0.3089803 α      lambda       -0.1146386E-01
   maximum displ.:     0.2067831 α      in ANC's #2, #1, #5, ...

........................................................................
.............................. CYCLE   13 ..............................
........................................................................
   1     -8.7865997 -0.878660E+01  0.112E+00    1.10       0.0  T
   2     -8.7309281  0.556715E-01  0.277E+00    1.22       1.0  T
   3     -8.7539139 -0.229858E-01  0.221E+00    0.81       1.0  T
   4     -8.7799961 -0.260822E-01  0.121E+00    1.05       1.0  T
   5     -8.7806906 -0.694471E-03  0.106E+00    1.02       1.0  T
   6     -8.7832749 -0.258433E-02  0.834E-01    1.05       1.0  T
   7     -8.7875647 -0.428978E-02  0.240E-01    1.10       1.0  T
   8     -8.7876621 -0.974288E-04  0.183E-01    1.10       1.0  T
   9     -8.7878135 -0.151365E-03  0.763E-02    1.10       1.0  T
  10     -8.7878410 -0.275224E-04  0.190E-02    1.11       2.4  T
  11     -8.7878382  0.277743E-05  0.288E-02    1.11       1.6  T
  12     -8.7878427 -0.447824E-05  0.209E-03    1.11      21.4  T
  13     -8.7878427 -0.100786E-07  0.640E-04    1.11      69.9  T
  14     -8.7878427 -0.232588E-08  0.174E-04    1.11     256.7  T
     SCC iter.                  ...        0 min,  0.001 sec
     gradient                   ...        0 min,  0.001 sec
 * total energy  :    -8.6179775 Eh     change       -0.2495748E-02 Eh
   gradient norm :     0.0633728 Eh/α   predicted    -0.6279148E-02 ( 151.59%)
   displ. norm   :     0.1837418 α      lambda       -0.7073001E-02
   maximum displ.:     0.0807047 α      in ANC's #2, #1, #6, ...

........................................................................
.............................. CYCLE   14 ..............................
........................................................................
   1     -8.7775904 -0.877759E+01  0.131E+00    1.14       0.0  T
   2     -8.5373760  0.240214E+00  0.504E+00    1.98       1.0  T
   3     -8.7847943 -0.247418E+00  0.620E-01    1.23       1.0  T
   4     -8.7860982 -0.130386E-02  0.338E-01    1.24       1.0  T
   5     -8.7861703 -0.721083E-04  0.254E-01    1.28       1.0  T
   6     -8.7862811 -0.110829E-03  0.175E-01    1.26       1.0  T
   7     -8.7863150 -0.338931E-04  0.148E-01    1.26       1.0  T
   8     -8.7863267 -0.117349E-04  0.136E-01    1.26       1.0  T
   9     -8.7862481  0.786181E-04  0.193E-01    1.28       1.0  T
  10     -8.7864352 -0.187120E-03  0.159E-02    1.27       2.8  T
  11     -8.7864363 -0.109812E-05  0.388E-03    1.27      11.5  T
  12     -8.7864364 -0.890823E-07  0.135E-03    1.27      33.0  T
  13     -8.7864364 -0.906473E-08  0.271E-04    1.27     165.0  T
  14     -8.7864364  0.158575E-09  0.312E-04    1.27     143.5  T
     SCC iter.                  ...        0 min,  0.001 sec
     gradient                   ...        0 min,  0.001 sec
 * total energy  :    -8.6198958 Eh     change       -0.1918352E-02 Eh
   gradient norm :     0.0295743 Eh/α   predicted    -0.3655896E-02 (  90.57%)
   displ. norm   :     0.1007494 α      lambda       -0.1534758E-02
   maximum displ.:     0.0933555 α      in ANC's #1, #7, #8, ...

........................................................................
.............................. CYCLE   15 ..............................
........................................................................
   1     -8.7768481 -0.877685E+01  0.831E-01    1.30       0.0  T
   2     -8.7134776  0.633704E-01  0.259E+00    0.69       1.0  T
   3     -8.7808676 -0.673900E-01  0.201E-01    1.26       1.0  T
   4     -8.7804388  0.428776E-03  0.320E-01    1.22       1.0  T
   5     -8.7806430 -0.204184E-03  0.242E-01    1.24       1.0  T
   6     -8.7794174  0.122565E-02  0.527E-01    1.27       1.0  T
   7     -8.7807536 -0.133627E-02  0.213E-01    1.26       1.0  T
   8     -8.7809675 -0.213859E-03  0.911E-02    1.25       1.0  T
   9     -8.7810158 -0.482966E-04  0.371E-03    1.24      12.1  T
  10     -8.7810085  0.732068E-05  0.342E-02    1.24       1.3  T
  11     -8.7810156 -0.714104E-05  0.580E-03    1.24       7.7  T
  12     -8.7810158 -0.146921E-06  0.349E-03    1.24      12.8  T
  13     -8.7810158 -0.698037E-07  0.807E-04    1.24      55.5  T
  14     -8.7810158 -0.391828E-08  0.569E-05    1.24     786.4  T
     SCC iter.                  ...        0 min,  0.001 sec
     gradient                   ...        0 min,  0.001 sec
 * total energy  :    -8.6207503 Eh     change       -0.8545371E-03 Eh
   gradient norm :     0.0104791 Eh/α   predicted    -0.7751669E-03 (  -9.29%)
   displ. norm   :     0.0685346 α      lambda       -0.3808414E-03
   maximum displ.:     0.0561114 α      in ANC's #2, #5, #7, ...

........................................................................
.............................. CYCLE   16 ..............................
........................................................................
   1     -8.7769320 -0.877693E+01  0.527E-01    1.24       0.0  T
   2     -8.7358846  0.410474E-01  0.216E+00    0.89       1.0  T
   3     -8.7773905 -0.415059E-01  0.393E-01    1.24       1.0  T
   4     -8.7782890 -0.898492E-03  0.135E-01    1.21       1.0  T
   5     -8.7777561  0.532845E-03  0.315E-01    1.20       1.0  T
   6     -8.7775378  0.218305E-03  0.370E-01    1.19       1.0  T
   7     -8.7780441 -0.506277E-03  0.242E-01    1.23       1.0  T
   8     -8.7782870 -0.242901E-03  0.128E-01    1.22       1.0  T
   9     -8.7783795 -0.924821E-04  0.169E-02    1.21       2.6  T
  10     -8.7783774  0.207637E-05  0.261E-02    1.21       1.7  T
  11     -8.7783813 -0.392363E-05  0.479E-03    1.21       9.3  T
  12     -8.7783814 -0.126965E-06  0.153E-03    1.21      29.3  T
  13     -8.7783815 -0.129848E-07  0.337E-04    1.21     132.7  T
  14     -8.7783815 -0.643011E-09  0.455E-05    1.21     982.6  T
     SCC iter.                  ...        0 min,  0.001 sec
     gradient                   ...        0 min,  0.001 sec
 * total energy  :    -8.6208812 Eh     change       -0.1308192E-03 Eh
   gradient norm :     0.0120387 Eh/α   predicted    -0.1913163E-03 (  46.24%)
   displ. norm   :     0.0600230 α      lambda       -0.3638599E-03
   maximum displ.:     0.0446665 α      in ANC's #3, #1, #9, ...

........................................................................
.............................. CYCLE   17 ..............................
........................................................................
   1     -8.7813634 -0.878136E+01  0.201E-01    1.21       0.0  T
   2     -8.7724881  0.887522E-02  0.111E+00    1.15       1.0  T
   3     -8.7813140 -0.882585E-02  0.169E-01    1.21       1.0  T
   4     -8.7811679  0.146104E-03  0.224E-01    1.20       1.0  T
   5     -8.7814245 -0.256661E-03  0.476E-02    1.21       1.0  T
   6     -8.7814357 -0.111285E-04  0.327E-02    1.21       1.4  T
   7     -8.7814335  0.213461E-05  0.367E-02    1.21       1.2  T
   8     -8.7814409 -0.737783E-05  0.538E-03    1.21       8.3  T
   9     -8.7814409  0.328612E-07  0.342E-03    1.21      13.1  T
  10     -8.7814410 -0.707098E-07  0.234E-04    1.21     191.2  T
  11     -8.7814410 -0.112578E-09  0.101E-04    1.21     440.6  T
     SCC iter.                  ...        0 min,  0.001 sec
     gradient                   ...        0 min,  0.001 sec
 * total energy  :    -8.6210814 Eh     change       -0.2001860E-03 Eh
   gradient norm :     0.0069059 Eh/α   predicted    -0.1825838E-03 (  -8.79%)
   displ. norm   :     0.0407157 α      lambda       -0.1284404E-03
   maximum displ.:     0.0299769 α      in ANC's #3, #4, #9, ...

........................................................................
.............................. CYCLE   18 ..............................
........................................................................
   1     -8.7810757 -0.878108E+01  0.187E-01    1.22       0.0  T
   2     -8.7808918  0.183919E-03  0.185E-01    1.24       1.0  T
   3     -8.7744645  0.642724E-02  0.949E-01    1.17       1.0  T
   4     -8.7810177 -0.655321E-02  0.138E-01    1.23       1.0  T
   5     -8.7810723 -0.546122E-04  0.529E-02    1.23       1.0  T
   6     -8.7810905 -0.182007E-04  0.155E-02    1.23       2.9  T
   7     -8.7810921 -0.152897E-05  0.547E-03    1.23       8.2  T
   8     -8.7810922 -0.146962E-06  0.173E-03    1.23      25.9  T
   9     -8.7810922 -0.212024E-07  0.502E-04    1.23      89.1  T
  10     -8.7810922 -0.710763E-09  0.542E-05    1.23     825.2  T
     SCC iter.                  ...        0 min,  0.001 sec
     gradient                   ...        0 min,  0.001 sec
 * total energy  :    -8.6211683 Eh     change       -0.8699469E-04 Eh
   gradient norm :     0.0024737 Eh/α   predicted    -0.6432609E-04 ( -26.06%)
   displ. norm   :     0.0438921 α      lambda       -0.5361707E-04
   maximum displ.:     0.0254394 α      in ANC's #3, #2, #4, ...

........................................................................
.............................. CYCLE   19 ..............................
........................................................................
   1     -8.7798395 -0.877984E+01  0.309E-01    1.24       0.0  T
   2     -8.7577403  0.220992E-01  0.166E+00    1.10       1.0  T
   3     -8.7793921 -0.216518E-01  0.332E-01    1.25       1.0  T
   4     -8.7800411 -0.648982E-03  0.169E-01    1.22       1.0  T
   5     -8.7801092 -0.681269E-04  0.568E-02    1.23       1.0  T
   6     -8.7800524  0.567944E-04  0.106E-01    1.22       1.0  T
   7     -8.7800810 -0.286189E-04  0.811E-02    1.23       1.0  T
   8     -8.7801129 -0.318297E-04  0.495E-02    1.23       1.0  T
   9     -8.7801216 -0.872928E-05  0.299E-02    1.23       1.5  T
  10     -8.7801259 -0.430093E-05  0.127E-02    1.23       3.5  T
  11     -8.7801268 -0.922747E-06  0.134E-03    1.23      33.5  T
  12     -8.7801268 -0.107832E-07  0.343E-04    1.23     130.2  T
  13     -8.7801268 -0.542645E-09  0.182E-04    1.23     246.1  T
     SCC iter.                  ...        0 min,  0.001 sec
     gradient                   ...        0 min,  0.001 sec
 * total energy  :    -8.6212009 Eh     change       -0.3253480E-04 Eh
   gradient norm :     0.0012171 Eh/α   predicted    -0.2685895E-04 ( -17.45%)
   displ. norm   :     0.0266747 α      lambda       -0.7595717E-05
   maximum displ.:     0.0143123 α      in ANC's #3, #4, #2, ...

........................................................................
.............................. CYCLE   20 ..............................
........................................................................
   1     -8.7796558 -0.877966E+01  0.239E-01    1.23       0.0  T
   2     -8.7596700  0.199857E-01  0.159E+00    1.11       1.0  T
   3     -8.7794442 -0.197742E-01  0.247E-01    1.24       1.0  T
   4     -8.7798180 -0.373788E-03  0.125E-01    1.22       1.0  T
   5     -8.7798541 -0.361018E-04  0.375E-02    1.22       1.2  T
   6     -8.7798259  0.282477E-04  0.730E-02    1.22       1.0  T
   7     -8.7798391 -0.132416E-04  0.569E-02    1.22       1.0  T
   8     -8.7798558 -0.166999E-04  0.329E-02    1.23       1.4  T
   9     -8.7798597 -0.390290E-05  0.197E-02    1.23       2.3  T
  10     -8.7798617 -0.193193E-05  0.765E-03    1.23       5.8  T
  11     -8.7798620 -0.337939E-06  0.534E-04    1.23      83.7  T
  12     -8.7798620 -0.174506E-08  0.154E-04    1.23     290.7  T
     SCC iter.                  ...        0 min,  0.001 sec
     gradient                   ...        0 min,  0.001 sec
 * total energy  :    -8.6212075 Eh     change       -0.6568170E-05 Eh
   gradient norm :     0.0011836 Eh/α   predicted    -0.3796941E-05 ( -42.19%)
   displ. norm   :     0.0135363 α      lambda       -0.3640751E-05
   maximum displ.:     0.0083636 α      in ANC's #4, #3, #1, ...
 * RMSD in coord.:     0.9179182 α      energy gain  -0.1400461E+00 Eh

generating ANC from model Hessian ...
Using Lindh-Hessian (1995)
 Shifting diagonal of input Hessian by    9.8961936854927938E-003
 Lowest  eigenvalues of input Hessian
   -0.000000   -0.000000   -0.000000    0.000000    0.000000    0.000000
    0.010000    0.010128    0.123896    0.407607    0.481705    0.672347
    1.192136    1.712534    2.286126
 Highest eigenvalues
    0.407607    0.481705    0.672347    1.192136    1.712534    2.286126


........................................................................
.............................. CYCLE   21 ..............................
........................................................................
   1     -8.7798945 -0.877989E+01  0.100E-01    1.23       0.0  T
   2     -8.7760615  0.383301E-02  0.727E-01    1.19       1.0  T
   3     -8.7798642 -0.380278E-02  0.877E-02    1.23       1.0  T
   4     -8.7798978 -0.335409E-04  0.723E-02    1.22       1.0  T
   5     -8.7799140 -0.162520E-04  0.152E-02    1.23       3.0  T
   6     -8.7799135  0.549490E-06  0.172E-02    1.23       2.6  T
   7     -8.7799143 -0.772709E-06  0.134E-02    1.23       3.3  T
   8     -8.7799155 -0.119522E-05  0.378E-04    1.23     118.5  T
   9     -8.7799155  0.137348E-08  0.581E-04    1.23      77.0  T
  10     -8.7799155 -0.232810E-08  0.116E-04    1.23     386.7  T
     SCC iter.                  ...        0 min,  0.001 sec
     gradient                   ...        0 min,  0.001 sec
 * total energy  :    -8.6212120 Eh     change       -0.4541990E-05 Eh
   gradient norm :     0.0009589 Eh/α   predicted     0.0000000E+00 (-100.00%)
   displ. norm   :     0.0659373 α      lambda       -0.2043480E-04
   maximum displ.:     0.0475684 α      in ANC's #1, #2, #6, ...

   *** GEOMETRY OPTIMIZATION CONVERGED AFTER 21 ITERATIONS ***

------------------------------------------------------------------------
 total energy gain   :        -0.1400506 Eh      -87.8831 kcal/mol
 total RMSD          :         0.9179182 a0        0.4857 Å
 total power (kW/mol):       -17.5096626 (step)-4973.5331 (real)
------------------------------------------------------------------------

 ANCopt (total)                0 d,  0 h,  0 min,  0.074 sec
 optimizer setup                ...        0 min,  0.000 sec (  0.161%)
 model hessian                  ...        0 min,  0.000 sec (  0.219%)
 ANC generation                 ...        0 min,  0.000 sec (  0.184%)
 coordinate transformation      ...        0 min,  0.000 sec (  0.072%)
 single point calculation       ...        0 min,  0.072 sec ( 96.895%)
 optimization log               ...        0 min,  0.001 sec (  0.779%)
 hessian update                 ...        0 min,  0.000 sec (  0.062%)
 rational function              ...        0 min,  0.001 sec (  0.685%)

================
 final structure:
================
5
 xtb: 6.2.2 (9d81278992624c895f80dd42a50cac0aa55982e2)
C         0.73096153791491    0.13476545078139   -0.02846263612492
C        -0.66369951715172   -0.11542725578453    0.03081980956728
C        -0.10323443095565    1.21097389478621   -0.23313941979306
C        -1.67262474020252   -0.94917955514643    0.19276254579775
H         1.70859715039497   -0.28113253463665    0.03801970055294

 Bond Distances (Angstroems)
 ---------------------------
C1-C2=1.4182         C1-C3=1.3770         C1-H5=1.0645         C2-C1=1.4182         C2-C3=1.4639         C2-C4=1.3188         
C3-C1=1.3770         C3-C2=1.4639         C4-C2=1.3188         H5-C1=1.0645         
 C  H  Rav=1.0645 sigma=0.0000  Rmin=1.0645  Rmax=1.0645     1
 C  C  Rav=1.3945 sigma=0.0534  Rmin=1.3188  Rmax=1.4639     4

 selected bond angles (degree)
 --------------------
C3-C1-C2= 63.15                H5-C1-C2=146.27                H5-C1-C3=150.58                C3-C2-C1= 57.05                
C4-C2-C1=150.34                C4-C2-C3=152.60                C2-C3-C1= 59.80                

 selected dihedral angles (degree)
 ---------------------------------
C3-C2-C1-H5=180.74            C4-C2-C1-C3=179.24            C4-C2-C1-H5=  0.00            C2-C3-C1-H5=179.16            
C1-C3-C2-C4=180.82            
           -------------------------------------------------
          |                Final Singlepoint                |
           -------------------------------------------------

          ...................................................
          :                      SETUP                      :
          :.................................................:
          :  # basis functions                  17          :
          :  # atomic orbitals                  17          :
          :  # shells                            9          :
          :  # electrons                        17          :
          :  max. iterations                   250          :
          :  Hamiltonian                  GFN2-xTB          :
          :  restarted?                      false          :
          :  GBSA solvation                  false          :
          :  PC potential                    false          :
          :  electronic temp.          300.0000000     K    :
          :  accuracy                    1.0000000          :
          :  -> integral cutoff          0.2500000E+02      :
          :  -> integral neglect         0.1000000E-07      :
          :  -> SCF convergence          0.1000000E-05 Eh   :
          :  -> wf. convergence          0.1000000E-03 e    :
          :  Broyden damping             0.4000000          :
          ...................................................

 iter      E             dE          RMSdq      gap      omega  full diag
   1     -8.7799155 -0.877992E+01  0.475E-05    1.23       0.0  T
   2     -8.7799155  0.368160E-08  0.753E-04    1.23      59.4  T
   3     -8.7799155  0.278680E-08  0.987E-04    1.23      45.3  T

   *** convergence criteria satisfied after 3 iterations ***

         #    Occupation            Energy/Eh            Energy/eV
      -------------------------------------------------------------
         1        2.0000           -0.6972309             -18.9726
       ...           ...                  ...                  ...
         4        2.0000           -0.5397735             -14.6880
         5        2.0000           -0.5180600             -14.0971
         6        2.0000           -0.4892477             -13.3131
         7        1.6950           -0.4224200             -11.4946
         8        1.3050           -0.4208552             -11.4521
         9        1.0000           -0.3962674             -10.7830
        10        1.0000           -0.3185196              -8.6674 (HOMO)
        11                         -0.2734914              -7.4421 (LUMO)
        12                         -0.1992574              -5.4221
        13                         -0.0003934              -0.0107
        14                          0.0654562               1.7812
        15                          0.1783468               4.8531
       ...                                ...                  ...
        17                          0.7602167              20.6865
      -------------------------------------------------------------
                  HL-Gap            0.0450282 Eh            1.2253 eV
             Fermi-level           -0.3588215 Eh           -9.7640 eV

 SCC (total)                   0 d,  0 h,  0 min,  0.003 sec
 SCC setup                      ...        0 min,  0.000 sec (  1.998%)
 Dispersion                     ...        0 min,  0.000 sec (  0.547%)
 integral evaluation            ...        0 min,  0.001 sec ( 37.750%)
 zeroth order Hamiltonian       ...        0 min,  0.000 sec (  0.478%)
 iterations                     ...        0 min,  0.001 sec ( 18.480%)
 molecular gradient             ...        0 min,  0.001 sec ( 38.662%)
 printout                       ...        0 min,  0.000 sec (  1.781%)

         :::::::::::::::::::::::::::::::::::::::::::::::::::::
         ::                     SUMMARY                     ::
         :::::::::::::::::::::::::::::::::::::::::::::::::::::
         :: total energy              -8.621211987208 Eh    ::
         :: gradient norm              0.000964423369 Eh/a0 ::
         :: HOMO-LUMO gap              1.225279935019 eV    ::
         ::.................................................::
         :: SCC energy                -8.779915453927 Eh    ::
         :: -> isotropic ES           -0.004606807042 Eh    ::
         :: -> anisotropic ES         -0.000826726834 Eh    ::
         :: -> anisotropic XC          0.008147798442 Eh    ::
         :: -> dispersion             -0.002253842179 Eh    ::
         :: repulsion energy           0.158703396061 Eh    ::
         :: add. restraining           0.000000000000 Eh    ::
         :::::::::::::::::::::::::::::::::::::::::::::::::::::

           ------------------------------------------------- 
          |                Numerical Hessian                |
           ------------------------------------------------- 
step length          :   0.00500
SCC accuracy         :   0.30000
Hessian scale factor :   1.00000
frozen atoms in %    :   0.00000    0
RMS gradient         :   0.00096
estimated CPU  time      0.00 min
estimated wall time      0.00 min

writing file <hessian>.

 projected vibrational frequencies (cm-1)
eigval :       -0.00    -0.00    -0.00     0.00     0.00     0.00
eigval :      146.68   346.06   610.23   657.26   790.45   880.10
eigval :     1408.01  1615.70  3196.98
           -------------------------------------------------
          |                Property Printout                |
           -------------------------------------------------

    * Orbital Energies and Occupations

         #    Occupation            Energy/Eh            Energy/eV
      -------------------------------------------------------------
         1        2.0000           -0.6972305             -18.9726
         2        2.0000           -0.6365511             -17.3214
         3        2.0000           -0.5914969             -16.0955
         4        2.0000           -0.5397733             -14.6880
         5        2.0000           -0.5180597             -14.0971
         6        2.0000           -0.4892474             -13.3131
         7        1.6948           -0.4224193             -11.4946
         8        1.3052           -0.4208560             -11.4521
         9        1.0000           -0.3962678             -10.7830
        10        1.0000           -0.3185202              -8.6674 (HOMO)
        11                         -0.2734905              -7.4421 (LUMO)
        12                         -0.1992578              -5.4221
        13                         -0.0003930              -0.0107
        14                          0.0654563               1.7812
        15                          0.1783470               4.8531
        16                          0.5526068              15.0372
        17                          0.7602164              20.6865
      -------------------------------------------------------------
                  HL-Gap            0.0450297 Eh            1.2253 eV
             Fermi-level           -0.3588215 Eh           -9.7640 eV

     #   Z        covCN         q      C6AA      α(0)
     1   6 C      2.888     0.034    27.242     8.557
     2   6 C      2.939     0.109    25.586     8.296
     3   6 C      1.959    -0.097    33.751     9.382
     4   6 C      0.981    -0.127    40.030    10.627
     5   1 H      0.927     0.081     1.965     2.192

 Mol. C6AA /au·bohr⁶  :        567.002132
 Mol. C8AA /au·bohr⁸  :      15723.904018
 Mol. α(0) /au        :         39.053495


Wiberg/Mayer (AO) data.
largest (>0.10) Wiberg bond orders for each atom
          total WBO             WBO to atom ...
Molecule has the following symmetry elements: (sigma) 
It seems to be the Cs point group
     1  C   3.515        C    3 1.421    C    2 1.124    H    5 0.955
     2  C   3.635        C    4 1.517    C    1 1.124    C    3 0.985
     3  C   2.445        C    1 1.421    C    2 0.985
     4  C   1.557        C    2 1.517
     5  H   0.982        C    1 0.955

MOs/occ written to file <molden.input>


molecular dipole:
                 x           y           z       tot (Debye)
 q only:        0.594      -0.052       0.007
   full:        0.886      -0.348       0.063       2.425
molecular quadrupole (traceless):
                xx          xy          yy          xz          yz          zz
 q only:        0.270      -1.165      -0.775       0.220       0.264       0.505
  q+dip:        2.045      -1.450      -2.104       0.252       0.447       0.059
   full:        0.546      -1.597      -3.088       0.309       1.143       2.542

           -------------------------------------------------
          |                Geometry Summary                 |
           -------------------------------------------------

      molecular mass/u    :       49.0508844
   center of mass at/Å    :       -0.3832618       0.0630639      -0.0085271
  moments of inertia/u·Å² :        0.1393938E+02   0.5705159E+02   0.7099050E+02
rotational constants/cm⁻¹ :        0.1209353E+01   0.2954805E+00   0.2374632E+00

 * 3 selected distances

     #   Z        #   Z                                     value/Å
     1   6 C      2   6 C                                 1.4181644 (max)
     2   6 C      4   6 C                                 1.3188246
     1   6 C      5   1 H                                 1.0645010 (min)

 * 2 distinct bonds (by element types)

   Z      Z             #   av. dist./Å        max./Å        min./Å
   1 H    6 C           1     1.0645010     1.0645010     1.0645010
   6 C    6 C           2     1.3684945     1.4181644     1.3188246

           -------------------------------------------------
          |               Frequency Printout                |
           -------------------------------------------------
 projected vibrational frequencies (cm-1)
eigval :       -0.00    -0.00    -0.00     0.00     0.00     0.00
eigval :      146.68   346.06   610.23   657.26   790.45   880.10
eigval :     1408.01  1615.70  3196.98
 reduced masses (amu)
   1: 11.94   2: 11.50   3: 11.97   4: 11.87   5: 11.30   6:  9.79   7: 11.15   8: 11.44
   9: 10.47  10:  4.11  11:  6.00  12: 10.18  13: 11.60  14: 11.82  15:  2.00
 IR intensities (amu)
   1:  0.08   2:  0.12   3:  0.11   4:  0.04   5:  0.10   6:  0.23   7:  1.22   8:  0.29
   9:  3.26  10:  0.15  11:  0.31  12:  0.92  13:  0.74  14:  2.30  15:  0.15
 Raman intensities (amu)
   1:  0.00   2:  0.00   3:  0.00   4:  0.00   5:  0.00   6:  0.00   7:  0.00   8:  0.00
   9:  0.00  10:  0.00  11:  0.00  12:  0.00  13:  0.00  14:  0.00  15:  0.00
 output can be read by thermo (or use thermo option).
 writing <g98.out> molden fake output.
 recommended (thermochemical) frequency scaling factor: 1.0
           -------------------------------------------------
          |             Thermodynamic Functions             |
           -------------------------------------------------

cs  symmetry found (for desy threshold:  0.10E+00) used in thermo

          ...................................................
          :                      SETUP                      :
          :.................................................:
          :  # frequencies                           9      :
          :  # imaginary freq.                       0      :
          :  linear?                             false      :
          :  only rotor calc.                    false      :
          :  symmetry                               cs      :
          :  rotational number                       1      :
          :  scaling factor                  1.0000000      :
          :  rotor cutoff                   50.0000000 cm⁻¹ :
          :  imag. cutoff                  -20.0000000 cm⁻¹ :
          :.................................................:

    mode    ω/cm⁻¹     T·S(HO)/kcal·mol⁻¹    T·S(FR)/kcal·mol⁻¹   T·S(vib)
   ------------------------------------------------------------------------
       1    146.68    -0.00000 ( 98.67%)     0.00901 (  1.33%)     0.00012
   ------------------------------------------------------------------------

   temp. (K)  partition function   enthalpy   heat capacity  entropy
                                   cal/mol     cal/K/mol   cal/K/mol   J/K/mol
 298.15  VIB   2.78                  909.849      6.760      5.080
         ROT  0.182E+05              888.752      2.981     22.469
         INT  0.505E+05             1798.601      9.741     27.549
         TR   0.332E+27             1481.254      4.968     37.578
         TOT                        3279.8550    14.7093    65.1270   272.4914

   temp. (K)  partition function   enthalpy   heat capacity  entropy
                                   cal/mol     cal/K/mol   cal/K/mol   J/K/mol
 120.00  VIB   1.23                  105.261      2.240      1.293
         ROT  0.463E+04              357.707      2.981     19.756
         INT  0.570E+04              462.968      5.221     21.049
         TR   0.849E+26              596.178      4.968     33.058
         TOT                        1059.1462    10.1887    54.1076   226.3862

   temp. (K)  partition function   enthalpy   heat capacity  entropy
                                   cal/mol     cal/K/mol   cal/K/mol   J/K/mol
 100.00  VIB   1.15                   65.141      1.774      0.930
         ROT  0.353E+04              298.089      2.981     19.212
         INT  0.404E+04              363.230      4.755     20.142
         TR   0.646E+26              496.815      4.968     32.153
         TOT                         860.0454     9.7231    52.2954   218.8040

   temp. (K)  partition function   enthalpy   heat capacity  entropy
                                   cal/mol     cal/K/mol   cal/K/mol   J/K/mol
  80.00  VIB   1.08                   34.309      1.307      0.589
         ROT  0.252E+04              238.471      2.981     18.547
         INT  0.272E+04              272.780      4.288     19.136
         TR   0.462E+26              397.452      4.968     31.045
         TOT                         670.2325     9.2557    50.1808   209.9566

   temp. (K)  partition function   enthalpy   heat capacity  entropy
                                   cal/mol     cal/K/mol   cal/K/mol   J/K/mol
  60.00  VIB   1.03                   13.076      0.809      0.286
         ROT  0.164E+04              178.853      2.981     17.690
         INT  0.169E+04              191.929      3.790     17.976
         TR   0.300E+26              298.089      4.968     29.616
         TOT                         490.0182     8.7584    47.5925   199.1269

   temp. (K)  partition function   enthalpy   heat capacity  entropy
                                   cal/mol     cal/K/mol   cal/K/mol   J/K/mol
  40.00  VIB   1.01                    2.159      0.287      0.069
         ROT   892.                  119.236      2.981     16.481
         INT   897.                  121.395      3.268     16.551
         TR   0.163E+26              198.726      4.968     27.603
         TOT                         320.1210     8.2360    44.1535   184.7382

   temp. (K)  partition function   enthalpy   heat capacity  entropy
                                   cal/mol     cal/K/mol   cal/K/mol   J/K/mol
  20.00  VIB   1.00                    0.011      0.006     -0.003
         ROT   315.                   59.618      2.981     14.415
         INT   315.                   59.629      2.987     14.412
         TR   0.577E+25               99.363      4.968     24.161
         TOT                         158.9918     7.9548    38.5730   161.3896

   temp. (K)  partition function   enthalpy   heat capacity  entropy
                                   cal/mol     cal/K/mol   cal/K/mol   J/K/mol
  10.00  VIB   1.00                    0.000      0.000     -0.013
         ROT   111.                   29.809      2.981     12.349
         INT   111.                   29.809      2.981     12.336
         TR   0.204E+25               49.681      4.968     20.719
         TOT                          79.4904     7.9490    33.0547   138.3010

       T/K    H(0)-H(T)+PV         H(T)/Eh          T*S/Eh         G(T)/Eh
   ------------------------------------------------------------------------
    298.15    0.522678E-02    0.272145E-01    0.309439E-01   -0.372947E-02
    120.00    0.168786E-02    0.236755E-01    0.103471E-01    0.133284E-01
    100.00    0.137057E-02    0.233583E-01    0.833380E-02    0.150245E-01
     80.00    0.106808E-02    0.230558E-01    0.639746E-02    0.166583E-01
     60.00    0.780894E-03    0.227686E-01    0.455061E-02    0.182180E-01
     40.00    0.510145E-03    0.224978E-01    0.281452E-02    0.196833E-01
     20.00    0.253370E-03    0.222411E-01    0.122940E-02    0.210117E-01
     10.00    0.126676E-03    0.221144E-01    0.526761E-03    0.215876E-01 (used)
   ------------------------------------------------------------------------

         :::::::::::::::::::::::::::::::::::::::::::::::::::::
         ::                  THERMODYNAMIC                  ::
         :::::::::::::::::::::::::::::::::::::::::::::::::::::
         :: total free energy          -8.599624391535 Eh   ::
         ::.................................................::
         :: total energy               -8.621211992716 Eh   ::
         :: zero point energy           0.021987685683 Eh   ::
         :: G(RRHO) w/o ZPVE           -0.000400084502 Eh   ::
         :: G(RRHO) contrib.            0.021587601181 Eh   ::
         :::::::::::::::::::::::::::::::::::::::::::::::::::::

optimized geometry written to: xtbopt.xyz


           -------------------------------------------------
          | TOTAL ENERGY               -8.621211992716 Eh   |
          | TOTAL ENTHALPY             -8.599097631017 Eh   |
          | TOTAL FREE ENERGY          -8.599624391535 Eh   |
          | GRADIENT NORM               0.000959470592 Eh/α |
          | HOMO-LUMO GAP               1.225319825111 eV   |
           -------------------------------------------------

------------------------------------------------------------------------
 * finished run on 2020/05/12 at 11:45:08.006     
------------------------------------------------------------------------
 total:
 * wall-time:     0 d,  0 h,  0 min,  0.192 sec
 *  cpu-time:     0 d,  0 h,  0 min,  0.192 sec
 * ratio c/w:     0.998 speedup
 SCF:
 * wall-time:     0 d,  0 h,  0 min,  0.006 sec
 *  cpu-time:     0 d,  0 h,  0 min,  0.006 sec
 * ratio c/w:     0.995 speedup
 ANC optimizer:
 * wall-time:     0 d,  0 h,  0 min,  0.078 sec
 *  cpu-time:     0 d,  0 h,  0 min,  0.077 sec
 * ratio c/w:     0.999 speedup
 numerical hessian:
 * wall-time:     0 d,  0 h,  0 min,  0.092 sec
 *  cpu-time:     0 d,  0 h,  0 min,  0.092 sec
 * ratio c/w:     0.998 speedup

