 Entering Gaussian System
 *********************************************
 Gaussian 98:
 frequency output generated by the xtb code
 *********************************************
                         Standard orientation:
 --------------------------------------------------------------------
  Center     Atomic     Atomic              Coordinates (Angstroms)
  Number     Number      Type              X           Y           Z
 --------------------------------------------------------------------
    1          6             0        0.730962    0.134762   -0.028465
    2          6             0       -0.663700   -0.115424    0.030822
    3          6             0       -0.103229    1.210974   -0.233141
    4          6             0       -1.672629   -0.949170    0.192770
    5          1             0        1.708596   -0.281141    0.038014
 --------------------------------------------------------------------
     1 basis functions        1 primitive gaussians
     1 alpha electrons        1 beta electrons

 Harmonic frequencies (cm**-1), IR intensities (KM/Mole),
 Raman scattering activities (A**4/amu), Raman depolarization ratios,
 reduced masses (AMU), force constants (mDyne/A) and normal coordinates:
                      1                      2                      3
                        a                      a                      a 
 Frequencies --   146.6768               346.0576               610.2256
 Red. masses --    11.1484                11.4431                10.4678
 Frc consts  --     0.0000                 0.0000                 0.0000
 IR Inten    --     1.2225                 0.2898                 3.2618
 Raman Activ --     0.0000                 0.0000                 0.0000
 Depolar     --     0.0000                 0.0000                 0.0000
 Atom AN      X      Y      Z        X      Y      Z        X      Y      Z
   1   6    -0.10  -0.14   0.02    -0.00  -0.02  -0.09    -0.50  -0.27   0.07
   2   6    -0.43   0.58  -0.11     0.00   0.16   0.82     0.25  -0.27   0.05
   3   6     0.27   0.05  -0.01    -0.00  -0.05  -0.25    -0.01   0.52  -0.10
   4   6     0.30  -0.42   0.08     0.00  -0.08  -0.41     0.32   0.10  -0.02
   5   1    -0.12  -0.25   0.05    -0.00  -0.04  -0.22    -0.23  -0.29   0.04
                      4                      5                      6
                        a                      a                      a 
 Frequencies --   657.2639               790.4537               880.1023
 Red. masses --     4.1133                 5.9992                10.1805
 Frc consts  --     0.0000                 0.0000                 0.0000
 IR Inten    --     0.1548                 0.3140                 0.9247
 Raman Activ --     0.0000                 0.0000                 0.0000
 Depolar     --     0.0000                 0.0000                 0.0000
 Atom AN      X      Y      Z        X      Y      Z        X      Y      Z
   1   6     0.01   0.09   0.48     0.28   0.14  -0.03    -0.08  -0.49   0.09
   2   6    -0.01  -0.03  -0.18     0.13   0.13  -0.03     0.01   0.29  -0.06
   3   6     0.00  -0.03  -0.09    -0.45  -0.26   0.05    -0.40  -0.22   0.05
   4   6    -0.00   0.00   0.04     0.11   0.19  -0.04     0.41   0.32  -0.06
   5   1    -0.01  -0.15  -0.83    -0.25  -0.68   0.13     0.19   0.35  -0.07
                      7                      8                      9
                        a                      a                      a 
 Frequencies --  1408.0125              1615.7012              3196.9847
 Red. masses --    11.6021                11.8204                 2.0036
 Frc consts  --     0.0000                 0.0000                 0.0000
 IR Inten    --     0.7447                 2.2966                 0.1526
 Raman Activ --     0.0000                 0.0000                 0.0000
 Depolar     --     0.0000                 0.0000                 0.0000
 Atom AN      X      Y      Z        X      Y      Z        X      Y      Z
   1   6     0.46  -0.39   0.07     0.36  -0.02  -0.00    -0.27   0.12  -0.02
   2   6     0.13   0.15  -0.03    -0.68  -0.42   0.09     0.02   0.02  -0.00
   3   6    -0.30   0.52  -0.10    -0.02   0.22  -0.04     0.00  -0.02   0.00
   4   6    -0.34  -0.27   0.05     0.30   0.24  -0.05     0.00  -0.00   0.00
   5   1     0.19  -0.05   0.01     0.11  -0.06   0.01     0.87  -0.38   0.06
