5
 energy: -8.481161348832 gnorm: 0.198264879506 xtb: 6.2.2 (9d81278992624c895f80dd42a50cac0aa55982e2)
C         0.83659900000000   -0.62787100000000   -0.19159600000000
C        -0.40574300000000    0.05694500000000    0.34352200000000
C        -0.55384000000000    1.42564900000000   -0.29030000000000
C        -1.62280600000000   -0.78158900000000    0.01537500000000
H         1.74579000000000   -0.07313400000000    0.12299900000000
5
 energy: -8.531694195853 gnorm: 0.101849983215 xtb: 6.2.2 (9d81278992624c895f80dd42a50cac0aa55982e2)
C         0.82402972748404   -0.54441895638382   -0.14860714297544
C        -0.42089366278684   -0.00127852435121    0.24470377131368
C        -0.53142486866861    1.32936702616511   -0.25584891522588
C        -1.64001796993076   -0.71627463130817    0.04538733144875
H         1.76830677390218   -0.06739491412192    0.11436495543890
5
 energy: -8.547395135124 gnorm: 0.079871561588 xtb: 6.2.2 (9d81278992624c895f80dd42a50cac0aa55982e2)
C         0.78513026378827   -0.40569214656434   -0.14693159109398
C        -0.43334300634631   -0.06161565032237    0.21452937459082
C        -0.49499406026602    1.20252074157048   -0.25192448342584
C        -1.64011891214736   -0.65074148064586    0.06317718075053
H         1.78332571497143   -0.08447146403790    0.12114951917847
5
 energy: -8.554276808685 gnorm: 0.051155279240 xtb: 6.2.2 (9d81278992624c895f80dd42a50cac0aa55982e2)
C         0.84521608882426   -0.35601863909358   -0.14327553992433
C        -0.46976264199642   -0.15155367944317    0.15682569935390
C        -0.42863497394460    1.18047322445468   -0.24403918688646
C        -1.76375235678140   -0.63587899162107    0.10585025101648
H         1.81693388389816   -0.03702191429686    0.12463877644040
5
 energy: -8.559225729626 gnorm: 0.029728609019 xtb: 6.2.2 (9d81278992624c895f80dd42a50cac0aa55982e2)
C         0.81402120696459   -0.29419424573601   -0.16058496005330
C        -0.50149944615994   -0.17219977092761    0.15431591259762
C        -0.37119819632465    1.19107348666449   -0.25639106544341
C        -1.75166503014038   -0.67353999880698    0.12715485362047
H         1.81034146566037   -0.05113947119389    0.13550525927862
5
 energy: -8.590942323205 gnorm: 0.120279298340 xtb: 6.2.2 (9d81278992624c895f80dd42a50cac0aa55982e2)
C         0.72659852686181   -0.05224137951155   -0.24472942846974
C        -0.59623607407032   -0.26484956144903    0.16175430557775
C        -0.15734920147070    1.15673981061337   -0.30206745084148
C        -1.74388962235129   -0.76047995723100    0.20081981526473
H         1.77087637103050   -0.07916891242179    0.18422275846873
5
 energy: -8.526498088846 gnorm: 0.551434955043 xtb: 6.2.2 (9d81278992624c895f80dd42a50cac0aa55982e2)
C         0.66301584989617    0.14511773278045   -0.21547116959061
C        -0.69357339701816   -0.36405525797452    0.09353467634387
C         0.11164391243858    1.12821839707212   -0.29585718954693
C        -1.81246828563848   -0.87173147731920    0.26350181567425
H         1.73138192032189   -0.03754939455886    0.15429186711941
5
 energy: -8.598409855185 gnorm: 0.104919562467 xtb: 6.2.2 (9d81278992624c895f80dd42a50cac0aa55982e2)
C         0.72463124004944    0.00394473491991   -0.15271099118734
C        -0.64106970071351   -0.30465465996433    0.01214141678271
C         0.02199230806293    1.22352987645970   -0.25347529830926
C        -1.82567593382570   -0.89140385137193    0.26051180698624
H         1.72012208642684   -0.03141610004334    0.13353306572765
5
 energy: -8.597036390572 gnorm: 0.145779310638 xtb: 6.2.2 (9d81278992624c895f80dd42a50cac0aa55982e2)
C         0.69820665996149    0.05268054753826   -0.18178950749024
C        -0.64574660447028   -0.22711808016294    0.13170609068374
C        -0.16547695597353    1.21204821364148   -0.30097599899623
C        -1.71499831863600   -0.84372629240801    0.20279448275947
H         1.82801521911833   -0.19388438860879    0.14826493304327
5
 energy: -8.613207605681 gnorm: 0.073844596746 xtb: 6.2.2 (9d81278992624c895f80dd42a50cac0aa55982e2)
C         0.69327187095209    0.04319179441620   -0.07784220344829
C        -0.63162468370046   -0.21614804861554    0.07190900517851
C        -0.10578776566545    1.20568690599268   -0.25664688413502
C        -1.74815460850657   -0.87871772518218    0.18754815725549
H         1.79229518692040   -0.15401292661115    0.07503192514931
5
 energy: -8.616769289866 gnorm: 0.039259630084 xtb: 6.2.2 (9d81278992624c895f80dd42a50cac0aa55982e2)
C         0.71644142672414    0.05849901636331   -0.04100051628799
C        -0.64490143882182   -0.23449341063119    0.01733997698431
C        -0.06886000886073    1.19731069514066   -0.23394077484925
C        -1.75826715419441   -0.87964252936964    0.20419782170329
H         1.75558717515282   -0.14167377150314    0.05340349244964
5
 energy: -8.615481710367 gnorm: 0.068922322995 xtb: 6.2.2 (9d81278992624c895f80dd42a50cac0aa55982e2)
C         0.73831620790026    0.12361832343804   -0.07367256237191
C        -0.63194652736286   -0.20376161116346   -0.06273337213101
C        -0.11486907992422    1.21286848062913   -0.22683348083533
C        -1.75675317723909   -0.90357645680065    0.25490550965364
H         1.76525257662591   -0.22914873610307    0.10833390568461
5
 energy: -8.617977458195 gnorm: 0.064681559729 xtb: 6.2.2 (9d81278992624c895f80dd42a50cac0aa55982e2)
C         0.73100270689203    0.11401615597199   -0.00406308225409
C        -0.61849695383424   -0.16077984517195   -0.00422846930674
C        -0.14533041848266    1.16451964662191   -0.21785555574532
C        -1.71169676440280   -0.87412598363011    0.18876024665877
H         1.74452142982766   -0.24362997379184    0.03738686064737
5
 energy: -8.619895810584 gnorm: 0.029970309162 xtb: 6.2.2 (9d81278992624c895f80dd42a50cac0aa55982e2)
C         0.71718452135775    0.09925126601688   -0.01573003531834
C        -0.65281210932185   -0.18542678242866    0.02027845567930
C        -0.08790539118001    1.19384122725331   -0.22939452330721
C        -1.71436537037669   -0.90147743870709    0.19205005526956
H         1.73789834952079   -0.20618827213443    0.03279604767669
5
 energy: -8.620750347664 gnorm: 0.010940654855 xtb: 6.2.2 (9d81278992624c895f80dd42a50cac0aa55982e2)
C         0.72614807657430    0.11310324311328   -0.03741284107746
C        -0.64308516131604   -0.17076097721078    0.00734136818735
C        -0.10270796752194    1.19690777234500   -0.23094446529446
C        -1.71196950277650   -0.90848617993834    0.20568407738418
H         1.73161455504018   -0.23076385830916    0.05533186080039
5
 energy: -8.620881166903 gnorm: 0.012384377112 xtb: 6.2.2 (9d81278992624c895f80dd42a50cac0aa55982e2)
C         0.73065042393719    0.12390790996756   -0.02386126170703
C        -0.64903294981136   -0.15691746758092    0.00940016612555
C        -0.11338855203772    1.19672101860890   -0.22905840515960
C        -1.70786800640827   -0.91353098317732    0.19905443064253
H         1.73963908432015   -0.25018047781822    0.04446507009855
5
 energy: -8.621081352937 gnorm: 0.007018853311 xtb: 6.2.2 (9d81278992624c895f80dd42a50cac0aa55982e2)
C         0.73268501858738    0.12601678089282   -0.03663319833753
C        -0.64786098864234   -0.14462633298442    0.02000996036490
C        -0.11342490115440    1.19767663627794   -0.23317016881413
C        -1.69553781928731   -0.91970377316668    0.19903482970995
H         1.72413869049668   -0.25936331101966    0.05075857707680
5
 energy: -8.621168347627 gnorm: 0.002548498923 xtb: 6.2.2 (9d81278992624c895f80dd42a50cac0aa55982e2)
C         0.73124545490395    0.12775114309994   -0.03516808567272
C        -0.65363461552831   -0.13638952145940    0.02686087733759
C        -0.10709145290999    1.20296517846605   -0.23435081621276
C        -1.68893972797793   -0.93048746287041    0.19630107053293
H         1.71842034151228   -0.26383933723619    0.04635695401496
5
 energy: -8.621200882428 gnorm: 0.001238742236 xtb: 6.2.2 (9d81278992624c895f80dd42a50cac0aa55982e2)
C         0.73114241193987    0.13139298762753   -0.03047252341026
C        -0.65920460111533   -0.12541192995690    0.03200078791508
C        -0.10459785756604    1.20722008848190   -0.23436671695413
C        -1.68160929767605   -0.94075619300790    0.19265686370955
H         1.71426934441756   -0.27244495314463    0.04018158873976
5
 energy: -8.621207450598 gnorm: 0.001186548279 xtb: 6.2.2 (9d81278992624c895f80dd42a50cac0aa55982e2)
C         0.73124479542396    0.13386615790432   -0.02783538553720
C        -0.66226739611769   -0.11841980680301    0.03261967048337
C        -0.10372844723954    1.20950582420807   -0.23366595916002
C        -1.67606951761971   -0.94653660883408    0.19156515483350
H         1.71082056555298   -0.27841556647530    0.03731651938035
5
 energy: -8.621211992588 gnorm: 0.000958889950 xtb: 6.2.2 (9d81278992624c895f80dd42a50cac0aa55982e2)
C         0.73096153791491    0.13476545078139   -0.02846263612492
C        -0.66369951715172   -0.11542725578453    0.03081980956728
C        -0.10323443095565    1.21097389478621   -0.23313941979306
C        -1.67262474020252   -0.94917955514643    0.19276254579775
H         1.70859715039497   -0.28113253463665    0.03801970055294
