[Molden Format]
[Title]
[Atoms] AU
C      1     6  0.13813181318038E+01  0.25466244297331E+00 -0.53791848258747E-01
C      2     6 -0.12542111388760E+01 -0.21811921183097E+00  0.58245752612231E-01
C      3     6 -0.19507433884957E+00  0.22884090453947E+01 -0.44057292443613E+00
C      4     6 -0.31608104951187E+01 -0.17936720501911E+01  0.36428254870382E+00
H      5     1  0.32287778410404E+01 -0.53128022634594E+00  0.71836471378828E-01
[GTO]
           1 0
 s           4   1.0000000000000000     
   51.049363095579913      -0.16312063210127389     
   8.7911227406887544      -0.19911024581000730     
  0.70640422258929825       0.31882047753655751     
  0.26922813413411617       0.12706504184240380     
 p           4   1.0000000000000000     
   5.8263656140800002       0.73716451545209605     
   1.5106896018720002       0.68216371614850257     
  0.53256483288000001       0.35783053929253711     
  0.21202323690600003        5.3983030275847881E-002

           2 0
 s           4   1.0000000000000000     
   51.049363095579913      -0.16312063210127389     
   8.7911227406887544      -0.19911024581000730     
  0.70640422258929825       0.31882047753655751     
  0.26922813413411617       0.12706504184240380     
 p           4   1.0000000000000000     
   5.8263656140800002       0.73716451545209605     
   1.5106896018720002       0.68216371614850257     
  0.53256483288000001       0.35783053929253711     
  0.21202323690600003        5.3983030275847881E-002

           3 0
 s           4   1.0000000000000000     
   51.049363095579913      -0.16312063210127389     
   8.7911227406887544      -0.19911024581000730     
  0.70640422258929825       0.31882047753655751     
  0.26922813413411617       0.12706504184240380     
 p           4   1.0000000000000000     
   5.8263656140800002       0.73716451545209605     
   1.5106896018720002       0.68216371614850257     
  0.53256483288000001       0.35783053929253711     
  0.21202323690600003        5.3983030275847881E-002

           4 0
 s           4   1.0000000000000000     
   51.049363095579913      -0.16312063210127389     
   8.7911227406887544      -0.19911024581000730     
  0.70640422258929825       0.31882047753655751     
  0.26922813413411617       0.12706504184240380     
 p           4   1.0000000000000000     
   5.8263656140800002       0.73716451545209605     
   1.5106896018720002       0.68216371614850257     
  0.53256483288000001       0.35783053929253711     
  0.21202323690600003        5.3983030275847881E-002

           5 0
 s           3   1.0000000000000000     
   3.3702276975336001       0.27359110588908298     
  0.61389118221497996       0.26460540653860526     
  0.16614291148415999        8.2465947534082318E-002

[MO]
Sym=     1a
Ene=  -0.69723049279832161     
Spin= Alpha
Occup=     2.00000000
           1  0.38627471151207232     
           2 -0.17337142589943522     
           3   6.1490953302211340E-002
           4  -1.0887970873641843E-002
           5  0.37517510248210734     
           6  0.12516073323947655     
           7   8.4972594372550017E-002
           8  -1.7847316476753777E-002
           9  0.35326742381219256     
          10   2.6257254848723873E-002
          11 -0.15316892936676693     
          12   2.9761228408633614E-002
          13   7.8693109046149623E-002
          14   5.2173602601984143E-002
          15   4.0130553741038286E-002
          16  -7.9582626688973410E-003
          17   5.6642892496157962E-002
Sym=     2a
Ene=  -0.63655112096285371     
Spin= Alpha
Occup=     2.00000000
           1 -0.18258147161779989     
           2  -5.7235690322616960E-002
           3 -0.10373467757460311     
           4   2.0491150810439070E-002
           5  0.38292185358027436     
           6 -0.24440391258509292     
           7 -0.19975789569074875     
           8   3.9308049798589421E-002
           9 -0.15470561401583724     
          10  -9.6580596396991403E-002
          11   7.2329617178596524E-004
          12   2.9460006156658473E-004
          13  0.49792065974722705     
          14  0.14114203511630449     
          15  0.11298816221775979     
          16  -2.1903114190726401E-002
          17  -7.1545549544441811E-002
Sym=     3a
Ene=  -0.59149690395170107     
Spin= Alpha
Occup=     2.00000000
           1 -0.41536537804329288     
           2 -0.25491394599488026     
           3  0.22072995488836533     
           4  -3.9675505859358334E-002
           5   2.5694199249927750E-002
           6  -8.7491471418311803E-002
           7  0.23773186165695706     
           8  -4.4911176257592750E-002
           9  0.31190965077263672     
          10 -0.12280054418030555     
          11   1.0322453428971916E-002
          12  -4.8943789751585451E-004
          13  -9.3543778489225043E-002
          14  -4.7670422544893135E-002
          15   3.5723357891613010E-002
          16  -6.6267780152578669E-003
          17 -0.38879953162497671     
Sym=     4a
Ene=  -0.53977328460023555     
Spin= Alpha
Occup=     2.00000000
           1   6.3864504610329734E-002
           2  0.33141979015936818     
           3  0.36888793625939470     
           4  -7.9044170101474562E-002
           5 -0.16185964478510909     
           6 -0.35528468824433496     
           7   7.8706856322674143E-002
           8  -1.7795998250491222E-002
           9  0.39038107612788342     
          10  0.14984462612031563     
          11  0.15018396184440899     
          12  -3.3467665101922346E-002
          13  0.32313392290501536     
          14  -8.9755652302235936E-002
          15   5.6436160835688365E-002
          16  -1.1785849718020732E-002
          17  0.17319188845967043     
Sym=     5a
Ene=  -0.51805974608357619     
Spin= Alpha
Occup=     2.00000000
           1  -2.6755955422701474E-003
           2  -7.1716211466117232E-003
           3  -9.7021266900228317E-002
           4 -0.47850871021998082     
           5  -9.5031452147689547E-006
           6  -4.2107401372948070E-005
           7  -9.8396637183158969E-002
           8 -0.51220977137584700     
           9  -2.3495038855523348E-003
          10  -5.7936063895845718E-003
          11  -7.5872989148193584E-002
          12 -0.38057221794440294     
          13  -3.6934028475961653E-003
          14   6.9808914938717366E-006
          15  -4.1951246765687913E-002
          16 -0.21839734049576170     
          17  -9.1710738764182046E-004
Sym=     6a
Ene=  -0.48924744329622799     
Spin= Alpha
Occup=     2.00000000
           1   6.1519121868516331E-002
           2 -0.20821218873452971     
           3  0.25830930285085102     
           4  -4.8894919115040548E-002
           5 -0.16168535655201366     
           6  0.21003533677917463     
           7 -0.38440226030530772     
           8   7.0984159456568455E-002
           9  -2.8812177809679648E-002
          10  0.48169159785359988     
          11   3.8453017609926067E-002
          12  -1.2091975058050215E-002
          13  0.24073474171876511     
          14   6.5126616387832181E-002
          15 -0.24497583245401938     
          16   4.5690201737289424E-002
          17 -0.28656037538334961     
Sym=     7a
Ene=  -0.42241932786057934     
Spin= Alpha
Occup=     1.69482626
           1   8.6554764721655353E-002
           2   1.9054382071607583E-002
           3  0.26141935754255302     
           4  -5.0112677060954028E-002
           5  -8.0299818449696726E-003
           6 -0.15591364813173433     
           7  0.22236950820123086     
           8  -4.3567393629305257E-002
           9 -0.57478516949056435     
          10  0.20012848932645205     
          11 -0.57628666336424261     
          12  0.11151489978130799     
          13   6.4284604478836577E-002
          14 -0.26023376832818940     
          15  0.19037805107883954     
          16  -3.7364681259776246E-002
          17  -8.4596357049664575E-002
Sym=     8a
Ene=  -0.42085597474393294     
Spin= Alpha
Occup=     1.30517374
           1  -1.9064397007816456E-002
           2   9.5108613000695827E-002
           3  0.20900942904853945     
           4  -4.4899531984874445E-002
           5  0.15956317102146012     
           6 -0.16217758301349075     
           7 -0.16468275723888418     
           8   3.5185021897291141E-002
           9  -4.7932503462607197E-002
          10  0.24033772336588086     
          11   4.0189899481517577E-002
          12  -1.2410925728491191E-002
          13 -0.59770011181638683     
          14  0.50687668789065210     
          15  0.39837388964242887     
          16  -7.3481223911821436E-002
          17  -2.1839415562856838E-002
Sym=     9a
Ene=  -0.39626779153342795     
Spin= Alpha
Occup=     1.00000000
           1   1.0350138171933093E-003
           2   5.5699552019614247E-003
           3   8.6652104161961396E-002
           4  0.44389746120104673     
           5   6.3562248504016273E-005
           6  -2.9335169233327754E-003
           7  -7.1848106669063591E-002
           8 -0.36570086579181338     
           9   8.0951097610404193E-004
          10   2.9805444454589444E-003
          11   7.1457364130275564E-002
          12  0.35396677832198664     
          13  -3.6608411469530758E-003
          14   2.5740384917612427E-003
          15 -0.12493861600345117     
          16 -0.67172943006705199     
          17  -3.2033226581794317E-004
Sym=    10a
Ene=  -0.31852016666001692     
Spin= Alpha
Occup=     1.00000000
           1 -0.11988740521242808     
           2  0.21257967258579732     
           3  0.26004880511008299     
           4  -5.4245414074613932E-002
           5   2.1200386826002903E-002
           6  -9.1153864927620301E-002
           7  0.13891237659670080     
           8  -2.6172360975237775E-002
           9  -7.8954898379695937E-002
          10 -0.25276104010380712     
          11 -0.33464839891709219     
          12   7.0259043271869270E-002
          13   1.1153276850318177E-003
          14  0.54403337538238095     
          15 -0.65281363182135776     
          16  0.12288836614404226     
          17   9.3859447947876318E-002
Sym=    11a
Ene=  -0.27349049165964645     
Spin= Alpha
Occup=     0.00000000
           1   3.1312339078023014E-003
           2   8.6890708299572888E-003
           3  0.14027583232576779     
           4  0.71873242631004519     
           5  -2.0698363830333209E-004
           6  -9.2077098696570676E-004
           7  -1.6465095567222334E-003
           8  -1.2689238894938882E-002
           9   2.1011670999612344E-004
          10  -8.2248205883018941E-003
          11 -0.16185117229595439     
          12 -0.82411111633890100     
          13   5.1364102967729698E-006
          14   2.0953504686147964E-003
          15   1.0688478935216763E-003
          16   1.6407894835303125E-002
          17  -2.1315872963881136E-003
Sym=    12a
Ene=  -0.19925778427738836     
Spin= Alpha
Occup=     0.00000000
           1  -2.9181442356380643E-003
           2  -2.5782535397777654E-003
           3  -5.5274962343741532E-002
           4 -0.28970573094299934     
           5   4.6196347014131143E-003
           6   4.7278755024641331E-003
           7  0.15894426754275257     
           8  0.81975209132525362     
           9  -3.9722000675464285E-004
          10   4.6260112830622495E-004
          11  -5.1048654421302256E-002
          12 -0.26676834517855547     
          13   1.0888930074931397E-004
          14  -3.8957513165833102E-003
          15 -0.13905801850025409     
          16 -0.71876543592392250     
          17   2.0719806585388968E-003
Sym=    13a
Ene=   -3.9297895061354436E-004
Spin= Alpha
Occup=     0.00000000
           1 -0.18410907112345340     
           2 -0.25298885037981611     
           3 -0.56220834823492272     
           4  0.11360154950973921     
           5  0.19603424149773060     
           6 -0.42870475814423881     
           7  0.62525326434317108     
           8 -0.12098580904663642     
           9  -3.4973383305250717E-002
          10  0.79265165691108264     
          11  0.16556938858384421     
          12  -3.8383793697341198E-002
          13  -3.6305676850084637E-002
          14  0.13992479884536674     
          15 -0.31767134016226861     
          16   6.1555346610562417E-002
          17  0.14443098030962287     
Sym=    14a
Ene=    6.5456324799398391E-002
Spin= Alpha
Occup=     0.00000000
           1   1.0026740747779441     
           2   4.8350160323617740E-002
           3 -0.31276044869896802     
           4   5.4111078381475372E-002
           5 -0.53899720303534049     
           6 -0.39192855819000222     
           7  0.17661638635578528     
           8  -2.7231970844651388E-002
           9  -3.0752885325893119E-002
          10 -0.20008144112333251     
          11   6.4261762222181953E-002
          12  -1.0151417926991549E-002
          13  0.10979681152856773     
          14  0.30757022951745516     
          15   4.1703543965265301E-002
          16  -1.1045758721955156E-002
          17 -0.81661106044744525     
Sym=    15a
Ene=   0.17834700670693898     
Spin= Alpha
Occup=     0.00000000
           1 -0.36466189514511438     
           2 -0.45651793356873621     
           3 -0.31719083406524051     
           4   6.7643440597462634E-002
           5 -0.94508080312450371     
           6  -9.7903295740092100E-002
           7 -0.18896115155074225     
           8   4.1243662188051596E-002
           9  0.48456841023753389     
          10   2.8141929835668152E-002
          11 -0.62203628686985268     
          12  0.12016967206795015     
          13  0.23906436160526184     
          14  0.33101238709613828     
          15  0.32481391929559250     
          16  -6.4610205305186991E-002
          17  0.46180565117696865     
Sym=    16a
Ene=   0.55260684732979082     
Spin= Alpha
Occup=     0.00000000
           1  0.22701349940029072     
           2 -0.90351606476186774     
           3  0.60744342517743810     
           4 -0.10931751626409207     
           5 -0.31390238649736640     
           6   7.1415205773443777E-002
           7  0.44075090394342337     
           8  -8.4985179994458232E-002
           9 -0.71449747841893851     
          10 -0.29850776390942918     
          11  0.68892831875838600     
          12 -0.13374782499421820     
          13  0.28595807824212449     
          14  0.32549353770463552     
          15  0.15952997385782655     
          16  -3.1142914397336862E-002
          17  0.65897630227407045     
Sym=    17a
Ene=   0.76021641659277406     
Spin= Alpha
Occup=     0.00000000
           1 -0.33368712775412523     
           2  0.70924940401560921     
           3 -0.12472817374039143     
           4   1.6763982485351082E-002
           5 -0.13115415374632255     
           6   1.0663506107455276     
           7  0.72666251195926723     
           8 -0.14483767036026512     
           9  -7.2700146118767170E-002
          10  0.23891786255079825     
          11   9.3987533407308491E-002
          12  -2.0607761637453304E-002
          13  0.71688117285816189     
          14  0.57596260836364710     
          15  0.51652903902976055     
          16  -9.9432201873696169E-002
          17 -0.33597439862130707     
