$hessian                                                                        
        0.1293825947  -0.1665655711  -0.0217080988  -0.0960106252   0.1315371370
        0.0182816321  -0.0196811191   0.0305601356  -0.0029500661  -0.0232815087
        0.0007188990   0.0049871201   0.0095906584   0.0037493994   0.0013894127
       -0.1665655711   0.3103025417   0.0428047452   0.1073609598  -0.2512846863
       -0.0335077240   0.0261088002  -0.0178652300   0.0054248699   0.0246706431
       -0.0012391627  -0.0061532976   0.0084251680  -0.0399134627  -0.0085685935
       -0.0217080988   0.0428047452   0.0116308817   0.0120273423  -0.0313981719
       -0.0262518990   0.0089304090  -0.0049868885   0.0122562317  -0.0009878426
        0.0015885874  -0.0035971970   0.0017381902  -0.0080082722   0.0059619827
       -0.0960106252   0.1073609598   0.0120273423   0.5474126862  -0.0191594685
        0.0120451751  -0.3022467582  -0.0084286833  -0.0020009423  -0.0580348176
        0.0222563467   0.0009993575  -0.0911204852  -0.1020291547  -0.0230709327
        0.1315371370  -0.2512846863  -0.0313981719  -0.0191594685   0.4385249321
        0.0613882261  -0.0204491754  -0.0285955378  -0.0057338631   0.0033849303
        0.0054795030   0.0039248492  -0.0953134234  -0.1641242110  -0.0281810403
        0.0182816321  -0.0335077240  -0.0262518990   0.0120451751   0.0613882261
        0.0965439213  -0.0215704135   0.0056086738  -0.0479571896   0.0115350110
       -0.0042259669   0.0128301495  -0.0202914047  -0.0292632090  -0.0351649822
       -0.0196811191   0.0261088002   0.0089304090  -0.3022467582  -0.0204491754
       -0.0215704135   0.9121781335  -0.1679170616  -0.0550490734  -0.5589606062
        0.1652994420   0.0647461649  -0.0312896500  -0.0030420052   0.0029429130
        0.0305601356  -0.0178652300  -0.0049868885  -0.0084286833  -0.0285955378
        0.0056086738  -0.1679170616   0.1194837917   0.0280727459   0.1636645739
       -0.0722836500  -0.0229839470  -0.0178789645  -0.0007393739  -0.0057105842
       -0.0029500661   0.0054248699   0.0122562317  -0.0020009423  -0.0057338631
       -0.0479571896  -0.0550490734   0.0280727459   0.0379978882   0.0649694330
       -0.0239000151  -0.0169920580  -0.0049693512  -0.0038637376   0.0146951277
       -0.0232815087   0.0246706431  -0.0009878426  -0.0580348176   0.0033849303
        0.0115350110  -0.5589606062   0.1636645739   0.0649694330   0.6379549978
       -0.1892130007  -0.0711725596   0.0023219348  -0.0025071466  -0.0043440417
        0.0007188990  -0.0012391627   0.0015885874   0.0222563467   0.0054795030
       -0.0042259669   0.1652994420  -0.0722836500  -0.0239000151  -0.1892130007
        0.0671308201   0.0237457501   0.0009383129   0.0009124896   0.0027916445
        0.0049871201  -0.0061532976  -0.0035971970   0.0009993575   0.0039248492
        0.0128301495   0.0647461649  -0.0229839470  -0.0169920580  -0.0711725596
        0.0237457501   0.0113666357   0.0004399170   0.0014666454  -0.0036075303
        0.0095906584   0.0084251680   0.0017381902  -0.0911204852  -0.0953134234
       -0.0202914047  -0.0312896500  -0.0178789645  -0.0049693512   0.0023219348
        0.0009383129   0.0004399170   0.1104975420   0.1038289071   0.0230826487
        0.0037493994  -0.0399134627  -0.0080082722  -0.1020291547  -0.1641242110
       -0.0292632090  -0.0030420052  -0.0007393739  -0.0038637376  -0.0025071466
        0.0009124896   0.0014666454   0.1038289071   0.2038645580   0.0396685734
        0.0013894127  -0.0085685935   0.0059619827  -0.0230709327  -0.0281810403
       -0.0351649822   0.0029429130  -0.0057105842   0.0146951277  -0.0043440417
        0.0027916445  -0.0036075303   0.0230826487   0.0396685734   0.0181154021
