5
 energy: -8.513250379738 gnorm: 0.252782631058 xtb: 6.2.2 (9d81278992624c895f80dd42a50cac0aa55982e2)
C        -0.89097900000000    1.29639000000000    0.19399100000000
C        -0.51042500000000   -0.08684100000000   -0.29986500000000
C         0.76271000000000   -0.55682000000000    0.38104300000000
C         1.97150600000000    0.13841200000000   -0.21678500000000
H        -1.33281200000000   -0.79114100000000   -0.05838400000000
5
 energy: -8.585262002351 gnorm: 0.155081992028 xtb: 6.2.2 (9d81278992624c895f80dd42a50cac0aa55982e2)
C        -0.88419640746133    1.25773671507097    0.15622044165110
C        -0.50969409715141   -0.06200864612199   -0.17487684651296
C         0.78952799940651   -0.48768647763468    0.29089114912504
C         1.93247399813533    0.08891949590326   -0.17976757244970
H        -1.32811149292909   -0.79696108721756   -0.09246717181348
5
 energy: -8.600015320462 gnorm: 0.228222283315 xtb: 6.2.2 (9d81278992624c895f80dd42a50cac0aa55982e2)
C        -0.85966767646155    1.19898900734718    0.13899401148067
C        -0.51595446774070   -0.03305319362626   -0.08074598579057
C         0.81149235487613   -0.35238634451326    0.19783125055186
C         1.86201715790514   -0.00033694595420   -0.13324582794477
H        -1.29788736857902   -0.81321252325346   -0.12283344829719
5
 energy: -8.614238791575 gnorm: 0.093932117006 xtb: 6.2.2 (9d81278992624c895f80dd42a50cac0aa55982e2)
C        -0.93769434356451    1.21956155074969    0.15014573007597
C        -0.57772616032865   -0.01198855007124   -0.05321095023846
C         0.78591504628351   -0.28916227050947    0.15482484176565
C         2.03242388992782   -0.06476187619447   -0.12733175537867
H        -1.30291843231818   -0.85364885397451   -0.12442786622449
5
 energy: -8.615578017337 gnorm: 0.052189099866 xtb: 6.2.2 (9d81278992624c895f80dd42a50cac0aa55982e2)
C        -0.96924375837305    1.27650431620653    0.13170140564751
C        -0.55449676056710   -0.01909017725635    0.01386022760705
C         0.81939101319443   -0.34164136774150    0.16933778904466
C         2.00399435203961   -0.05793152863321   -0.14905472064744
H        -1.29964484629389   -0.85784124257548   -0.16584470165178
5
 energy: -8.619630270266 gnorm: 0.032155836046 xtb: 6.2.2 (9d81278992624c895f80dd42a50cac0aa55982e2)
C        -1.00830750638559    1.23923100177744    0.16147502539432
C        -0.53142079485036   -0.00386829031832   -0.00871259840060
C         0.80128851483664   -0.27079103268193    0.20561773899364
C         1.98962749602502   -0.12675331556429   -0.17681443542575
H        -1.25118770962571   -0.83781836321290   -0.18156573056162
5
 energy: -8.621066433510 gnorm: 0.026335524776 xtb: 6.2.2 (9d81278992624c895f80dd42a50cac0aa55982e2)
C        -1.02263776568316    1.21888117940550    0.15553565565470
C        -0.55905301115055   -0.00070322138888    0.00670479829754
C         0.80851765524674   -0.22985138494960    0.14706332781208
C         2.01757048758517   -0.15735249530037   -0.14217680748836
H        -1.24439736599820   -0.83097407776665   -0.16712697427596
5
 energy: -8.620668898246 gnorm: 0.069710732731 xtb: 6.2.2 (9d81278992624c895f80dd42a50cac0aa55982e2)
C        -1.11600954143477    1.22823614410924    0.17518351260553
C        -0.55605167586819    0.03354752171811    0.07124078404078
C         0.82636782037550   -0.13912409772775    0.17748990766835
C         2.04822288686713   -0.27312484592748   -0.18660812078763
H        -1.20252948993966   -0.84953472217213   -0.23730608352704
5
 energy: -8.623117986922 gnorm: 0.013459240313 xtb: 6.2.2 (9d81278992624c895f80dd42a50cac0aa55982e2)
C        -1.10259164300637    1.23836961150249    0.16268259745680
C        -0.54353934711516    0.02157565935769    0.06512887377195
C         0.82323362761331   -0.18683937771433    0.16223512788497
C         2.01467317068564   -0.23975678384106   -0.17243929346514
H        -1.19177580817741   -0.83334910930479   -0.21760730564859
5
 energy: -8.623719942082 gnorm: 0.006417736119 xtb: 6.2.2 (9d81278992624c895f80dd42a50cac0aa55982e2)
C        -1.12008177575473    1.23288105528615    0.16934202422496
C        -0.54677967817326    0.02351252948906    0.07270113801213
C         0.82296358896262   -0.15467224633179    0.15734745560714
C         2.01558657453280   -0.27140698849989   -0.17329344903280
H        -1.17168870956743   -0.83031434994353   -0.22609716881143
5
 energy: -8.623961412086 gnorm: 0.019815502760 xtb: 6.2.2 (9d81278992624c895f80dd42a50cac0aa55982e2)
C        -1.16219522284368    1.23292293316679    0.17995404851021
C        -0.54507253726999    0.03429202724116    0.09426290834782
C         0.82611513836098   -0.10453499316884    0.15535529092938
C         2.01069934818126   -0.33328432220599   -0.18150326512797
H        -1.12954672642858   -0.82939564503314   -0.24806898265944
5
 energy: -8.624101683308 gnorm: 0.005476089958 xtb: 6.2.2 (9d81278992624c895f80dd42a50cac0aa55982e2)
C        -1.14760804496419    1.23189282180684    0.17893069748710
C        -0.54622518995938    0.03146748903656    0.08637063872396
C         0.82479516914722   -0.11117262138579    0.15510093240109
C         2.00358614866093   -0.32135893338858   -0.17787705402159
H        -1.13454808288457   -0.83082875606903   -0.24252521459057
5
 energy: -8.624164398651 gnorm: 0.004686374755 xtb: 6.2.2 (9d81278992624c895f80dd42a50cac0aa55982e2)
C        -1.15898108098836    1.23251980850645    0.18071286957619
C        -0.54415214727810    0.03684174346030    0.08417716516073
C         0.82666570474495   -0.10718444780513    0.15357641001267
C         2.00345027059328   -0.33195826652270   -0.17736749392822
H        -1.12698274707178   -0.83021883763892   -0.24109895082137
5
 energy: -8.624263730749 gnorm: 0.004239494669 xtb: 6.2.2 (9d81278992624c895f80dd42a50cac0aa55982e2)
C        -1.18789011485092    1.23336030563768    0.18726404685610
C        -0.54026817097087    0.05303479778570    0.07857898675691
C         0.83206580145375   -0.08619611137195    0.14674813045512
C         2.00136676461187   -0.36704999513515   -0.17419367509765
H        -1.10527428024383   -0.83314899691629   -0.23839748897048
5
 energy: -8.624292963585 gnorm: 0.003235640100 xtb: 6.2.2 (9d81278992624c895f80dd42a50cac0aa55982e2)
C        -1.19181615191532    1.23211188921478    0.18832888816610
C        -0.53911508305668    0.05544901098759    0.07425020106238
C         0.83351870697421   -0.08217605501670    0.14164397886139
C         2.00184394953604   -0.37203060893249   -0.17023555305108
H        -1.10443142153825   -0.83335423625318   -0.23398751503878
5
 energy: -8.624347482716 gnorm: 0.003561142866 xtb: 6.2.2 (9d81278992624c895f80dd42a50cac0aa55982e2)
C        -1.20199617209500    1.22975445012036    0.19091947788377
C        -0.53635420270338    0.06075212304273    0.06564304884923
C         0.83576862535976   -0.06895000090988    0.12491640050859
C         2.00447502306575   -0.38636603234949   -0.15863774740036
H        -1.10189327362714   -0.83519053990373   -0.22284117984123
5
 energy: -8.624403071427 gnorm: 0.002970979749 xtb: 6.2.2 (9d81278992624c895f80dd42a50cac0aa55982e2)
C        -1.21189394080315    1.22833181911733    0.19263468795240
C        -0.53314692481826    0.06493005756467    0.05536595814447
C         0.83763209305237   -0.05483062426630    0.09835488269428
C         2.01025921097664   -0.39997986505352   -0.14048442646205
H        -1.10285043840760   -0.83845138736219   -0.20587110232910
5
 energy: -8.624438915910 gnorm: 0.002880913264 xtb: 6.2.2 (9d81278992624c895f80dd42a50cac0aa55982e2)
C        -1.21403050434323    1.22888928330593    0.19267036542183
C        -0.53131621401325    0.06512282155305    0.04473001994839
C         0.83746449351161   -0.04640088660954    0.06998761139694
C         2.01639840908439   -0.40469274936540   -0.12046579177760
H        -1.10851618423952   -0.84291846888404   -0.18692220498956
5
 energy: -8.624449484204 gnorm: 0.001480916162 xtb: 6.2.2 (9d81278992624c895f80dd42a50cac0aa55982e2)
C        -1.21185078290210    1.23041365475862    0.19213749450693
C        -0.53183182231035    0.06355056687733    0.04038261607463
C         0.83665820527618   -0.04542521409826    0.05849506783051
C         2.01835255585573   -0.40336430977031   -0.11202098124586
H        -1.11132815591946   -0.84517469776738   -0.17899419716621
5
 energy: -8.624441063725 gnorm: 0.006435741944 xtb: 6.2.2 (9d81278992624c895f80dd42a50cac0aa55982e2)
C        -1.21729667988293    1.23277744800341    0.19347274985779
C        -0.53178690741750    0.06579363910125    0.03017262377218
C         0.83667405159902   -0.03634991312084    0.03531978245207
C         2.02126518992155   -0.41260441695848   -0.09551794786993
H        -1.10885565422015   -0.84961675702535   -0.16344720821211
5
 energy: -8.624454608606 gnorm: 0.002159565004 xtb: 6.2.2 (9d81278992624c895f80dd42a50cac0aa55982e2)
C        -1.21375883592668    1.23305347320175    0.19285311330499
C        -0.53245460091509    0.06470548561216    0.03242828047058
C         0.83617762280411   -0.04059263007317    0.04209547114092
C         2.01939824271603   -0.40814752591789   -0.09995098695111
H        -1.10936242867838   -0.84901880282285   -0.16742587796538
5
 energy: -8.624456241887 gnorm: 0.000942166066 xtb: 6.2.2 (9d81278992624c895f80dd42a50cac0aa55982e2)
C        -1.21436572206319    1.23156324922899    0.19602700308817
C        -0.53197532535960    0.06614014274076    0.02686956415744
C         0.83661863766634   -0.03895276696982    0.03829574795220
C         2.01900769704342   -0.40968646299376   -0.09647551812370
H        -1.10928528728697   -0.84906416200619   -0.16471679707412
