[Molden Format]
[Title]
[Atoms] AU
C      1     6 -0.22948049380116E+01  0.23273296924028E+01  0.37044126298879E+00
C      2     6 -0.10052867450271E+01  0.12499209631908E+00  0.50779403606847E-01
C      3     6  0.15809798164258E+01 -0.73618206224850E-01  0.72363078465136E-01
C      4     6  0.38153665467950E+01 -0.77421543561202E+00 -0.18232425700148E+00
H      5     1 -0.20962546801822E+01 -0.16044881468850E+01 -0.31125948805930E+00
[GTO]
           1 0
 s           4   1.0000000000000000     
   51.049363095579913      -0.16312063210127389     
   8.7911227406887544      -0.19911024581000730     
  0.70640422258929825       0.31882047753655751     
  0.26922813413411617       0.12706504184240380     
 p           4   1.0000000000000000     
   5.8263656140800002       0.73716451545209605     
   1.5106896018720002       0.68216371614850257     
  0.53256483288000001       0.35783053929253711     
  0.21202323690600003        5.3983030275847881E-002

           2 0
 s           4   1.0000000000000000     
   51.049363095579913      -0.16312063210127389     
   8.7911227406887544      -0.19911024581000730     
  0.70640422258929825       0.31882047753655751     
  0.26922813413411617       0.12706504184240380     
 p           4   1.0000000000000000     
   5.8263656140800002       0.73716451545209605     
   1.5106896018720002       0.68216371614850257     
  0.53256483288000001       0.35783053929253711     
  0.21202323690600003        5.3983030275847881E-002

           3 0
 s           4   1.0000000000000000     
   51.049363095579913      -0.16312063210127389     
   8.7911227406887544      -0.19911024581000730     
  0.70640422258929825       0.31882047753655751     
  0.26922813413411617       0.12706504184240380     
 p           4   1.0000000000000000     
   5.8263656140800002       0.73716451545209605     
   1.5106896018720002       0.68216371614850257     
  0.53256483288000001       0.35783053929253711     
  0.21202323690600003        5.3983030275847881E-002

           4 0
 s           4   1.0000000000000000     
   51.049363095579913      -0.16312063210127389     
   8.7911227406887544      -0.19911024581000730     
  0.70640422258929825       0.31882047753655751     
  0.26922813413411617       0.12706504184240380     
 p           4   1.0000000000000000     
   5.8263656140800002       0.73716451545209605     
   1.5106896018720002       0.68216371614850257     
  0.53256483288000001       0.35783053929253711     
  0.21202323690600003        5.3983030275847881E-002

           5 0
 s           3   1.0000000000000000     
   3.3702276975336001       0.27359110588908298     
  0.61389118221497996       0.26460540653860526     
  0.16614291148415999        8.2465947534082318E-002

[MO]
Sym=     1a
Ene=  -0.67834944155966992     
Spin= Alpha
Occup=     2.00000000
           1  0.27930971728735643     
           2   7.9251421567953478E-002
           3 -0.10758228205460131     
           4  -1.5832481421990056E-002
           5  0.48565538027023675     
           6   7.7781039291661108E-002
           7   6.3056733327104694E-002
           8   9.8404723168188327E-003
           9  0.40987379913059807     
          10  -8.2378366287903293E-002
          11  -3.4996717890422376E-003
          12  -9.4292340261081225E-003
          13  0.19091959433491848     
          14 -0.10093145388704729     
          15   2.4449034451333167E-002
          16   7.6840003586134582E-003
          17  0.12416187581464168     
Sym=     2a
Ene=  -0.65807962099890249     
Spin= Alpha
Occup=     2.00000000
           1  0.30102019282948905     
           2   4.0467727217451337E-002
           3  -9.1932772207166849E-002
           4  -1.3285154873308782E-002
           5  0.23463994671752170     
           6 -0.14827434276011972     
           7  0.11167419634837068     
           8   1.7325557723862052E-002
           9 -0.35064501889354538     
          10 -0.22847969686807484     
          11   8.3698881533905117E-002
          12   2.4332122648929221E-002
          13 -0.44958953487577569     
          14  0.14435978632718108     
          15  -3.7488364484928087E-002
          16  -1.4868689081714568E-002
          17   7.0727396100884118E-002
Sym=     3a
Ene=  -0.60297178378611849     
Spin= Alpha
Occup=     2.00000000
           1 -0.48395649939037721     
           2   4.6941217393198691E-003
           3   4.9349564458581290E-002
           4   8.5071462512847189E-003
           5  0.13495510180077916     
           6  0.30141548892083325     
           7 -0.29332929200034458     
           8  -3.6901018508442469E-002
           9  0.13210609165424994     
          10 -0.33647792757922418     
          11  -2.2801963840029988E-002
          12   3.8208328123717906E-003
          13 -0.32207669607556916     
          14  -2.8241662920079698E-003
          15  -3.1992946918953706E-002
          16  -8.8561850803909360E-003
          17  0.10946344493831095     
Sym=     4a
Ene=  -0.56511823055934829     
Spin= Alpha
Occup=     2.00000000
           1  0.10980866342124605     
           2  0.13854145611094193     
           3  0.10644770302086465     
           4   2.4309336628423769E-002
           5 -0.13220731553532669     
           6  0.35605672552998158     
           7  0.35568629791585266     
           8   7.7361787655454303E-002
           9  0.18277891533039473     
          10 -0.13095704930095306     
          11  0.21900101687612478     
          12   4.6481688875119123E-002
          13 -0.17956310582476129     
          14  -2.0067089089853267E-002
          15   7.3135303240864119E-002
          16   1.4154704381840194E-002
          17 -0.42060894692007167     
Sym=     5a
Ene=  -0.50800093059910556     
Spin= Alpha
Occup=     2.00000000
           1  -7.3158912821975229E-003
           2   1.4922321714028053E-002
           3   4.6519636515666617E-002
           4 -0.26800066986591209     
           5  -4.3380765709214938E-003
           6   2.3912958666434093E-002
           7   9.3098386881650508E-002
           8 -0.52347316476647876     
           9  -2.1146690901380598E-002
          10  -1.3401529706112933E-002
          11  0.10060809228151586     
          12 -0.51943909042826841     
          13   1.7441034453439652E-003
          14  -9.0536361493012227E-003
          15   5.9508310176978906E-002
          16 -0.30701618061840336     
          17  -3.6042064660122362E-003
Sym=     6a
Ene=  -0.46697834718901532     
Spin= Alpha
Occup=     2.00000000
           1 -0.44386673995351245     
           2  0.15115761728264229     
           3 -0.29077263191563174     
           4  -3.8067687482089559E-002
           5  0.11725317638982666     
           6 -0.11356394169996092     
           7   4.9539444754757793E-002
           8   1.2915424495637991E-002
           9  -7.2843421784048830E-003
          10  0.16157934592283776     
          11  0.50841154629936769     
          12   8.9295596234188590E-002
          13   6.1770956996018644E-002
          14  0.18537246249872810     
          15  0.43334785178415153     
          16   7.3623062989024532E-002
          17  0.10086938046112633     
Sym=     7a
Ene=  -0.44745040619700632     
Spin= Alpha
Occup=     1.99991542
           1 -0.26246846576220817     
           2  0.27382288066389776     
           3 -0.18523094347290076     
           4   2.8514880603538670E-002
           5  0.14279570751288287     
           6  0.10352218918565291     
           7  0.14289800758390750     
           8   8.0456191898183954E-002
           9 -0.21505181474894514     
          10 -0.16578326211006664     
          11 -0.14973781947369058     
          12  -5.6633015559793214E-002
          13  0.52613899157934840     
          14  0.42795323618395792     
          15 -0.35765640679265437     
          16 -0.13206574552864436     
          17 -0.14548650636665289     
Sym=     8a
Ene=  -0.42963158751711988     
Spin= Alpha
Occup=     1.00008455
           1   6.6630847121351200E-002
           2  -7.2521618463128809E-002
           3  -1.2563729273540417E-002
           4  0.51981530524196218     
           5  -1.5134585209341021E-002
           6  -4.1422935532112130E-003
           7 -0.11350755028083429     
           8  0.41496289523885743     
           9   3.8237530507069287E-003
          10  -4.7520787267765442E-003
          11  0.10323819722852080     
          12 -0.34631718808667733     
          13  -7.6708323549241845E-003
          14  -2.0899118810204464E-002
          15  0.15659785269369872     
          16 -0.51437871018218562     
          17   2.7942819605957025E-002
Sym=     9a
Ene=  -0.42190025938496606     
Spin= Alpha
Occup=     1.00000002
           1  0.34920886899236964     
           2 -0.18080570577008392     
           3  0.48063473813611485     
           4   1.1704757390153732E-002
           5  -2.3495758252569922E-002
           6  0.17892361776854018     
           7 -0.21695107970415120     
           8  -7.4694572760399786E-002
           9  -2.8590694218759909E-002
          10 -0.11540299526964717     
          11  0.23859541590954284     
          12   9.0291863020879604E-002
          13  0.32644331983661140     
          14  0.48984247105096596     
          15  0.17196300622094329     
          16   7.0991048470841339E-002
          17  0.16752570152182616     
Sym=    10a
Ene=  -0.34352152251440077     
Spin= Alpha
Occup=     1.00000000
           1  -7.1267048752453165E-003
           2  0.82583773709630037     
           3  0.46652943618912879     
           4  0.12357244334799974     
           5  -9.2860401135143322E-003
           6  -7.2953414661682287E-002
           7  -3.7449249532240950E-002
           8  -9.9300878896395588E-003
           9 -0.13530048106493661     
          10  0.16203383868449581     
          11  -4.2758725423329105E-002
          12  -1.8299613159998881E-002
          13  -7.0913670950946139E-002
          14 -0.14319017227391820     
          15   2.2488196731086540E-002
          16   2.4319756839854465E-002
          17  0.26350306358761905     
Sym=    11a
Ene=  -0.29211360468686920     
Spin= Alpha
Occup=     0.00000000
           1   4.9939225132403600E-004
           2   4.5599395691452223E-002
           3  0.12992536219152759     
           4 -0.73795389650513998     
           5  -2.6717739436044972E-003
           6  -2.8077932530393413E-002
           7  -8.2931034857737632E-002
           8  0.47596064745925132     
           9   8.2880761699366395E-003
          10   9.2492894220919733E-003
          11  -5.0026955901718510E-002
          12  0.28350423947222708     
          13   3.0537670473627459E-003
          14  -3.4319197253033742E-002
          15   9.9215049439338204E-002
          16 -0.54352356236753896     
          17   5.2738750284540342E-003
Sym=    12a
Ene=  -0.22608919497499694     
Spin= Alpha
Occup=     0.00000000
           1   5.7671727459458498E-002
           2   9.5833085862639861E-002
           3  -8.9469994991270674E-002
           4  -2.8102197252423064E-002
           5   9.0083197387741079E-002
           6   5.4394545438822675E-002
           7  -2.9745636783646483E-002
           8   1.5379531079670650E-002
           9 -0.13405454785587598     
          10 -0.12333623272690773     
          11 -0.73753120192032073     
          12 -0.14873235152124784     
          13  -1.3071178704624114E-002
          14  0.18569078787361562     
          15  0.77756856019277876     
          16  0.15404121176159893     
          17 -0.24743291918537461     
Sym=    13a
Ene=  -0.16050021261481934     
Spin= Alpha
Occup=     0.00000000
           1   4.4606402308454028E-003
           2   9.3198983161626031E-003
           3  -7.0866901852624745E-002
           4  0.35723292695564751     
           5  -3.0747584961465142E-002
           6   2.0347281011740305E-003
           7  0.10939370828776455     
           8 -0.60771565242232428     
           9   4.3866751807004986E-002
          10   2.4200682286627031E-004
          11 -0.17030632641719290     
          12  0.76564352484814857     
          13  -1.9377443182398923E-003
          14   3.7311059509965308E-003
          15  0.13239391025238778     
          16 -0.59686715383576550     
          17   9.5207699811397182E-003
Sym=    14a
Ene=   0.13163264906464461     
Spin= Alpha
Occup=     0.00000000
           1 -0.13635765195394156     
           2 -0.12378284118564382     
           3  0.32511376650134710     
           4   5.9650986848531498E-002
           5   1.0379388602499133     
           6 -0.12783594849198787     
           7 -0.40815297757177899     
           8 -0.10722452699229859     
           9 -0.46550504335358456     
          10  0.22144134555996825     
          11  0.18285381213308011     
          12   7.7318417119584634E-002
          13  0.12496057498265463     
          14 -0.28563836469515180     
          15  -2.4699052029736237E-002
          16  -1.3370483436987881E-002
          17 -0.87384057232267631     
Sym=    15a
Ene=   0.25569193784316507     
Spin= Alpha
Occup=     0.00000000
           1 -0.16618205972843661     
           2 -0.32679271025059897     
           3   7.5321972979067897E-002
           4   4.9800091303006319E-003
           5  0.21643552355151385     
           6  0.79880166008171360     
           7  0.59338318872553997     
           8  0.11208890004328399     
           9 -0.88075288353558312     
          10  0.20822012994223055     
          11  -5.4366004639807806E-002
          12   4.0424983135049782E-002
          13  0.23764366811153359     
          14 -0.42009046012485363     
          15  0.13214887598681105     
          16   2.5146075659895611E-002
          17  0.65059003444839292     
Sym=    16a
Ene=   0.45191483083222106     
Spin= Alpha
Occup=     0.00000000
           1 -0.70419641162098612     
           2 -0.39919667158911126     
           3  0.76342829232724274     
           4  0.11008922631284454     
           5  0.37327318456558667     
           6 -0.67045056073724218     
           7  0.88947766533357431     
           8  0.13389262769186300     
           9  0.42709443587678192     
          10 -0.17522310466745958     
          11 -0.22827854142263504     
          12  -5.6148870506122127E-002
          13  -9.8923571908786909E-002
          14  0.18824270380941521     
          15   3.1644260947971202E-002
          16   2.1135964904835424E-003
          17  0.15832719346393215     
Sym=    17a
Ene=    1.0084407810201177     
Spin= Alpha
Occup=     0.00000000
           1  -3.5737677485015017E-002
           2   5.9071216047300652E-002
           3   4.1237960416755579E-002
           4   1.0536795938411796E-002
           5 -0.46382683392753643     
           6 -0.56529501696083029     
           7  -2.8650793322055501E-002
           8  -3.3102245327359024E-002
           9 -0.41258010969883602     
          10  -1.3369042159253930     
          11  0.30910996569478466     
          12   9.5141605636083870E-002
          13  0.88672546105018779     
          14 -0.85918173103951712     
          15  0.29961966946189089     
          16  0.11342081480873588     
          17  -7.5288016369648852E-002
