 Entering Gaussian System
 *********************************************
 Gaussian 98:
 frequency output generated by the xtb code
 *********************************************
                         Standard orientation:
 --------------------------------------------------------------------
  Center     Atomic     Atomic              Coordinates (Angstroms)
  Number     Number      Type              X           Y           Z
 --------------------------------------------------------------------
    1          6             0       -1.214359    1.231570    0.196029
    2          6             0       -0.531975    0.066143    0.026871
    3          6             0        0.836619   -0.038957    0.038293
    4          6             0        2.019005   -0.409697   -0.096482
    5          1             0       -1.109290   -0.849059   -0.164711
 --------------------------------------------------------------------
     1 basis functions        1 primitive gaussians
     1 alpha electrons        1 beta electrons

 Harmonic frequencies (cm**-1), IR intensities (KM/Mole),
 Raman scattering activities (A**4/amu), Raman depolarization ratios,
 reduced masses (AMU), force constants (mDyne/A) and normal coordinates:
                      1                      2                      3
                        a                      a                      a 
 Frequencies --    53.4047               217.3801               508.7839
 Red. masses --    10.7834                11.4718                11.8044
 Frc consts  --     0.0000                 0.0000                 0.0000
 IR Inten    --     0.4076                 0.2927                 0.1353
 Raman Activ --     0.0000                 0.0000                 0.0000
 Depolar     --     0.0000                 0.0000                 0.0000
 Atom AN      X      Y      Z        X      Y      Z        X      Y      Z
   1   6    -0.12  -0.05   0.22    -0.49  -0.16  -0.04    -0.48   0.10  -0.01
   2   6     0.03   0.04  -0.05     0.24   0.26   0.02     0.07   0.41   0.09
   3   6     0.03   0.23  -0.72     0.26   0.40   0.22     0.09  -0.65  -0.11
   4   6     0.04  -0.20   0.46    -0.06  -0.50  -0.17     0.33   0.10   0.01
   5   1     0.01  -0.06   0.33     0.20   0.01  -0.10    -0.03   0.13   0.04
                      4                      5                      6
                        a                      a                      a 
 Frequencies --   722.3699              1043.9149              1136.8714
 Red. masses --     6.5626                 8.9996                 4.7452
 Frc consts  --     0.0000                 0.0000                 0.0000
 IR Inten    --     0.1568                 0.2179                 0.2539
 Raman Activ --     0.0000                 0.0000                 0.0000
 Depolar     --     0.0000                 0.0000                 0.0000
 Atom AN      X      Y      Z        X      Y      Z        X      Y      Z
   1   6     0.00   0.03  -0.15    -0.17   0.22   0.03    -0.07   0.35   0.06
   2   6    -0.03  -0.11   0.59    -0.43  -0.31  -0.06    -0.39  -0.11  -0.03
   3   6     0.01   0.06  -0.33     0.29   0.19   0.08     0.10  -0.05   0.01
   4   6     0.00  -0.02   0.09     0.45  -0.16  -0.06     0.17  -0.05  -0.02
   5   1     0.03   0.13  -0.69    -0.50   0.17   0.01     0.64  -0.50  -0.06
                      7                      8                      9
                        a                      a                      a 
 Frequencies --  1308.7893              1813.1660              2794.0879
 Red. masses --    12.0011                11.9708                 1.7430
 Frc consts  --     0.0000                 0.0000                 0.0000
 IR Inten    --     1.4260                 2.0452                 0.0623
 Raman Activ --     0.0000                 0.0000                 0.0000
 Depolar     --     0.0000                 0.0000                 0.0000
 Atom AN      X      Y      Z        X      Y      Z        X      Y      Z
   1   6     0.32  -0.52  -0.07     0.01  -0.02   0.00     0.01  -0.02  -0.00
   2   6    -0.54   0.52   0.07    -0.19   0.01  -0.01    -0.15  -0.20  -0.04
   3   6     0.02   0.06   0.01     0.76  -0.17  -0.06    -0.00  -0.01  -0.00
   4   6     0.19  -0.07  -0.01    -0.56   0.17   0.07     0.00   0.00   0.00
   5   1     0.03  -0.00   0.00    -0.06   0.00   0.01     0.52   0.80   0.17
