      -----------------------------------------------------------      
     |                   =====================                   |     
     |                           x T B                           |     
     |                   =====================                   |     
     |                         S. Grimme                         |     
     |          Mulliken Center for Theoretical Chemistry        |     
     |                    University of Bonn                     |     
      -----------------------------------------------------------      

   * xtb version 6.2.2 (9d81278992624c895f80dd42a50cac0aa55982e2) compiled by '@Darwin' on 04/03/2020

   xtb is free software: you can redistribute it and/or modify it under
   the terms of the GNU Lesser General Public License as published by
   the Free Software Foundation, either version 3 of the License, or
   (at your option) any later version.
   
   xtb is distributed in the hope that it will be useful,
   but WITHOUT ANY WARRANTY; without even the implied warranty of
   MERCHANTABILITY or FITNESS FOR A PARTICULAR PURPOSE.  See the
   GNU Lesser General Public License for more details.
   
   Cite this work as:
   * S. Grimme, C. Bannwarth, P. Shushkov, J. Chem. Theory Comput., 2017,
     13, 1989-2009. DOI: 10.1021/acs.jctc.7b00118
   * C. Bannwarth, S. Ehlert and S. Grimme., J. Chem. Theory Comput., 2019,
     15, 1652-1671. DOI: 10.1021/acs.jctc.8b01176
   * P. Pracht, E. Caldeweyher, S. Ehlert, S. Grimme, ChemRxiv, 2019, preprint.
     DOI: 10.26434/chemrxiv.8326202.v1
   
   for DFT-D4:
   * E. Caldeweyher, C. Bannwarth and S. Grimme, J. Chem. Phys., 2017,
     147, 034112. DOI: 10.1063/1.4993215
   * E. Caldeweyher, S. Ehlert, A. Hansen, H. Neugebauer, S. Spicher,
     C. Bannwarth and S. Grimme, J. Chem. Phys., 2019, 150, 154122.
     DOI: 10.1063/1.5090222
   
   for sTDA-xTB:
   * S. Grimme and C. Bannwarth, J. Chem. Phys., 2016, 145, 054103.
     DOI: 10.1063/1.4959605
   
   in the mass-spec context:
   * V. Asgeirsson, C. Bauer and S. Grimme, Chem. Sci., 2017, 8, 4879.
     DOI: 10.1039/c7sc00601b
   
   for metadynamics refer to:
   * S. Grimme, J. Chem. Theory Comput., 2019, 155, 2847-2862
     DOI: 10.1021/acs.jctc.9b00143
   
   with help from (in alphabetical order)
   C. Bannwarth, F. Bohle, G. Brandenburg, E. Caldeweyher, M. Checinski,
   S. Dohm, S. Ehlert, S. Ehrlich, F. März, H. Neugebauer, J. Pisarek,
   P. Pracht, P. Shushkov, and S. Spicher.
   
 * started run on 2020/05/12 at 11:45:09.162     

           -------------------------------------------------
          |                Calculation Setup                |
           -------------------------------------------------

          program call               : xtb --input H1C4_3_S_3.input H1C4_3_S_3.xyz --ohess --molden --namespace H1C4_3_S_3 output.out
          calculation namespace      : H1C4_3_S_3
          coordinate file            : H1C4_3_S_3.xyz
          number of atoms            :                     5
          number of electrons        :                    17
          charge                     :                     0
          spin                       :                   1.5
          first test random number   :      0.99300178730064

   ID    Z sym.   atoms
    1    6 C      1-4
    2    1 H      5

           -------------------------------------------------
          |                 G F N 2 - x T B                 |
           -------------------------------------------------

        Reference                      10.1021/acs.jctc.8b01176
      * Hamiltonian:
        H0-scaling (s, p, d)           1.850000    2.230000    2.230000
        zeta-weighting                 0.500000
      * Dispersion:
        s8                             2.700000
        a1                             0.520000
        a2                             5.000000
        s9                             5.000000
      * Repulsion:
        kExp                           1.500000    1.000000
        rExp                           1.000000
      * Coulomb:
        alpha                          2.000000
        third order                    shell-resolved
        anisotropic                    true
        a3                             3.000000
        a5                             4.000000
        cn-shift                       1.200000
        cn-exp                         4.000000
        max-rad                        5.000000


          ...................................................
          :                      SETUP                      :
          :.................................................:
          :  # basis functions                  17          :
          :  # atomic orbitals                  17          :
          :  # shells                            9          :
          :  # electrons                        17          :
          :  max. iterations                   250          :
          :  Hamiltonian                  GFN2-xTB          :
          :  restarted?                      false          :
          :  GBSA solvation                  false          :
          :  PC potential                    false          :
          :  electronic temp.          300.0000000     K    :
          :  accuracy                    1.0000000          :
          :  -> integral cutoff          0.2500000E+02      :
          :  -> integral neglect         0.1000000E-07      :
          :  -> SCF convergence          0.1000000E-05 Eh   :
          :  -> wf. convergence          0.1000000E-03 e    :
          :  Broyden damping             0.4000000          :
          ...................................................

 iter      E             dE          RMSdq      gap      omega  full diag
   1     -8.5338316 -0.853383E+01  0.102E+01    0.56       0.0  T
   2     -8.3176883  0.216143E+00  0.770E+00    0.57       1.0  T
   3     -6.7595388  0.155815E+01  0.119E+01    0.83       1.0  T
   4     -7.8474472 -0.108791E+01  0.773E+00    0.99       1.0  T
   5     -8.3559172 -0.508470E+00  0.494E+00    1.02       1.0  T
   6     -8.4960009 -0.140084E+00  0.322E+00    0.76       1.0  T
   7     -8.5149333 -0.189324E-01  0.271E+00    0.69       1.0  T
   8     -8.5552146 -0.402813E-01  0.160E+00    0.60       1.0  T
   9     -8.5708863 -0.156717E-01  0.432E-01    0.52       1.0  T
  10     -8.5696254  0.126095E-02  0.471E-01    0.51       1.0  T
  11     -8.5711724 -0.154707E-02  0.243E-01    0.53       1.0  T
  12     -8.5713909 -0.218501E-03  0.760E-02    0.53       1.0  T
  13     -8.5710753  0.315594E-03  0.219E-01    0.52       1.0  T
  14     -8.5713962 -0.320872E-03  0.115E-02    0.53       3.9  T
  15     -8.5713893  0.687734E-05  0.344E-02    0.53       1.3  T
  16     -8.5713962 -0.687316E-05  0.411E-03    0.53      10.9  T
  17     -8.5713963 -0.886719E-07  0.203E-03    0.53      22.1  T
  18     -8.5713963 -0.147838E-07  0.107E-03    0.53      41.9  T
  19     -8.5713963 -0.756198E-08  0.522E-05    0.53     857.2  T
  20     -8.5713963 -0.110028E-10  0.363E-05    0.53    1232.5  T

   *** convergence criteria satisfied after 20 iterations ***

         #    Occupation            Energy/Eh            Energy/eV
      -------------------------------------------------------------
         1        2.0000           -0.6796777             -18.4950
       ...           ...                  ...                  ...
         4        2.0000           -0.5558469             -15.1254
         5        2.0000           -0.5105296             -13.8922
         6        2.0000           -0.4812488             -13.0954
         7        2.0000           -0.4754448             -12.9375
         8        1.0000           -0.4320562             -11.7568
         9        1.0000           -0.4166379             -11.3373
        10        1.0000           -0.3765200             -10.2456 (HOMO)
        11        0.0000           -0.3571724              -9.7192 (LUMO)
        12                         -0.3258787              -8.8676
        13                         -0.2977761              -8.1029
        14                          0.0609161               1.6576
        15                          0.0859305               2.3383
       ...                                ...                  ...
        17                          0.1452897               3.9535
      -------------------------------------------------------------
                  HL-Gap            0.0193476 Eh            0.5265 eV
             Fermi-level           -0.4102978 Eh          -11.1648 eV

 SCC (total)                   0 d,  0 h,  0 min,  0.005 sec
 SCC setup                      ...        0 min,  0.000 sec (  1.972%)
 Dispersion                     ...        0 min,  0.000 sec (  0.444%)
 integral evaluation            ...        0 min,  0.001 sec ( 26.035%)
 zeroth order Hamiltonian       ...        0 min,  0.000 sec (  0.439%)
 iterations                     ...        0 min,  0.002 sec ( 44.984%)
 molecular gradient             ...        0 min,  0.001 sec ( 23.728%)
 printout                       ...        0 min,  0.000 sec (  2.177%)

         :::::::::::::::::::::::::::::::::::::::::::::::::::::
         ::                     SUMMARY                     ::
         :::::::::::::::::::::::::::::::::::::::::::::::::::::
         :: total energy              -8.513250379820 Eh    ::
         :: gradient norm              0.252782592225 Eh/a0 ::
         :: HOMO-LUMO gap              0.526474641027 eV    ::
         ::.................................................::
         :: SCC energy                -8.571396303934 Eh    ::
         :: -> isotropic ES           -0.029707908920 Eh    ::
         :: -> anisotropic ES         -0.001178900692 Eh    ::
         :: -> anisotropic XC          0.009346912078 Eh    ::
         :: -> dispersion             -0.002325940337 Eh    ::
         :: repulsion energy           0.058145793900 Eh    ::
         :: add. restraining           0.000000000000 Eh    ::
         :::::::::::::::::::::::::::::::::::::::::::::::::::::

      ----------------------------------------------------------- 
     |                   =====================                   |
     |                        A N C O P T                        |
     |                   =====================                   |
     |               Approximate Normal Coordinate               |
     |                Rational Function Optimizer                |
      ----------------------------------------------------------- 

          ...................................................
          :                      SETUP                      :
          :.................................................:
          :   optimization level            normal          :
          :   max. optcycles                   200          :
          :   ANC micro-cycles                  20          :
          :   degrees of freedom                 9          :
          :.................................................:
          :   RF solver                   davidson          :
          :   write xtbopt.log                true          :
          :   linear?                        false          :
          :   energy convergence         0.5000000E-05 Eh   :
          :   grad. convergence          0.1000000E-02 Eh/α :
          :   maximium RF displ.         1.0000000          :
          :   Hlow (freq-cutoff)         0.1000000E-01      :
          :   Hmax (freq-cutoff)         5.0000000          :
          :   S6 in model hess.         20.0000000          :
          ...................................................

generating ANC from model Hessian ...
Using Lindh-Hessian (1995)
 Shifting diagonal of input Hessian by    2.0823588418896928E-003
 Lowest  eigenvalues of input Hessian
   -0.000000   -0.000000    0.000000    0.000000    0.000000    0.000000
    0.010000    0.037249    0.067542    0.079201    0.094152    0.561296
    0.796732    0.975719    1.037996
 Highest eigenvalues
    0.079201    0.094152    0.561296    0.796732    0.975719    1.037996


........................................................................
.............................. CYCLE    1 ..............................
........................................................................
   1     -8.5713963 -0.857140E+01  0.113E-06    0.53       0.0  T
   2     -8.5713963  0.159872E-12  0.415E-06    0.53   10786.3  T
   3     -8.5713963 -0.172307E-12  0.706E-07    0.53   63389.3  T
     SCC iter.                  ...        0 min,  0.000 sec
     gradient                   ...        0 min,  0.001 sec
 * total energy  :    -8.5132504 Eh     change        0.8230927E-10 Eh
   gradient norm :     0.2527826 Eh/α   predicted     0.0000000E+00 (-100.00%)
   displ. norm   :     0.3750658 α      lambda       -0.8849443E-01
   maximum displ.:     0.2907013 α      in ANC's #6, #7, #3, ...

........................................................................
.............................. CYCLE    2 ..............................
........................................................................
   1     -8.6807964 -0.868080E+01  0.217E+00    0.96       0.0  T
   2     -8.4519090  0.228887E+00  0.468E+00    0.63       1.0  T
   3     -8.6311466 -0.179238E+00  0.244E+00    1.11       1.0  T
   4     -8.6806820 -0.495354E-01  0.146E+00    0.81       1.0  T
   5     -8.6915492 -0.108672E-01  0.623E-01    0.86       1.0  T
   6     -8.6921059 -0.556656E-03  0.406E-01    0.87       1.0  T
   7     -8.6929130 -0.807079E-03  0.200E-01    0.85       1.0  T
   8     -8.6931017 -0.188742E-03  0.434E-02    0.84       1.0  T
   9     -8.6931051 -0.335995E-05  0.360E-02    0.84       1.2  T
  10     -8.6931096 -0.456341E-05  0.717E-03    0.84       6.2  T
  11     -8.6931098 -0.169789E-06  0.323E-03    0.84      13.8  T
  12     -8.6931098 -0.503763E-07  0.307E-04    0.83     145.6  T
  13     -8.6931098 -0.344730E-09  0.607E-05    0.83     736.8  T
     SCC iter.                  ...        0 min,  0.001 sec
     gradient                   ...        0 min,  0.001 sec
 * total energy  :    -8.5852620 Eh     change       -0.7201162E-01 Eh
   gradient norm :     0.1550759 Eh/α   predicted    -0.5047166E-01 ( -29.91%)
   displ. norm   :     0.4579672 α      lambda       -0.6755196E-01
   maximum displ.:     0.3403456 α      in ANC's #6, #7, #5, ...

........................................................................
.............................. CYCLE    3 ..............................
........................................................................
   1     -8.8459798 -0.884598E+01  0.295E+00    1.77       0.0  T
   2     -8.8076519  0.383279E-01  0.256E+00    1.95       1.0  T
   3     -8.7645224  0.431295E-01  0.330E+00    1.51       1.0  T
   4     -8.8483587 -0.838363E-01  0.124E+00    1.91       1.0  T
   5     -8.8538208 -0.546208E-02  0.635E-01    1.82       1.0  T
   6     -8.8538908 -0.700011E-04  0.557E-01    1.84       1.0  T
   7     -8.8538596  0.311760E-04  0.196E-01    1.85       1.0  T
   8     -8.8539489 -0.892994E-04  0.723E-02    1.84       1.0  T
   9     -8.8539612 -0.123571E-04  0.340E-02    1.84       1.3  T
  10     -8.8539624 -0.120224E-05  0.516E-03    1.84       8.7  T
  11     -8.8539627 -0.205246E-06  0.169E-03    1.85      26.5  T
  12     -8.8539627 -0.272430E-08  0.190E-04    1.85     235.8  T
  13     -8.8539627 -0.117613E-10  0.112E-04    1.85     400.7  T
     SCC iter.                  ...        0 min,  0.001 sec
     gradient                   ...        0 min,  0.001 sec
 * total energy  :    -8.6000153 Eh     change       -0.1475332E-01 Eh
   gradient norm :     0.2275624 Eh/α   predicted    -0.4085995E-01 ( 176.95%)
   displ. norm   :     0.4352174 α      lambda       -0.5127598E-01
   maximum displ.:     0.2843726 α      in ANC's #2, #1, #5, ...

........................................................................
.............................. CYCLE    4 ..............................
........................................................................
   1     -8.7766202 -0.877662E+01  0.195E+00    1.53       0.0  T
   2     -8.7111184  0.655018E-01  0.272E+00    1.77       1.0  T
   3     -8.7295200 -0.184016E-01  0.248E+00    1.34       1.0  T
   4     -8.7783689 -0.488489E-01  0.542E-01    1.52       1.0  T
   5     -8.7784490 -0.800944E-04  0.412E-01    1.53       1.0  T
   6     -8.7787226 -0.273615E-03  0.351E-01    1.53       1.0  T
   7     -8.7790649 -0.342268E-03  0.165E-01    1.55       1.0  T
   8     -8.7790865 -0.215964E-04  0.379E-02    1.56       1.2  T
   9     -8.7790979 -0.114580E-04  0.790E-03    1.55       5.7  T
  10     -8.7790983 -0.357756E-06  0.414E-03    1.55      10.8  T
  11     -8.7790984 -0.114819E-06  0.136E-03    1.55      32.8  T
  12     -8.7790984 -0.157707E-07  0.120E-04    1.55     371.5  T
  13     -8.7790984  0.532410E-10  0.998E-05    1.55     448.3  T
     SCC iter.                  ...        0 min,  0.001 sec
     gradient                   ...        0 min,  0.001 sec
 * total energy  :    -8.6142388 Eh     change       -0.1422347E-01 Eh
   gradient norm :     0.0933967 Eh/α   predicted    -0.3049418E-01 ( 114.39%)
   displ. norm   :     0.2450995 α      lambda       -0.1008931E-01
   maximum displ.:     0.1961884 α      in ANC's #3, #4, #2, ...

........................................................................
.............................. CYCLE    5 ..............................
........................................................................
   1     -8.7712242 -0.877122E+01  0.854E-01    1.58       0.0  T
   2     -8.7633730  0.785118E-02  0.108E+00    1.66       1.0  T
   3     -8.7553823  0.799072E-02  0.130E+00    1.50       1.0  T
   4     -8.7677129 -0.123306E-01  0.690E-01    1.59       1.0  T
   5     -8.7714645 -0.375157E-02  0.206E-01    1.57       1.0  T
   6     -8.7715191 -0.546303E-04  0.159E-01    1.57       1.0  T
   7     -8.7715577 -0.386027E-04  0.135E-01    1.57       1.0  T
   8     -8.7716565 -0.987925E-04  0.707E-03    1.58       6.3  T
   9     -8.7716553  0.121578E-05  0.130E-02    1.58       3.4  T
  10     -8.7716565 -0.120697E-05  0.243E-03    1.58      18.4  T
  11     -8.7716565 -0.337261E-07  0.546E-04    1.58      82.0  T
  12     -8.7716565 -0.602647E-10  0.545E-05    1.58     820.8  T
     SCC iter.                  ...        0 min,  0.001 sec
     gradient                   ...        0 min,  0.001 sec
 * total energy  :    -8.6155780 Eh     change       -0.1339226E-02 Eh
   gradient norm :     0.0521598 Eh/α   predicted    -0.5347709E-02 ( 299.31%)
   displ. norm   :     0.2702295 α      lambda       -0.7775065E-02
   maximum displ.:     0.2183499 α      in ANC's #1, #3, #6, ...

........................................................................
.............................. CYCLE    6 ..............................
........................................................................
   1     -8.7937254 -0.879373E+01  0.918E-01    1.53       0.0  T
   2     -8.7848802  0.884520E-02  0.997E-01    1.60       1.0  T
   3     -8.7719991  0.128811E-01  0.151E+00    1.39       1.0  T
   4     -8.7927970 -0.207979E-01  0.473E-01    1.56       1.0  T
   5     -8.7942507 -0.145365E-02  0.135E-01    1.53       1.0  T
   6     -8.7943249 -0.742844E-04  0.744E-02    1.53       1.0  T
   7     -8.7943283 -0.331214E-05  0.633E-02    1.53       1.0  T
   8     -8.7943389 -0.106707E-04  0.377E-03    1.54      11.9  T
   9     -8.7943389  0.368027E-08  0.163E-03    1.54      27.4  T
  10     -8.7943389 -0.702073E-08  0.637E-04    1.54      70.2  T
  11     -8.7943389 -0.132953E-09  0.532E-05    1.54     840.0  T
     SCC iter.                  ...        0 min,  0.001 sec
     gradient                   ...        0 min,  0.001 sec
 * total energy  :    -8.6196303 Eh     change       -0.4052253E-02 Eh
   gradient norm :     0.0319783 Eh/α   predicted    -0.4171419E-02 (   2.94%)
   displ. norm   :     0.1893620 α      lambda       -0.3514970E-02
   maximum displ.:     0.1339659 α      in ANC's #2, #6, #4, ...

........................................................................
.............................. CYCLE    7 ..............................
........................................................................
   1     -8.8090162 -0.880902E+01  0.817E-01    1.68       0.0  T
   2     -8.7936614  0.153548E-01  0.124E+00    1.79       1.0  T
   3     -8.7975715 -0.391015E-02  0.117E+00    1.60       1.0  T
   4     -8.8095733 -0.120018E-01  0.210E-01    1.69       1.0  T
   5     -8.8096350 -0.617481E-04  0.139E-01    1.71       1.0  T
   6     -8.8096636 -0.285903E-04  0.115E-01    1.70       1.0  T
   7     -8.8096877 -0.241016E-04  0.457E-02    1.71       1.0  T
   8     -8.8096989 -0.111196E-04  0.837E-03    1.70       5.3  T
   9     -8.8096990 -0.153090E-06  0.279E-03    1.70      16.0  T
  10     -8.8096990 -0.140456E-07  0.804E-04    1.70      55.7  T
  11     -8.8096990  0.112385E-09  0.451E-04    1.70      99.2  T
     SCC iter.                  ...        0 min,  0.001 sec
     gradient                   ...        0 min,  0.001 sec
 * total energy  :    -8.6210664 Eh     change       -0.1436163E-02 Eh
   gradient norm :     0.0260750 Eh/α   predicted    -0.1820506E-02 (  26.76%)
   displ. norm   :     0.4112235 α      lambda       -0.3062850E-02
   maximum displ.:     0.3838544 α      in ANC's #1, #6, #3, ...

........................................................................
.............................. CYCLE    8 ..............................
........................................................................
   1     -8.7826449 -0.878264E+01  0.154E+00    1.61       0.0  T
   2     -8.7826302  0.147016E-04  0.941E-01    1.59       1.0  T
   3     -8.7739211  0.870910E-02  0.905E-01    1.52       1.0  T
   4     -8.7793241 -0.540300E-02  0.540E-01    1.64       1.0  T
   5     -8.7827017 -0.337753E-02  0.126E-01    1.57       1.0  T
   6     -8.7827834 -0.817547E-04  0.589E-02    1.57       1.0  T
   7     -8.7827861 -0.266557E-05  0.256E-02    1.57       1.7  T
   8     -8.7827882 -0.208640E-05  0.489E-03    1.57       9.1  T
   9     -8.7827882 -0.372414E-08  0.165E-03    1.57      27.2  T
  10     -8.7827882 -0.802358E-08  0.125E-04    1.57     359.0  T
  11     -8.7827882 -0.528413E-10  0.498E-05    1.57     897.4  T
     SCC iter.                  ...        0 min,  0.001 sec
     gradient                   ...        0 min,  0.001 sec
 * total energy  :    -8.6206689 Eh     change        0.3975353E-03 Eh
   gradient norm :     0.0688771 Eh/α   predicted    -0.1790392E-02 (-550.37%)
   displ. norm   :     0.1523656 α      lambda       -0.5767328E-02
   maximum displ.:     0.1196518 α      in ANC's #1, #4, #5, ...

........................................................................
.............................. CYCLE    9 ..............................
........................................................................
   1     -8.8049541 -0.880495E+01  0.683E-01    1.60       0.0  T
   2     -8.7983232  0.663085E-02  0.901E-01    1.69       1.0  T
   3     -8.8012751 -0.295184E-02  0.670E-01    1.56       1.0  T
   4     -8.8049236 -0.364852E-02  0.243E-01    1.61       1.0  T
   5     -8.8052678 -0.344243E-03  0.908E-02    1.62       1.0  T
   6     -8.8052945 -0.266503E-04  0.513E-02    1.62       1.0  T
   7     -8.8053009 -0.639135E-05  0.259E-02    1.61       1.7  T
   8     -8.8053059 -0.502107E-05  0.330E-03    1.61      13.6  T
   9     -8.8053059 -0.352293E-07  0.695E-04    1.61      64.4  T
  10     -8.8053059 -0.172990E-08  0.227E-04    1.61     197.4  T
     SCC iter.                  ...        0 min,  0.001 sec
     gradient                   ...        0 min,  0.001 sec
 * total energy  :    -8.6231180 Eh     change       -0.2449089E-02 Eh
   gradient norm :     0.0131906 Eh/α   predicted    -0.2950609E-02 (  20.48%)
   displ. norm   :     0.1034827 α      lambda       -0.7958822E-03
   maximum displ.:     0.0778745 α      in ANC's #1, #6, #2, ...

........................................................................
.............................. CYCLE   10 ..............................
........................................................................
   1     -8.8053678 -0.880537E+01  0.380E-01    1.59       0.0  T
   2     -8.8053183  0.495652E-04  0.248E-01    1.58       1.0  T
   3     -8.8018298  0.348849E-02  0.550E-01    1.64       1.0  T
   4     -8.8047125 -0.288278E-02  0.256E-01    1.57       1.0  T
   5     -8.8053833 -0.670761E-03  0.183E-02    1.58       2.4  T
   6     -8.8053843 -0.967381E-06  0.110E-02    1.58       4.1  T
   7     -8.8053844 -0.154634E-06  0.289E-03    1.58      15.5  T
   8     -8.8053844 -0.182936E-08  0.104E-03    1.58      42.8  T
   9     -8.8053844 -0.381420E-08  0.224E-04    1.58     200.0  T
  10     -8.8053844 -0.138240E-09  0.356E-05    1.58    1257.0  T
     SCC iter.                  ...        0 min,  0.001 sec
     gradient                   ...        0 min,  0.001 sec
 * total energy  :    -8.6237199 Eh     change       -0.6019552E-03 Eh
   gradient norm :     0.0063484 Eh/α   predicted    -0.4022015E-03 ( -33.18%)
   displ. norm   :     0.1997885 α      lambda       -0.7134106E-03
   maximum displ.:     0.1649026 α      in ANC's #1, #6, #7, ...

........................................................................
.............................. CYCLE   11 ..............................
........................................................................
   1     -8.7992858 -0.879929E+01  0.652E-01    1.52       0.0  T
   2     -8.7981592  0.112660E-02  0.498E-01    1.48       1.0  T
   3     -8.7775816  0.205776E-01  0.135E+00    1.63       1.0  T
   4     -8.7992538 -0.216722E-01  0.124E-01    1.50       1.0  T
   5     -8.7993537 -0.998573E-04  0.403E-02    1.50       1.1  T
   6     -8.7993571 -0.342822E-05  0.252E-02    1.50       1.8  T
   7     -8.7993573 -0.252624E-06  0.526E-03    1.50       8.5  T
   8     -8.7993575 -0.121462E-06  0.242E-03    1.50      18.5  T
   9     -8.7993575 -0.219110E-08  0.707E-04    1.50      63.2  T
  10     -8.7993575 -0.206481E-08  0.156E-04    1.50     285.8  T
     SCC iter.                  ...        0 min,  0.001 sec
     gradient                   ...        0 min,  0.001 sec
 * total energy  :    -8.6239614 Eh     change       -0.2414700E-03 Eh
   gradient norm :     0.0191795 Eh/α   predicted    -0.3709433E-03 (  53.62%)
   displ. norm   :     0.0461386 α      lambda       -0.3019855E-03
   maximum displ.:     0.0391548 α      in ANC's #1, #2, #3, ...

........................................................................
.............................. CYCLE   12 ..............................
........................................................................
   1     -8.8062165 -0.880622E+01  0.175E-01    1.54       0.0  T
   2     -8.8059353  0.281209E-03  0.195E-01    1.55       1.0  T
   3     -8.8057098  0.225480E-03  0.224E-01    1.52       1.0  T
   4     -8.8062142 -0.504403E-03  0.537E-02    1.55       1.0  T
   5     -8.8062317 -0.175368E-04  0.181E-02    1.54       2.5  T
   6     -8.8062318 -0.210161E-07  0.142E-02    1.54       3.1  T
   7     -8.8062331 -0.135870E-05  0.173E-03    1.54      25.8  T
   8     -8.8062331 -0.126023E-07  0.432E-04    1.54     103.5  T
   9     -8.8062331 -0.653714E-09  0.975E-05    1.54     458.5  T
     SCC iter.                  ...        0 min,  0.001 sec
     gradient                   ...        0 min,  0.001 sec
 * total energy  :    -8.6241017 Eh     change       -0.1402712E-03 Eh
   gradient norm :     0.0053109 Eh/α   predicted    -0.1513141E-03 (   7.87%)
   displ. norm   :     0.0360982 α      lambda       -0.7565750E-04
   maximum displ.:     0.0246674 α      in ANC's #1, #2, #4, ...

........................................................................
.............................. CYCLE   13 ..............................
........................................................................
   1     -8.8056712 -0.880567E+01  0.108E-01    1.53       0.0  T
   2     -8.8056679  0.335530E-05  0.689E-02    1.53       1.0  T
   3     -8.8052245  0.443355E-03  0.191E-01    1.54       1.0  T
   4     -8.8056708 -0.446240E-03  0.116E-02    1.53       3.9  T
   5     -8.8056717 -0.898882E-06  0.449E-03    1.53      10.0  T
   6     -8.8056717 -0.255329E-07  0.104E-03    1.53      43.2  T
   7     -8.8056717 -0.937517E-09  0.300E-04    1.53     149.2  T
   8     -8.8056717 -0.619806E-10  0.113E-04    1.53     396.9  T
     SCC iter.                  ...        0 min,  0.001 sec
     gradient                   ...        0 min,  0.001 sec
 * total energy  :    -8.6241644 Eh     change       -0.6271534E-04 Eh
   gradient norm :     0.0045157 Eh/α   predicted    -0.3787666E-04 ( -39.61%)
   displ. norm   :     0.1107914 α      lambda       -0.1798216E-03
   maximum displ.:     0.0773192 α      in ANC's #1, #2, #7, ...

........................................................................
.............................. CYCLE   14 ..............................
........................................................................
   1     -8.8034332 -0.880343E+01  0.357E-01    1.51       0.0  T
   2     -8.8033729  0.603538E-04  0.227E-01    1.50       1.0  T
   3     -8.7973119  0.606100E-02  0.704E-01    1.57       1.0  T
   4     -8.8034245 -0.611264E-02  0.445E-02    1.50       1.0  T
   5     -8.8034390 -0.144254E-04  0.153E-02    1.50       2.9  T
   6     -8.8034393 -0.334214E-06  0.911E-03    1.50       4.9  T
   7     -8.8034395 -0.224063E-06  0.324E-03    1.50      13.8  T
   8     -8.8034395 -0.187130E-07  0.880E-04    1.50      50.8  T
   9     -8.8034395 -0.397995E-09  0.314E-04    1.50     142.3  T
     SCC iter.                  ...        0 min,  0.001 sec
     gradient                   ...        0 min,  0.001 sec
 * total energy  :    -8.6242637 Eh     change       -0.9933210E-04 Eh
   gradient norm :     0.0040858 Eh/α   predicted    -0.9101598E-04 (  -8.37%)
   displ. norm   :     0.0230847 α      lambda       -0.3651314E-04
   maximum displ.:     0.0172990 α      in ANC's #2, #7, #3, ...

........................................................................
.............................. CYCLE   15 ..............................
........................................................................
   1     -8.8041663 -0.880417E+01  0.878E-02    1.50       0.0  T
   2     -8.8041658  0.526164E-06  0.529E-02    1.50       1.0  T
   3     -8.8041520  0.138256E-04  0.501E-02    1.50       1.0  T
   4     -8.8041643 -0.123822E-04  0.153E-02    1.50       2.9  T
   5     -8.8041663 -0.194635E-05  0.917E-03    1.50       4.9  T
   6     -8.8041672 -0.884020E-06  0.211E-03    1.50      21.2  T
   7     -8.8041672 -0.122488E-07  0.325E-04    1.50     137.8  T
   8     -8.8041672 -0.604370E-09  0.112E-04    1.50     399.6  T
     SCC iter.                  ...        0 min,  0.001 sec
     gradient                   ...        0 min,  0.001 sec
 * total energy  :    -8.6242930 Eh     change       -0.2923284E-04 Eh
   gradient norm :     0.0031534 Eh/α   predicted    -0.1826715E-04 ( -37.51%)
   displ. norm   :     0.0645425 α      lambda       -0.7293126E-04
   maximum displ.:     0.0489067 α      in ANC's #2, #7, #3, ...

........................................................................
.............................. CYCLE   16 ..............................
........................................................................
   1     -8.8041831 -0.880418E+01  0.279E-01    1.49       0.0  T
   2     -8.8041709  0.121852E-04  0.173E-01    1.48       1.0  T
   3     -8.8032329  0.938053E-03  0.293E-01    1.51       1.0  T
   4     -8.8037431 -0.510208E-03  0.197E-01    1.47       1.0  T
   5     -8.8041904 -0.447348E-03  0.114E-02    1.48       3.9  T
   6     -8.8041907 -0.241121E-06  0.683E-03    1.48       6.5  T
   7     -8.8041908 -0.863577E-07  0.164E-03    1.48      27.2  T
   8     -8.8041908 -0.121578E-07  0.513E-04    1.48      87.2  T
   9     -8.8041908 -0.799094E-10  0.158E-04    1.48     282.6  T
     SCC iter.                  ...        0 min,  0.001 sec
     gradient                   ...        0 min,  0.001 sec
 * total energy  :    -8.6243475 Eh     change       -0.5451913E-04 Eh
   gradient norm :     0.0035171 Eh/α   predicted    -0.3661653E-04 ( -32.84%)
   displ. norm   :     0.0843526 α      lambda       -0.7591429E-04
   maximum displ.:     0.0672987 α      in ANC's #2, #7, #3, ...

........................................................................
.............................. CYCLE   17 ..............................
........................................................................
   1     -8.8030618 -0.880306E+01  0.395E-01    1.46       0.0  T
   2     -8.8030542  0.767993E-05  0.241E-01    1.45       1.0  T
   3     -8.8022710  0.783193E-03  0.279E-01    1.48       1.0  T
   4     -8.8024294 -0.158447E-03  0.231E-01    1.43       1.0  T
   5     -8.8030713 -0.641846E-03  0.155E-02    1.45       2.9  T
   6     -8.8030716 -0.383902E-06  0.969E-03    1.45       4.6  T
   7     -8.8030718 -0.163651E-06  0.195E-03    1.45      23.0  T
   8     -8.8030718 -0.176066E-07  0.699E-04    1.45      64.0  T
   9     -8.8030718 -0.131610E-09  0.212E-04    1.45     210.8  T
     SCC iter.                  ...        0 min,  0.001 sec
     gradient                   ...        0 min,  0.001 sec
 * total energy  :    -8.6244031 Eh     change       -0.5558871E-04 Eh
   gradient norm :     0.0029500 Eh/α   predicted    -0.3822894E-04 ( -31.23%)
   displ. norm   :     0.0816952 α      lambda       -0.5687877E-04
   maximum displ.:     0.0607069 α      in ANC's #2, #7, #1, ...

........................................................................
.............................. CYCLE   18 ..............................
........................................................................
   1     -8.8020995 -0.880210E+01  0.386E-01    1.42       0.0  T
   2     -8.8020741  0.254186E-04  0.235E-01    1.42       1.0  T
   3     -8.7988057  0.326842E-02  0.527E-01    1.38       1.0  T
   4     -8.8019713 -0.316558E-02  0.117E-01    1.43       1.0  T
   5     -8.8021062 -0.134884E-03  0.134E-02    1.42       3.3  T
   6     -8.8021064 -0.241020E-06  0.862E-03    1.42       5.2  T
   7     -8.8021065 -0.141365E-06  0.178E-03    1.42      25.1  T
   8     -8.8021066 -0.517313E-08  0.642E-04    1.42      69.6  T
   9     -8.8021066 -0.166834E-09  0.163E-04    1.42     275.2  T
     SCC iter.                  ...        0 min,  0.001 sec
     gradient                   ...        0 min,  0.001 sec
 * total energy  :    -8.6244389 Eh     change       -0.3584448E-04 Eh
   gradient norm :     0.0028269 Eh/α   predicted    -0.2862919E-04 ( -20.13%)
   displ. norm   :     0.0335620 α      lambda       -0.1609893E-04
   maximum displ.:     0.0206747 α      in ANC's #1, #2, #7, ...

........................................................................
.............................. CYCLE   19 ..............................
........................................................................
   1     -8.8020883 -0.880209E+01  0.152E-01    1.41       0.0  T
   2     -8.8020422  0.461747E-04  0.107E-01    1.42       1.0  T
   3     -8.8006089  0.143326E-02  0.355E-01    1.38       1.0  T
   4     -8.8020891 -0.148024E-02  0.156E-02    1.41       2.9  T
   5     -8.8020906 -0.149141E-05  0.461E-03    1.41       9.7  T
   6     -8.8020906 -0.750659E-08  0.295E-03    1.41      15.1  T
   7     -8.8020907 -0.265221E-07  0.759E-04    1.41      58.9  T
   8     -8.8020907 -0.112837E-08  0.285E-04    1.41     157.2  T
     SCC iter.                  ...        0 min,  0.001 sec
     gradient                   ...        0 min,  0.001 sec
 * total energy  :    -8.6244495 Eh     change       -0.1056829E-04 Eh
   gradient norm :     0.0014497 Eh/α   predicted    -0.8059458E-05 ( -23.74%)
   displ. norm   :     0.0706951 α      lambda       -0.9472177E-05
   maximum displ.:     0.0549767 α      in ANC's #2, #7, #3, ...

........................................................................
.............................. CYCLE   20 ..............................
........................................................................
   1     -8.7994968 -0.879950E+01  0.336E-01    1.39       0.0  T
   2     -8.7994957  0.110728E-05  0.204E-01    1.39       1.0  T
   3     -8.7990272  0.468492E-03  0.197E-01    1.40       1.0  T
   4     -8.7994963 -0.469140E-03  0.221E-02    1.38       2.0  T
   5     -8.7994989 -0.256180E-05  0.944E-03    1.39       4.7  T
   6     -8.7994987  0.144138E-06  0.717E-03    1.39       6.2  T
   7     -8.7994990 -0.253672E-06  0.994E-04    1.39      45.0  T
   8     -8.7994990 -0.975923E-09  0.546E-04    1.39      81.9  T
     SCC iter.                  ...        0 min,  0.001 sec
     gradient                   ...        0 min,  0.001 sec
 * total energy  :    -8.6244411 Eh     change        0.8420480E-05 Eh
   gradient norm :     0.0062308 Eh/α   predicted    -0.4744969E-05 (-156.35%)
   displ. norm   :     0.0226213 α      lambda       -0.2419664E-04
   maximum displ.:     0.0183995 α      in ANC's #2, #7, #3, ...
 * RMSD in coord.:     0.8487729 α      energy gain  -0.1111907E+00 Eh

generating ANC from model Hessian ...
Using Lindh-Hessian (1995)
 Shifting diagonal of input Hessian by    8.8632392237868521E-003
 Lowest  eigenvalues of input Hessian
   -0.000000   -0.000000   -0.000000    0.000000    0.000000    0.000000
    0.010000    0.012203    0.101905    0.174198    0.417811    0.455979
    1.161573    1.558889    2.298370
 Highest eigenvalues
    0.174198    0.417811    0.455979    1.161573    1.558889    2.298370


........................................................................
.............................. CYCLE   21 ..............................
........................................................................
   1     -8.8011515 -0.880115E+01  0.106E-01    1.40       0.0  T
   2     -8.8011077  0.437785E-04  0.899E-02    1.40       1.0  T
   3     -8.8006189  0.488817E-03  0.213E-01    1.38       1.0  T
   4     -8.8011530 -0.534050E-03  0.121E-02    1.40       3.7  T
   5     -8.8011536 -0.618939E-06  0.461E-03    1.40       9.7  T
   6     -8.8011536  0.254571E-08  0.430E-03    1.40      10.4  T
   7     -8.8011537 -0.880789E-07  0.720E-04    1.40      62.1  T
   8     -8.8011537 -0.107789E-08  0.325E-04    1.40     137.7  T
     SCC iter.                  ...        0 min,  0.001 sec
     gradient                   ...        0 min,  0.001 sec
 * total energy  :    -8.6244546 Eh     change       -0.1354488E-04 Eh
   gradient norm :     0.0021596 Eh/α   predicted     0.0000000E+00 (-100.00%)
   displ. norm   :     0.0174345 α      lambda       -0.7073525E-05
   maximum displ.:     0.0152351 α      in ANC's #1, #2, #5, ...

........................................................................
.............................. CYCLE   22 ..............................
........................................................................
   1     -8.8017432 -0.880174E+01  0.770E-02    1.40       0.0  T
   2     -8.8017427  0.499217E-06  0.471E-02    1.40       1.0  T
   3     -8.8016969  0.458067E-04  0.671E-02    1.41       1.0  T
   4     -8.8017098 -0.128949E-04  0.536E-02    1.40       1.0  T
   5     -8.8017436 -0.338884E-04  0.275E-03    1.40      16.3  T
   6     -8.8017437 -0.194121E-07  0.140E-03    1.40      31.8  T
   7     -8.8017437 -0.277463E-08  0.213E-04    1.40     210.1  T
   8     -8.8017437 -0.364153E-10  0.668E-05    1.40     669.4  T
     SCC iter.                  ...        0 min,  0.001 sec
     gradient                   ...        0 min,  0.001 sec
 * total energy  :    -8.6244562 Eh     change       -0.1633281E-05 Eh
   gradient norm :     0.0009422 Eh/α   predicted    -0.3538626E-05 ( 116.66%)
   displ. norm   :     0.0909259 α      lambda       -0.2566039E-04
   maximum displ.:     0.0869562 α      in ANC's #2, #1, #5, ...

   *** GEOMETRY OPTIMIZATION CONVERGED AFTER 22 ITERATIONS ***

------------------------------------------------------------------------
 total energy gain   :        -0.1112059 Eh      -69.7827 kcal/mol
 total RMSD          :         0.8502891 a0        0.4500 Å
 total power (kW/mol):       -13.2714069 (step)-4045.1579 (real)
------------------------------------------------------------------------

 ANCopt (total)                0 d,  0 h,  0 min,  0.072 sec
 optimizer setup                ...        0 min,  0.000 sec (  0.116%)
 model hessian                  ...        0 min,  0.000 sec (  0.193%)
 ANC generation                 ...        0 min,  0.000 sec (  0.151%)
 coordinate transformation      ...        0 min,  0.000 sec (  0.084%)
 single point calculation       ...        0 min,  0.070 sec ( 96.784%)
 optimization log               ...        0 min,  0.001 sec (  0.864%)
 hessian update                 ...        0 min,  0.000 sec (  0.071%)
 rational function              ...        0 min,  0.001 sec (  0.736%)

================
 final structure:
================
5
 xtb: 6.2.2 (9d81278992624c895f80dd42a50cac0aa55982e2)
C        -1.21436572206319    1.23156324922899    0.19602700308817
C        -0.53197532535960    0.06614014274076    0.02686956415744
C         0.83661863766634   -0.03895276696982    0.03829574795220
C         2.01900769704342   -0.40968646299376   -0.09647551812370
H        -1.10928528728697   -0.84906416200619   -0.16471679707412

 Bond Distances (Angstroems)
 ---------------------------
C1-C2=1.3611         C2-C1=1.3611         C2-C3=1.3727         C2-H5=1.0989         C3-C2=1.3727         C3-C4=1.2465         
C4-C3=1.2465         H5-C2=1.0989         
 C  H  Rav=1.0989 sigma=0.0000  Rmin=1.0989  Rmax=1.0989     1
 C  C  Rav=1.3267 sigma=0.0570  Rmin=1.2465  Rmax=1.3727     3

 selected bond angles (degree)
 --------------------
C3-C2-C1=124.36                H5-C2-C1=118.13                H5-C2-C3=117.48                C4-C3-C2=165.39                

 selected dihedral angles (degree)
 ---------------------------------
C4-C3-C2-C1=198.43            C4-C3-C2-H5= 16.34            
           -------------------------------------------------
          |                Final Singlepoint                |
           -------------------------------------------------

          ...................................................
          :                      SETUP                      :
          :.................................................:
          :  # basis functions                  17          :
          :  # atomic orbitals                  17          :
          :  # shells                            9          :
          :  # electrons                        17          :
          :  max. iterations                   250          :
          :  Hamiltonian                  GFN2-xTB          :
          :  restarted?                      false          :
          :  GBSA solvation                  false          :
          :  PC potential                    false          :
          :  electronic temp.          300.0000000     K    :
          :  accuracy                    1.0000000          :
          :  -> integral cutoff          0.2500000E+02      :
          :  -> integral neglect         0.1000000E-07      :
          :  -> SCF convergence          0.1000000E-05 Eh   :
          :  -> wf. convergence          0.1000000E-03 e    :
          :  Broyden damping             0.4000000          :
          ...................................................

 iter      E             dE          RMSdq      gap      omega  full diag
   1     -8.8017437 -0.880174E+01  0.128E-05    1.40       0.0  T
   2     -8.8017437  0.281553E-11  0.150E-05    1.40    2991.1  T
   3     -8.8017437  0.470379E-11  0.274E-05    1.40    1634.0  T

   *** convergence criteria satisfied after 3 iterations ***

         #    Occupation            Energy/Eh            Energy/eV
      -------------------------------------------------------------
         1        2.0000           -0.6783495             -18.4588
       ...           ...                  ...                  ...
         4        2.0000           -0.5651184             -15.3777
         5        2.0000           -0.5080010             -13.8234
         6        2.0000           -0.4669783             -12.7071
         7        1.9999           -0.4474502             -12.1757
         8        1.0001           -0.4296316             -11.6909
         9        1.0000           -0.4219003             -11.4805
        10        1.0000           -0.3435218              -9.3477 (HOMO)
        11                         -0.2921137              -7.9488 (LUMO)
        12                         -0.2260889              -6.1522
        13                         -0.1605002              -4.3674
        14                          0.1316325               3.5819
        15                          0.2556919               6.9577
       ...                                ...                  ...
        17                          1.0084409              27.4411
      -------------------------------------------------------------
                  HL-Gap            0.0514081 Eh            1.3989 eV
             Fermi-level           -0.3781794 Eh          -10.2908 eV

 SCC (total)                   0 d,  0 h,  0 min,  0.003 sec
 SCC setup                      ...        0 min,  0.000 sec (  2.064%)
 Dispersion                     ...        0 min,  0.000 sec (  0.441%)
 integral evaluation            ...        0 min,  0.001 sec ( 40.954%)
 zeroth order Hamiltonian       ...        0 min,  0.000 sec (  0.635%)
 iterations                     ...        0 min,  0.000 sec ( 11.899%)
 molecular gradient             ...        0 min,  0.001 sec ( 40.628%)
 printout                       ...        0 min,  0.000 sec (  3.070%)

         :::::::::::::::::::::::::::::::::::::::::::::::::::::
         ::                     SUMMARY                     ::
         :::::::::::::::::::::::::::::::::::::::::::::::::::::
         :: total energy              -8.624456242035 Eh    ::
         :: gradient norm              0.000942255641 Eh/a0 ::
         :: HOMO-LUMO gap              1.398886111869 eV    ::
         ::.................................................::
         :: SCC energy                -8.801743671159 Eh    ::
         :: -> isotropic ES           -0.010623354024 Eh    ::
         :: -> anisotropic ES         -0.001078364003 Eh    ::
         :: -> anisotropic XC          0.010653605280 Eh    ::
         :: -> dispersion             -0.002288602140 Eh    ::
         :: repulsion energy           0.177287375609 Eh    ::
         :: add. restraining           0.000000000000 Eh    ::
         :::::::::::::::::::::::::::::::::::::::::::::::::::::

           ------------------------------------------------- 
          |                Numerical Hessian                |
           ------------------------------------------------- 
step length          :   0.00500
SCC accuracy         :   0.30000
Hessian scale factor :   1.00000
frozen atoms in %    :   0.00000    0
RMS gradient         :   0.00094
estimated CPU  time      0.00 min
estimated wall time      0.00 min

writing file <hessian>.

 projected vibrational frequencies (cm-1)
eigval :       -0.00    -0.00    -0.00     0.00     0.00     0.00
eigval :       53.40   217.38   508.78   722.37  1043.91  1136.87
eigval :     1308.79  1813.17  2794.09
           -------------------------------------------------
          |                Property Printout                |
           -------------------------------------------------

    * Orbital Energies and Occupations

         #    Occupation            Energy/Eh            Energy/eV
      -------------------------------------------------------------
         1        2.0000           -0.6783494             -18.4588
         2        2.0000           -0.6580796             -17.9073
         3        2.0000           -0.6029718             -16.4077
         4        2.0000           -0.5651182             -15.3776
         5        2.0000           -0.5080009             -13.8234
         6        2.0000           -0.4669783             -12.7071
         7        1.9999           -0.4474504             -12.1757
         8        1.0001           -0.4296316             -11.6909
         9        1.0000           -0.4219003             -11.4805
        10        1.0000           -0.3435215              -9.3477 (HOMO)
        11                         -0.2921136              -7.9488 (LUMO)
        12                         -0.2260892              -6.1522
        13                         -0.1605002              -4.3674
        14                          0.1316326               3.5819
        15                          0.2556919               6.9577
        16                          0.4519148              12.2972
        17                          1.0084408              27.4411
      -------------------------------------------------------------
Molecule has no symmetry elements
It seems to be the C1 point group
                  HL-Gap            0.0514079 Eh            1.3989 eV
             Fermi-level           -0.3781793 Eh          -10.2908 eV

     #   Z        covCN         q      C6AA      α(0)
     1   6 C      0.994    -0.127    40.115    10.645
     2   6 C      2.885     0.065    26.543     8.446
     3   6 C      1.974     0.055    29.676     8.797
     4   6 C      0.982    -0.101    39.133    10.507
     5   1 H      0.923     0.109     1.707     2.043

 Mol. C6AA /au·bohr⁶  :        599.831216
 Mol. C8AA /au·bohr⁸  :      16700.558652
 Mol. α(0) /au        :         40.439210


Wiberg/Mayer (AO) data.
largest (>0.10) Wiberg bond orders for each atom
          total WBO             WBO to atom ...
     1  C   1.635        C    2 1.408    C    4 0.127
     2  C   3.676        C    1 1.408    C    3 1.324    H    5 0.866
     3  C   3.674        C    4 2.247    C    2 1.324
     4  C   2.479        C    3 2.247    C    1 0.127
     5  H   0.904        C    2 0.866

MOs/occ written to file <molden.input>


molecular dipole:
                 x           y           z       tot (Debye)
 q only:       -0.301      -0.388      -0.055
   full:       -0.475      -0.487      -0.034       1.730
molecular quadrupole (traceless):
                xx          xy          yy          xz          yz          zz
 q only:       -1.222       1.994       0.267       0.379      -0.104       0.955
  q+dip:       -1.202       3.571       0.321       0.716      -0.020       0.881
   full:       -3.448       4.595       0.198       0.938      -0.532       3.250

           -------------------------------------------------
          |                Geometry Summary                 |
           -------------------------------------------------

      molecular mass/u    :       49.0508844
   center of mass at/Å    :        0.2488292       0.1904557       0.0369471
  moments of inertia/u·Å² :        0.6522655E+01   0.9000333E+02   0.9645959E+02
rotational constants/cm⁻¹ :        0.2584474E+01   0.1873001E+00   0.1747637E+00

 * 3 selected distances

     #   Z        #   Z                                     value/Å
     2   6 C      3   6 C                                 1.3726706 (max)
     3   6 C      4   6 C                                 1.2464552
     2   6 C      5   1 H                                 1.0989045 (min)

 * 2 distinct bonds (by element types)

   Z      Z             #   av. dist./Å        max./Å        min./Å
   1 H    6 C           1     1.0989045     1.0989045     1.0989045
   6 C    6 C           2     1.3095629     1.3726706     1.2464552

           -------------------------------------------------
          |               Frequency Printout                |
           -------------------------------------------------
 projected vibrational frequencies (cm-1)
eigval :       -0.00    -0.00    -0.00     0.00     0.00     0.00
eigval :       53.40   217.38   508.78   722.37  1043.91  1136.87
eigval :     1308.79  1813.17  2794.09
 reduced masses (amu)
   1: 11.70   2: 11.00   3: 11.93   4: 10.00   5: 11.84   6: 10.59   7: 10.78   8: 11.47
   9: 11.80  10:  6.56  11:  9.00  12:  4.75  13: 12.00  14: 11.97  15:  1.74
 IR intensities (amu)
   1:  0.10   2:  0.10   3:  0.07   4:  0.27   5:  0.07   6:  0.12   7:  0.41   8:  0.29
   9:  0.14  10:  0.16  11:  0.22  12:  0.25  13:  1.43  14:  2.05  15:  0.06
 Raman intensities (amu)
   1:  0.00   2:  0.00   3:  0.00   4:  0.00   5:  0.00   6:  0.00   7:  0.00   8:  0.00
   9:  0.00  10:  0.00  11:  0.00  12:  0.00  13:  0.00  14:  0.00  15:  0.00
 output can be read by thermo (or use thermo option).
 writing <g98.out> molden fake output.
 recommended (thermochemical) frequency scaling factor: 1.0
           -------------------------------------------------
          |             Thermodynamic Functions             |
           -------------------------------------------------

c1  symmetry found (for desy threshold:  0.10E+00) used in thermo

          ...................................................
          :                      SETUP                      :
          :.................................................:
          :  # frequencies                           9      :
          :  # imaginary freq.                       0      :
          :  linear?                             false      :
          :  only rotor calc.                    false      :
          :  symmetry                               c1      :
          :  rotational number                       1      :
          :  scaling factor                  1.0000000      :
          :  rotor cutoff                   50.0000000 cm⁻¹ :
          :  imag. cutoff                  -20.0000000 cm⁻¹ :
          :.................................................:

    mode    ω/cm⁻¹     T·S(HO)/kcal·mol⁻¹    T·S(FR)/kcal·mol⁻¹   T·S(vib)
   ------------------------------------------------------------------------
       1     53.40    -0.00008 ( 56.55%)    -0.00100 ( 43.45%)    -0.00048
       2    217.38    -0.00000 ( 99.72%)     0.01291 (  0.28%)     0.00004
   ------------------------------------------------------------------------

   temp. (K)  partition function   enthalpy   heat capacity  entropy
                                   cal/mol     cal/K/mol   cal/K/mol   J/K/mol
 298.15  VIB   7.74                 1097.011      6.558      7.220
         ROT  0.182E+05              888.752      2.981     22.472
         INT  0.141E+06             1985.764      9.539     29.692
         TR   0.332E+27             1481.254      4.968     37.578
         TOT                        3467.0174    14.5074    67.2693   281.4547

   temp. (K)  partition function   enthalpy   heat capacity  entropy
                                   cal/mol     cal/K/mol   cal/K/mol   J/K/mol
 120.00  VIB   2.29                  223.385      3.276      3.362
         ROT  0.464E+04              357.707      2.981     19.759
         INT  0.106E+05              581.092      6.257     23.121
         TR   0.849E+26              596.178      4.968     33.058
         TOT                        1177.2702    11.2253    56.1794   235.0548

   temp. (K)  partition function   enthalpy   heat capacity  entropy
                                   cal/mol     cal/K/mol   cal/K/mol   J/K/mol
 100.00  VIB   1.95                  161.574      2.901      2.872
         ROT  0.353E+04              298.089      2.981     19.216
         INT  0.689E+04              459.663      5.882     22.088
         TR   0.646E+26              496.815      4.968     32.153
         TOT                         956.4779    10.8504    54.2405   226.9424

   temp. (K)  partition function   enthalpy   heat capacity  entropy
                                   cal/mol     cal/K/mol   cal/K/mol   J/K/mol
  80.00  VIB   1.65                  107.547      2.494      2.356
         ROT  0.253E+04              238.471      2.981     18.550
         INT  0.418E+04              346.018      5.475     20.906
         TR   0.462E+26              397.452      4.968     31.045
         TOT                         743.4698    10.4429    51.9509   217.3625

   temp. (K)  partition function   enthalpy   heat capacity  entropy
                                   cal/mol     cal/K/mol   cal/K/mol   J/K/mol
  60.00  VIB   1.39                   62.166      2.035      1.805
         ROT  0.164E+04              178.853      2.981     17.693
         INT  0.228E+04              241.019      5.016     19.498
         TR   0.300E+26              298.089      4.968     29.616
         TOT                         539.1082     9.9845    49.1147   205.4958

   temp. (K)  partition function   enthalpy   heat capacity  entropy
                                   cal/mol     cal/K/mol   cal/K/mol   J/K/mol
  40.00  VIB   1.17                   26.453      1.523      1.198
         ROT   893.                  119.236      2.981     16.484
         INT  0.105E+04              145.689      4.504     17.682
         TR   0.163E+26              198.726      4.968     27.603
         TOT                         344.4149     9.4722    45.2847   189.4712

   temp. (K)  partition function   enthalpy   heat capacity  entropy
                                   cal/mol     cal/K/mol   cal/K/mol   J/K/mol
  20.00  VIB   1.02                    3.348      0.657      0.460
         ROT   316.                   59.618      2.981     14.418
         INT   323.                   62.966      3.638     14.878
         TR   0.577E+25               99.363      4.968     24.161
         TOT                         162.3286     8.6063    39.0388   163.3385

   temp. (K)  partition function   enthalpy   heat capacity  entropy
                                   cal/mol     cal/K/mol   cal/K/mol   J/K/mol
  10.00  VIB   1.00                    0.070      0.054      0.044
         ROT   112.                   29.809      2.981     12.352
         INT   112.                   29.879      3.035     12.396
         TR   0.204E+25               49.681      4.968     20.719
         TOT                          79.5607     8.0031    33.1149   138.5526

       T/K    H(0)-H(T)+PV         H(T)/Eh          T*S/Eh         G(T)/Eh
   ------------------------------------------------------------------------
    298.15    0.552504E-02    0.273926E-01    0.319618E-01   -0.456917E-02
    120.00    0.187610E-02    0.237437E-01    0.107433E-01    0.130004E-01
    100.00    0.152424E-02    0.233918E-01    0.864378E-02    0.147481E-01
     80.00    0.118479E-02    0.230524E-01    0.662312E-02    0.164293E-01
     60.00    0.859124E-03    0.227267E-01    0.469615E-02    0.180306E-01
     40.00    0.548860E-03    0.224165E-01    0.288663E-02    0.195298E-01
     20.00    0.258687E-03    0.221263E-01    0.124425E-02    0.208820E-01
     10.00    0.126788E-03    0.219944E-01    0.527719E-03    0.214667E-01 (used)
   ------------------------------------------------------------------------

         :::::::::::::::::::::::::::::::::::::::::::::::::::::
         ::                  THERMODYNAMIC                  ::
         :::::::::::::::::::::::::::::::::::::::::::::::::::::
         :: total free energy          -8.602989569655 Eh   ::
         ::.................................................::
         :: total energy               -8.624456241946 Eh   ::
         :: zero point energy           0.021867603032 Eh   ::
         :: G(RRHO) w/o ZPVE           -0.000400930741 Eh   ::
         :: G(RRHO) contrib.            0.021466672291 Eh   ::
         :::::::::::::::::::::::::::::::::::::::::::::::::::::

optimized geometry written to: xtbopt.xyz


           -------------------------------------------------
          | TOTAL ENERGY               -8.624456241946 Eh   |
          | TOTAL ENTHALPY             -8.602461850853 Eh   |
          | TOTAL FREE ENERGY          -8.602989569655 Eh   |
          | GRADIENT NORM               0.000942304503 Eh/α |
          | HOMO-LUMO GAP               1.398880646624 eV   |
           -------------------------------------------------

------------------------------------------------------------------------
 * finished run on 2020/05/12 at 11:45:09.352     
------------------------------------------------------------------------
 total:
 * wall-time:     0 d,  0 h,  0 min,  0.189 sec
 *  cpu-time:     0 d,  0 h,  0 min,  0.188 sec
 * ratio c/w:     0.992 speedup
 SCF:
 * wall-time:     0 d,  0 h,  0 min,  0.005 sec
 *  cpu-time:     0 d,  0 h,  0 min,  0.005 sec
 * ratio c/w:     1.000 speedup
 ANC optimizer:
 * wall-time:     0 d,  0 h,  0 min,  0.076 sec
 *  cpu-time:     0 d,  0 h,  0 min,  0.076 sec
 * ratio c/w:     0.998 speedup
 numerical hessian:
 * wall-time:     0 d,  0 h,  0 min,  0.089 sec
 *  cpu-time:     0 d,  0 h,  0 min,  0.088 sec
 * ratio c/w:     0.998 speedup

