[Molden Format]
[Title]
[Atoms] AU
O      1     8  0.92187234706378E-01  0.76683510692012E+00 -0.16601607253022E-05
C      2     6  0.20773503484527E+01 -0.34384636531592E+00 -0.66512208083488E-05
O      3     8 -0.21695375831591E+01 -0.42298874160421E+00  0.83113815336694E-05
[GTO]
           1 0
 s           4   1.0000000000000000     
   69.137961906196551      -0.20478756370077797     
   11.906129132707308      -0.24997023136827334     
  0.95670827744340703       0.40025880240639616     
  0.36462520496073686       0.15952206667693555     
 p           4   1.0000000000000000     
   8.2124193257781641        1.1321556799186829     
   2.1293576997098116        1.0476840782254817     
  0.75066448202360914       0.54956508217158984     
  0.29885246543283073        8.2908486592766617E-002

           2 0
 s           4   1.0000000000000000     
   51.049363095579913      -0.16312063210127389     
   8.7911227406887544      -0.19911024581000730     
  0.70640422258929825       0.31882047753655751     
  0.26922813413411617       0.12706504184240380     
 p           4   1.0000000000000000     
   5.8263656140800002       0.73716451545209605     
   1.5106896018720002       0.68216371614850257     
  0.53256483288000001       0.35783053929253711     
  0.21202323690600003        5.3983030275847881E-002

           3 0
 s           4   1.0000000000000000     
   69.137961906196551      -0.20478756370077797     
   11.906129132707308      -0.24997023136827334     
  0.95670827744340703       0.40025880240639616     
  0.36462520496073686       0.15952206667693555     
 p           4   1.0000000000000000     
   8.2124193257781641        1.1321556799186829     
   2.1293576997098116        1.0476840782254817     
  0.75066448202360914       0.54956508217158984     
  0.29885246543283073        8.2908486592766617E-002

[MO]
Sym=     1a
Ene=  -0.84468293479907797     
Spin= Alpha
Occup=     2.00000000
           1 -0.71327815450770937     
           2 -0.12412591448932210     
           3  0.12218626430203108     
           4   1.8790148965068098E-007
           5 -0.25223374665712334     
           6  0.16115694334488756     
           7  -8.1077431446031661E-002
           8  -4.2786277637464689E-007
           9  -9.7711367947429267E-002
          10 -0.13524900134316889     
          11  -4.0817152592105117E-002
          12   5.4248779122048232E-007
Sym=     2a
Ene=  -0.78851620013053758     
Spin= Alpha
Occup=     2.00000000
           1  -7.6260518057528523E-002
           2  0.54447181696165348     
           3   7.2134546317601508E-002
           4  -2.0228492954652076E-006
           5  0.23371777981840844     
           6  -3.7009126552615013E-002
           7  0.10324788602364332     
           8  -4.7803457337982178E-008
           9 -0.51408533021012592     
          10 -0.18303947123599651     
          11 -0.14274762378386965     
          12   9.0317774936958383E-007
Sym=     3a
Ene=  -0.70844047762819129     
Spin= Alpha
Occup=     2.00000000
           1  0.42508535767304706     
           2 -0.16625651530987326     
           3  0.64841880164911569     
           4  -4.5492662826051981E-007
           5 -0.26439974246130943     
           6   8.8556860590517858E-002
           7  0.13864488777804135     
           8  -5.2168111096623473E-007
           9 -0.34712645423039473     
          10  -2.6461295033130629E-002
          11  0.24338621128550167     
          12  -2.8731611053376938E-007
Sym=     4a
Ene=  -0.68292188034702106     
Spin= Alpha
Occup=     2.00000000
           1   6.2907596290702118E-008
           2  -2.7525404446457301E-006
           3  -1.2823197776458578E-006
           4 -0.79105451488622824     
           5  -1.1237829289647642E-008
           6  -1.0519961922300588E-006
           7  -4.9359519050471141E-007
           8 -0.30425090158213264     
           9   4.0053328881209663E-009
          10  -1.1663094978607845E-006
          11  -5.4037008636139440E-007
          12 -0.32811918501848653     
Sym=     5a
Ene=  -0.65634000027720318     
Spin= Alpha
Occup=     2.00000000
           1   5.8532617418097883E-003
           2  0.24410713055382155     
           3  0.35377124609265620     
           4  -1.4115836616681121E-006
           5   6.0026083119372561E-002
           6   8.0289640143019175E-002
           7  0.17568317360248548     
           8  -5.5946448513571948E-007
           9  0.72725128850401499     
          10 -0.47387900296308993     
          11 -0.12354637395163651     
          12   1.8579009260728965E-006
Sym=     6a
Ene=  -0.53445191703171324     
Spin= Alpha
Occup=     2.00000000
           1  0.10665539551369185     
           2  0.11029090439035068     
           3  -1.2538563140656820E-002
           4  -3.5849773416031753E-007
           5 -0.66753036840425695     
           6 -0.39209155463979301     
           7  0.20164254544977356     
           8   1.0455271082973916E-006
           9   1.1259133507740727E-002
          10  0.13522841538782918     
          11 -0.57699411002741618     
          12   4.7389009909682789E-007
Sym=     7a
Ene=  -0.50480157078762578     
Spin= Alpha
Occup=     1.99998842
           1   1.7531318396872710E-008
           2  -8.3864357616571988E-007
           3  -4.2948324927151851E-007
           4 -0.24444870084079948     
           5  -5.5095287542995957E-008
           6  -1.3181825436520985E-006
           7  -6.3444471526088860E-007
           8 -0.36240226685888033     
           9   2.9894915816334965E-008
          10   3.1597518797799152E-006
          11   1.5733045754845175E-006
          12  0.91511055624294702     
Sym=     8a
Ene=  -0.48320450025259037     
Spin= Alpha
Occup=     1.00001158
           1   7.6859846291122927E-002
           2 -0.13819458245826788     
           3  0.30490659551848714     
           4  -6.8620251828400908E-008
           5  0.33755127585056255     
           6  0.46868790151080297     
           7  -1.8792940460926926E-002
           8  -1.6123697334452170E-006
           9   2.5262015473507666E-002
          10  0.45192865386010750     
          11 -0.64208882057604721     
          12  -4.1393010127328184E-007
Sym=     9a
Ene=  -0.39441340226720850     
Spin= Alpha
Occup=     1.00000000
           1  0.29232522508458175     
           2 -0.10014282767692805     
           3  0.27195362933174327     
           4  -1.3684105481960135E-007
           5   6.9281728235030177E-002
           6 -0.29012720146218840     
           7 -0.85149474956214932     
           8   2.5190640647361943E-006
           9 -0.10314737010273169     
          10 -0.33055369939226120     
          11 -0.26268187081554678     
          12   1.5833211736545883E-006
Sym=    10a
Ene=  -0.32998468376126783     
Spin= Alpha
Occup=     0.00000000
           1  -1.1442210535131977E-009
           2   2.1563060122127647E-006
           3   1.0827038205728244E-006
           4  0.61773011645813714     
           5  -1.0731709618233865E-009
           6  -3.1778481482151036E-006
           7  -1.6017927986346432E-006
           8 -0.90944289295322522     
           9  -4.3050125334883965E-009
          10  -9.2649862269357029E-007
          11  -4.8588889817927086E-007
          12 -0.26584636714476456     
Sym=    11a
Ene=  -0.10780193967280184     
Spin= Alpha
Occup=     0.00000000
           1  0.54582923977373643     
           2 -0.55536831270521747     
           3 -0.56581207622583873     
           4   2.9200489977209866E-006
           5  -6.2493893848663398E-002
           6  0.37378615933821580     
           7  0.24066598087148042     
           8  -1.7293053815942807E-006
           9 -0.41552812121500704     
          10 -0.73455792835785549     
          11 -0.35020854226684461     
          12   3.1713388253613249E-006
Sym=    12a
Ene=   0.50089566783514217     
Spin= Alpha
Occup=     0.00000000
           1 -0.68173730009350042     
           2 -0.89139323756716382     
           3  0.37190191881452145     
           4   2.4638968547885882E-006
           5  0.79154549495671622     
           6 -0.87736956743166217     
           7  0.52519930700602402     
           8   2.1454244822027173E-006
           9 -0.14900298190126332     
          10 -0.11902902147362764     
          11 -0.16004651155867061     
          12   6.9910369407284098E-007
