$hessian                                                                        
        0.4412760501  -0.2063005697  -0.0000011803  -0.4049590245   0.2259505036
        0.0000010192  -0.0363170255  -0.0196499339   0.0000001611
       -0.2063005697   0.3790997538   0.0000000585   0.3083050020  -0.2539461098
       -0.0000006330  -0.1020044323  -0.1251536440   0.0000005745
       -0.0000011803   0.0000000585   0.0000000000   0.0000008755  -0.0000003455
       -0.0000000000   0.0000003048   0.0000002870  -0.0000000000
       -0.4049590245   0.3083050020   0.0000008755   0.5533266388  -0.2673344371
       -0.0000014649  -0.1483676142  -0.0409705649   0.0000005894
        0.2259505036  -0.2539461098  -0.0000003455  -0.2673344371   0.1935629212
        0.0000005953   0.0413839334   0.0603831886  -0.0000002498
        0.0000010192  -0.0000006330  -0.0000000000  -0.0000014649   0.0000005953
        0.0000000000   0.0000004457   0.0000000376  -0.0000000000
       -0.0363170255  -0.1020044323   0.0000003048  -0.1483676142   0.0413839334
        0.0000004457   0.1846846398   0.0606204989  -0.0000007505
       -0.0196499339  -0.1251536440   0.0000002870  -0.0409705649   0.0603831886
        0.0000000376   0.0606204989   0.0647704554  -0.0000003247
        0.0000001611   0.0000005745  -0.0000000000   0.0000005894  -0.0000002498
       -0.0000000000  -0.0000007505  -0.0000003247   0.0000000000
