3
 energy: -9.880827619687 gnorm: 0.173252853998 xtb: 6.2.2 (9d81278992624c895f80dd42a50cac0aa55982e2)
O        -0.02968600000000    0.55252600000000    0.00000000000000
C         1.08648600000000   -0.28231700000000    0.00000000000000
O        -1.05680000000000   -0.27020900000000    0.00000000000000
3
 energy: -9.907452600782 gnorm: 0.121340640592 xtb: 6.2.2 (9d81278992624c895f80dd42a50cac0aa55982e2)
O         0.00298301709545    0.46460619741523    0.00000000000000
C         1.11059688001345   -0.22777940242465    0.00000000000000
O        -1.11357989710890   -0.23682679499058    0.00000000000000
3
 energy: -9.909422664361 gnorm: 0.174803436961 xtb: 6.2.2 (9d81278992624c895f80dd42a50cac0aa55982e2)
O         0.06700577336533    0.36386371194391    0.00000000000000
C         1.07497318557051   -0.15472377135423    0.00000000000000
O        -1.14197895893584   -0.20913994058968    0.00000000000000
3
 energy: -9.917224344822 gnorm: 0.038605697231 xtb: 6.2.2 (9d81278992624c895f80dd42a50cac0aa55982e2)
O         0.03344739278947    0.40691824394554    0.00000000000000
C         1.11125569110507   -0.18844343144738    0.00000000000000
O        -1.14470308389454   -0.21847481249816    0.00000000000000
3
 energy: -9.917832426165 gnorm: 0.013293163806 xtb: 6.2.2 (9d81278992624c895f80dd42a50cac0aa55982e2)
O         0.04064362050448    0.40149606312646    0.00000000000000
C         1.10406188606660   -0.18304196434018    0.00000000000000
O        -1.14470550657108   -0.21845409878628    0.00000000000000
3
 energy: -9.917920866288 gnorm: 0.005378117619 xtb: 6.2.2 (9d81278992624c895f80dd42a50cac0aa55982e2)
O         0.04507637433664    0.40141678912701    0.00000000000000
C         1.09966412175688   -0.18127754592424    0.00000000000000
O        -1.14474049609352   -0.22013924320277    0.00000000000000
3
 energy: -9.917939593664 gnorm: 0.003890542924 xtb: 6.2.2 (9d81278992624c895f80dd42a50cac0aa55982e2)
O         0.04631848031526    0.40296715883451    0.00000000000000
C         1.09910372512924   -0.18154055192860    0.00000000000000
O        -1.14542220544450   -0.22142660690591    0.00000000000000
3
 energy: -9.917956481061 gnorm: 0.000309323937 xtb: 6.2.2 (9d81278992624c895f80dd42a50cac0aa55982e2)
O         0.04848905933075    0.40586512949045    0.00000000000000
C         1.09898428206569   -0.18209544226493    0.00000000000000
O        -1.14747334139644   -0.22376968722553    0.00000000000000
3
 energy: -9.917956657765 gnorm: 0.000084806696 xtb: 6.2.2 (9d81278992624c895f80dd42a50cac0aa55982e2)
O         0.04878126355062    0.40579195617608    0.00000000000000
C         1.09928751816248   -0.18194992160562    0.00000000000000
O        -1.14806878171310   -0.22384203457046    0.00000000000000
