$hessian                                                                        
        0.5919057293  -0.0086942069   0.0113451352  -0.4890013456   0.0069535216
       -0.0090427917  -0.0521505535  -0.0256367479  -0.0015446429  -0.0507538302
        0.0273774331  -0.0007577006
       -0.0086942069   0.0327785064   0.0002017543   0.0069200622  -0.0443152726
       -0.0001839428  -0.0197030219   0.0064971976  -0.0004038366   0.0214771666
        0.0050395687   0.0003860251
        0.0113451352   0.0002017543   0.0070175679  -0.0090655323  -0.0001833502
       -0.0221753038  -0.0014483356  -0.0005179774   0.0075655053  -0.0008312673
        0.0004995733   0.0075922306
       -0.4890013456   0.0069200622  -0.0090655323   0.6757643550  -0.0028144041
        0.0117610491  -0.0966940241  -0.0977134495  -0.0027825561  -0.0900689853
        0.0936077914   0.0000870393
        0.0069535216  -0.0443152726  -0.0001833502  -0.0028144041   0.5058473023
        0.0061724018  -0.1234951587  -0.2274051916  -0.0052846232   0.1193560412
       -0.2341268381  -0.0007044285
       -0.0090427917  -0.0001839428  -0.0221753038   0.0117610491   0.0061724018
        0.0715443213  -0.0031636841  -0.0047918682  -0.0247450227   0.0004454267
       -0.0011965909  -0.0246239948
       -0.0521505535  -0.0197030219  -0.0014483356  -0.0966940241  -0.1234951587
       -0.0031636841   0.1394842132   0.1339373312   0.0044620155   0.0093603643
        0.0092608494   0.0001500042
       -0.0256367479   0.0064971976  -0.0005179774  -0.0977134495  -0.2274051916
       -0.0047918682   0.1339373312   0.2553062640   0.0061267609  -0.0105871338
       -0.0343982701  -0.0008169152
       -0.0015446429  -0.0004038366   0.0075655053  -0.0027825561  -0.0052846232
       -0.0247450227   0.0044620155   0.0061267609   0.0086813148  -0.0001348165
       -0.0004383011   0.0084982026
       -0.0507538302   0.0214771666  -0.0008312673  -0.0900689853   0.1193560412
        0.0004454267   0.0093603643  -0.0105871338  -0.0001348165   0.1314624512
       -0.1302460740   0.0005206572
        0.0273774331   0.0050395687   0.0004995733   0.0936077914  -0.2341268381
       -0.0011965909   0.0092608494  -0.0343982701  -0.0004383011  -0.1302460740
        0.2634855395   0.0011353186
       -0.0007577006   0.0003860251   0.0075922306   0.0000870393  -0.0007044285
       -0.0246239948   0.0001500042  -0.0008169152   0.0084982026   0.0005206572
        0.0011353186   0.0085335616
