4
 energy: -5.865608128996 gnorm: 0.126599222048 xtb: 6.2.2 (9d81278992624c895f80dd42a50cac0aa55982e2)
C         1.26577500000000   -0.01811000000000   -0.07540500000000
N        -0.13004500000000   -0.00272000000000    0.32089800000000
H        -0.58058100000000   -0.82733300000000   -0.13499900000000
H        -0.55514900000000    0.84816300000000   -0.11049300000000
4
 energy: -5.884081472527 gnorm: 0.089216667270 xtb: 6.2.2 (9d81278992624c895f80dd42a50cac0aa55982e2)
C         1.24845179426838   -0.01827791935121   -0.04595543702057
N        -0.09784716524292   -0.00185421725573    0.22831287183511
H        -0.58831951966340   -0.84752860310113   -0.10372155263026
H        -0.56228510936205    0.86766073970808   -0.07863488218428
4
 energy: -5.896981849537 gnorm: 0.074834685847 xtb: 6.2.2 (9d81278992624c895f80dd42a50cac0aa55982e2)
C         1.21664629238423   -0.01860210578492    0.00921648710480
N        -0.02118497984263   -0.00072384836061    0.07148944936103
H        -0.61093741772402   -0.86041353081156   -0.05307838666374
H        -0.58452389481758    0.87973948495710   -0.02762654980209
4
 energy: -5.898948041291 gnorm: 0.032619258801 xtb: 6.2.2 (9d81278992624c895f80dd42a50cac0aa55982e2)
C         1.26376289549031   -0.01946606409042    0.01938386967825
N        -0.02307619316401   -0.00011881982579    0.03208558645579
H        -0.63355692578090   -0.86073823105133   -0.03846677214682
H        -0.60712977654540    0.88032311496754   -0.01300168398721
4
 energy: -5.899990329777 gnorm: 0.012199118456 xtb: 6.2.2 (9d81278992624c895f80dd42a50cac0aa55982e2)
C         1.25130413817854   -0.01920801556938    0.01467643245361
N        -0.03239164548555   -0.00010812243616    0.04101435348116
H        -0.62239268842387   -0.84261051036211   -0.04031031074486
H        -0.59651980426912    0.86192664836765   -0.01537947518991
4
 energy: -5.900370723473 gnorm: 0.006007459798 xtb: 6.2.2 (9d81278992624c895f80dd42a50cac0aa55982e2)
C         1.24592735087535   -0.01921936006067    0.02103332379916
N        -0.03014883322400    0.00022243559472    0.01608223118960
H        -0.62078307317205   -0.83996136130933   -0.03098159016425
H        -0.59499544447931    0.85895828577527   -0.00613296482450
4
 energy: -5.900448295170 gnorm: 0.002099737827 xtb: 6.2.2 (9d81278992624c895f80dd42a50cac0aa55982e2)
C         1.24542722411492   -0.01925507186031    0.02399461745052
N        -0.03203409145167    0.00046114499667    0.00171558249589
H        -0.61961381079935   -0.84160646231256   -0.02530147542329
H        -0.59377932186390    0.86040038917619   -0.00040772452312
4
 energy: -5.900453532955 gnorm: 0.000239521769 xtb: 6.2.2 (9d81278992624c895f80dd42a50cac0aa55982e2)
C         1.24489916215753   -0.01925002637753    0.02419776658238
N        -0.03362058833623    0.00052201464968   -0.00079992874824
H        -0.61857371114369   -0.84277124912918   -0.02416184678561
H        -0.59270486267761    0.86149926085703    0.00076500895146
4
 energy: -5.900453674096 gnorm: 0.000089240435 xtb: 6.2.2 (9d81278992624c895f80dd42a50cac0aa55982e2)
C         1.24464987094932   -0.01924452058819    0.02407974651123
N        -0.03402719799505    0.00052738553451   -0.00074462160678
H        -0.61825488373917   -0.84337791158588   -0.02413928589261
H        -0.59236778921510    0.86209504663955    0.00080516098816
