4
 energy: -10.041247950178 gnorm: 0.337347545922 xtb: 6.2.2 (9d81278992624c895f80dd42a50cac0aa55982e2)
C         1.52975400000000    0.52075700000000    0.14385800000000
C         0.62793700000000   -0.59532100000000   -0.34679800000000
C        -0.72491400000000   -0.51630600000000    0.33597800000000
O        -1.43277700000000    0.59087000000000   -0.13303900000000
4
 energy: -10.143690046046 gnorm: 0.222171202855 xtb: 6.2.2 (9d81278992624c895f80dd42a50cac0aa55982e2)
C         1.49047352287451    0.44975846883334    0.10696957819924
C         0.63083194743659   -0.53019953300642   -0.26492130694550
C        -0.70347526417671   -0.44323778125490    0.24997026925355
O        -1.41783020613439    0.52367884542798   -0.09201954050730
4
 energy: -10.085834142201 gnorm: 0.828906291910 xtb: 6.2.2 (9d81278992624c895f80dd42a50cac0aa55982e2)
C         1.41641868900412    0.28612970881704    0.08499830821856
C         0.69544813865270   -0.42094318647576   -0.21455484261344
C        -0.64262948875739   -0.27260127249273    0.18713260087005
O        -1.46923733889943    0.40741475015145   -0.05757706647516
4
 energy: -10.182403587563 gnorm: 0.069454736652 xtb: 6.2.2 (9d81278992624c895f80dd42a50cac0aa55982e2)
C         1.53996619894386    0.33954347168981    0.12614836232689
C         0.64080807231594   -0.46993889022885   -0.25947235253595
C        -0.63456604110513   -0.28679919359834    0.21584644157400
O        -1.54620823015467    0.41719461213737   -0.08252345136494
4
 energy: -10.186195764451 gnorm: 0.166522011496 xtb: 6.2.2 (9d81278992624c895f80dd42a50cac0aa55982e2)
C         1.73195335604991    0.22581046248359    0.13525024446466
C         0.63883303156060   -0.34373115048615   -0.24604041661614
C        -0.63647029464560   -0.19094754837750    0.21308564874640
O        -1.73431609296491    0.30886823638006   -0.10229647659492
4
 energy: -10.182000462990 gnorm: 0.180562426039 xtb: 6.2.2 (9d81278992624c895f80dd42a50cac0aa55982e2)
C         1.81149156467385    0.24622209942851    0.07178966299952
C         0.65891751795608   -0.31604609419858   -0.13817136915384
C        -0.74149311329037   -0.23423706267617    0.12011546650760
O        -1.72891596933956    0.30406105744625   -0.05373476035327
4
 energy: -10.196967354102 gnorm: 0.028003275088 xtb: 6.2.2 (9d81278992624c895f80dd42a50cac0aa55982e2)
C         1.70811698678396    0.23482870331791    0.10882958379880
C         0.63864463860241   -0.34021788543309   -0.20145722912229
C        -0.65923888153864   -0.20062895588996    0.16951793135025
O        -1.68752274384773    0.30601813800514   -0.07689128602675
4
 energy: -10.198473000120 gnorm: 0.100874115985 xtb: 6.2.2 (9d81278992624c895f80dd42a50cac0aa55982e2)
C         1.77757704145525    0.17578006103184    0.11854987411959
C         0.61807044814779   -0.26793967838762   -0.20589281190012
C        -0.64879042808112   -0.15266019645772    0.18205638519665
O        -1.74685706152191    0.24481981381350   -0.09471444741611
4
 energy: -10.201246930319 gnorm: 0.049212734480 xtb: 6.2.2 (9d81278992624c895f80dd42a50cac0aa55982e2)
C         1.76729109308306    0.17100414388538    0.11287940403100
C         0.62861228960519   -0.27033216337956   -0.19513120984584
C        -0.64986304407146   -0.14067603308534    0.16654169172898
O        -1.74604033861678    0.24000405257953   -0.08429088591413
4
 energy: -10.204303546830 gnorm: 0.019575876461 xtb: 6.2.2 (9d81278992624c895f80dd42a50cac0aa55982e2)
C         1.79204782170006    0.12396049619081    0.10961813393267
C         0.62322688143529   -0.21472859349311   -0.18433166437220
C        -0.65320869856568   -0.09385653230271    0.15784497178379
O        -1.76206600456966    0.18462462960502   -0.08313244134425
4
 energy: -10.203698498626 gnorm: 0.090855056663 xtb: 6.2.2 (9d81278992624c895f80dd42a50cac0aa55982e2)
C         1.87325246508733    0.02507877802768    0.09702558065090
C         0.64169482403022   -0.11767175781919   -0.14426056193993
C        -0.65956096166676    0.00837630105254    0.11587224754868
O        -1.85538632745078    0.08421667873897   -0.06863826625964
4
 energy: -10.206616313928 gnorm: 0.011837061801 xtb: 6.2.2 (9d81278992624c895f80dd42a50cac0aa55982e2)
C         1.83093702000681    0.06222511431448    0.10258266706543
C         0.62742577271469   -0.14693063878286   -0.16495831192477
C        -0.65862747997966   -0.03526750096898    0.14124444458916
O        -1.79973531274184    0.11997302543736   -0.07886979972981
4
 energy: -10.207112914015 gnorm: 0.018878982055 xtb: 6.2.2 (9d81278992624c895f80dd42a50cac0aa55982e2)
C         1.83749111330648    0.03842434314507    0.10329113969735
C         0.62330341687083   -0.11875371143835   -0.16517817344375
C        -0.65747119863491   -0.01323484625956    0.14349419435460
O        -1.80332333154239    0.09356421455284   -0.08160816060818
4
 energy: -10.207634198030 gnorm: 0.026012264203 xtb: 6.2.2 (9d81278992624c895f80dd42a50cac0aa55982e2)
C         1.85001381957366   -0.01582320884724    0.10048296551872
C         0.62785156188246   -0.06164231383900   -0.15838529745323
C        -0.65858187931126    0.04041472104841    0.13826082737905
O        -1.81928350214484    0.03705080163783   -0.08035949544453
4
 energy: -10.207826181411 gnorm: 0.002623797205 xtb: 6.2.2 (9d81278992624c895f80dd42a50cac0aa55982e2)
C         1.84417938816052   -0.01353706336183    0.09999060140179
C         0.62771278164165   -0.06214184384890   -0.15981832110136
C        -0.66042485696330    0.03599409389451    0.14103175476865
O        -1.81146731283886    0.03968481331623   -0.08120503506908
4
 energy: -10.207868739754 gnorm: 0.006061907184 xtb: 6.2.2 (9d81278992624c895f80dd42a50cac0aa55982e2)
C         1.84443155774167   -0.03079209977824    0.10046366846534
C         0.62567714628582   -0.04080210940911   -0.16197207077503
C        -0.66110786030323    0.05054022450424    0.14558264451036
O        -1.80900084372425    0.02105398468311   -0.08407524220066
4
 energy: -10.207875585895 gnorm: 0.002133476017 xtb: 6.2.2 (9d81278992624c895f80dd42a50cac0aa55982e2)
C         1.84199273236546   -0.03247129620916    0.10099540795463
C         0.62649154238933   -0.04033830265764   -0.16304385879566
C        -0.65980536597801    0.05305733868283    0.14614046136513
O        -1.80867890877679    0.01975226018398   -0.08409301052408
4
 energy: -10.207878269042 gnorm: 0.002504288146 xtb: 6.2.2 (9d81278992624c895f80dd42a50cac0aa55982e2)
C         1.84339485382812   -0.03075936668410    0.10059866559586
C         0.62690990971213   -0.04160083170196   -0.16255717226110
C        -0.66094720734468    0.05051407233203    0.14604963901009
O        -1.80935755619555    0.02184612605404   -0.08409213234484
4
 energy: -10.207879807077 gnorm: 0.002006631955 xtb: 6.2.2 (9d81278992624c895f80dd42a50cac0aa55982e2)
C         1.84296531901201   -0.03057488347099    0.10086562610977
C         0.62674155306543   -0.04170388077862   -0.16321700985338
C        -0.66066444943260    0.04992437316245    0.14692343362856
O        -1.80904242264483    0.02235439108717   -0.08457304988494
4
 energy: -10.207883165395 gnorm: 0.001558896310 xtb: 6.2.2 (9d81278992624c895f80dd42a50cac0aa55982e2)
C         1.84218322642663   -0.03079303385303    0.10118994079124
C         0.62664919780531   -0.04072933657280   -0.16461618814610
C        -0.66040499595498    0.04782671521614    0.14953323915288
O        -1.80842742827695    0.02369565520969   -0.08610799179800
