4
 energy: -8.947660468058 gnorm: 0.122566421538 xtb: 6.2.2 (9d81278992624c895f80dd42a50cac0aa55982e2)
C        -1.19437100000000   -0.00118900000000   -0.12032100000000
C         0.01726100000000   -0.73074400000000    0.23306700000000
C         1.15091600000000   -0.01610500000000   -0.34078500000000
N         0.02619400000000    0.74803800000000    0.22803900000000
4
 energy: -8.965277249580 gnorm: 0.074364808427 xtb: 6.2.2 (9d81278992624c895f80dd42a50cac0aa55982e2)
C        -1.11801251807012   -0.00178666587258   -0.14752270013026
C         0.01906781540913   -0.74678463863643    0.25337192372354
C         1.07082444417099   -0.01570765894157   -0.35327983532838
N         0.02812025849000    0.76427896345058    0.24743061173510
4
 energy: -8.973893884954 gnorm: 0.061852057939 xtb: 6.2.2 (9d81278992624c895f80dd42a50cac0aa55982e2)
C        -1.02730080986462    0.00944002455028   -0.14470833054970
C         0.01839201651573   -0.79362297158395    0.24934956301513
C         0.98237480129747   -0.00334160559011   -0.33362365333009
N         0.02653399205142    0.78752455262379    0.22898242086466
4
 energy: -8.975535292412 gnorm: 0.022165147606 xtb: 6.2.2 (9d81278992624c895f80dd42a50cac0aa55982e2)
C        -1.02800699958119    0.01586418363904   -0.15859539937328
C         0.02001237059367   -0.80773715288506    0.26754286674343
C         0.98056195846375    0.00308952928302   -0.34740679749766
N         0.02743267052377    0.78878343996300    0.23845933012751
4
 energy: -8.976100370863 gnorm: 0.006884005752 xtb: 6.2.2 (9d81278992624c895f80dd42a50cac0aa55982e2)
C        -1.03024603597730    0.02236273092932   -0.15068513627564
C         0.01954837235924   -0.82560134522321    0.26381543646817
C         0.98431759061138    0.00954994997906   -0.34006004231887
N         0.02638007300668    0.79368866431483    0.22692974212635
4
 energy: -8.976205186847 gnorm: 0.005528474195 xtb: 6.2.2 (9d81278992624c895f80dd42a50cac0aa55982e2)
C        -1.02651358450874    0.02456937968227   -0.14855061113110
C         0.01938374923361   -0.83514339930555    0.26271040205552
C         0.98107648379511    0.01180097418812   -0.33727001043932
N         0.02605335148002    0.79877304543516    0.22311021951490
4
 energy: -8.976323540954 gnorm: 0.007128957474 xtb: 6.2.2 (9d81278992624c895f80dd42a50cac0aa55982e2)
C        -1.01913249622872    0.02529098329488   -0.14788855967902
C         0.01923858677608   -0.84518246326708    0.26184571755384
C         0.97395768131439    0.01261488308255   -0.33524489444072
N         0.02593622813824    0.80727659688964    0.22128773656590
4
 energy: -8.976490319215 gnorm: 0.009575751363 xtb: 6.2.2 (9d81278992624c895f80dd42a50cac0aa55982e2)
C        -1.01076169866209    0.02547184518378   -0.14854166651237
C         0.01918740854285   -0.85383586198200    0.26188462122375
C         0.96561436613487    0.01290205864555   -0.33432666066060
N         0.02595992398437    0.81546195815267    0.22098370594922
4
 energy: -8.976860429287 gnorm: 0.014442635457 xtb: 6.2.2 (9d81278992624c895f80dd42a50cac0aa55982e2)
C        -0.99835403737595    0.02607848250685   -0.14933234342141
C         0.01911087975766   -0.86716218239901    0.26197439067667
C         0.95328557248034    0.01366613384021   -0.33279212555022
N         0.02595758513794    0.82741756605195    0.22015007829496
4
 energy: -8.977798975138 gnorm: 0.022836304371 xtb: 6.2.2 (9d81278992624c895f80dd42a50cac0aa55982e2)
C        -0.97845723878579    0.02738150858816   -0.15047692951724
C         0.01899246784501   -0.88907002502515    0.26219999631265
C         0.93354216121082    0.01522154173318   -0.33021046035019
N         0.02592260972996    0.84646697470381    0.21848739355477
4
 energy: -8.980035321289 gnorm: 0.033742878430 xtb: 6.2.2 (9d81278992624c895f80dd42a50cac0aa55982e2)
C        -0.94710559994712    0.02944754343996   -0.15229372739289
C         0.01880720136530   -0.92369596780613    0.26257730151513
C         0.90242983490801    0.01768540130313   -0.32615550273448
N         0.02586856367380    0.87656302306304    0.21587192861224
4
 energy: -8.982879028280 gnorm: 0.028444898254 xtb: 6.2.2 (9d81278992624c895f80dd42a50cac0aa55982e2)
C        -0.90384931573251    0.03156548431048   -0.15526319498867
C         0.01856029309123   -0.97024504188720    0.26310860473028
C         0.85940825982604    0.02035294450565   -0.32101465751567
N         0.02588076281525    0.91832661307108    0.21316924777406
4
 energy: -8.983338307395 gnorm: 0.009233051926 xtb: 6.2.2 (9d81278992624c895f80dd42a50cac0aa55982e2)
C        -0.89403737561967    0.02198688773138   -0.15110858352386
C         0.01750110573826   -0.97342340837768    0.25205975699740
C         0.85042278557718    0.01089410214708   -0.31509318150812
N         0.02611348430423    0.94054241849922    0.21414200803458
4
 energy: -8.983420879122 gnorm: 0.004443910936 xtb: 6.2.2 (9d81278992624c895f80dd42a50cac0aa55982e2)
C        -0.90355135300331    0.02161707030892   -0.15096071614717
C         0.01762250047059   -0.96097526457635    0.25250774687933
C         0.85979235256543    0.01040396896518   -0.31672047376363
N         0.02613649996729    0.92895422530225    0.21517344303147
4
 energy: -8.983448643566 gnorm: 0.000986037314 xtb: 6.2.2 (9d81278992624c895f80dd42a50cac0aa55982e2)
C        -0.89934147879653    0.02302312338526   -0.15221965331512
C         0.01776361649232   -0.96521735761403    0.25428725583764
C         0.85543748651841    0.01186494661710   -0.31717339298622
N         0.02614037578580    0.93032928761167    0.21510579046370
4
 energy: -8.983449083927 gnorm: 0.000631744601 xtb: 6.2.2 (9d81278992624c895f80dd42a50cac0aa55982e2)
C        -0.89962980003404    0.02256250428557   -0.15160287485068
C         0.01768073969995   -0.96511470337983    0.25340154302927
C         0.85583078779738    0.01139970970010   -0.31662107000417
N         0.02611827253671    0.93115248939416    0.21482240182558
