      -----------------------------------------------------------      
     |                   =====================                   |     
     |                           x T B                           |     
     |                   =====================                   |     
     |                         S. Grimme                         |     
     |          Mulliken Center for Theoretical Chemistry        |     
     |                    University of Bonn                     |     
      -----------------------------------------------------------      

   * xtb version 6.2.2 (9d81278992624c895f80dd42a50cac0aa55982e2) compiled by '@Darwin' on 04/03/2020

   xtb is free software: you can redistribute it and/or modify it under
   the terms of the GNU Lesser General Public License as published by
   the Free Software Foundation, either version 3 of the License, or
   (at your option) any later version.
   
   xtb is distributed in the hope that it will be useful,
   but WITHOUT ANY WARRANTY; without even the implied warranty of
   MERCHANTABILITY or FITNESS FOR A PARTICULAR PURPOSE.  See the
   GNU Lesser General Public License for more details.
   
   Cite this work as:
   * S. Grimme, C. Bannwarth, P. Shushkov, J. Chem. Theory Comput., 2017,
     13, 1989-2009. DOI: 10.1021/acs.jctc.7b00118
   * C. Bannwarth, S. Ehlert and S. Grimme., J. Chem. Theory Comput., 2019,
     15, 1652-1671. DOI: 10.1021/acs.jctc.8b01176
   * P. Pracht, E. Caldeweyher, S. Ehlert, S. Grimme, ChemRxiv, 2019, preprint.
     DOI: 10.26434/chemrxiv.8326202.v1
   
   for DFT-D4:
   * E. Caldeweyher, C. Bannwarth and S. Grimme, J. Chem. Phys., 2017,
     147, 034112. DOI: 10.1063/1.4993215
   * E. Caldeweyher, S. Ehlert, A. Hansen, H. Neugebauer, S. Spicher,
     C. Bannwarth and S. Grimme, J. Chem. Phys., 2019, 150, 154122.
     DOI: 10.1063/1.5090222
   
   for sTDA-xTB:
   * S. Grimme and C. Bannwarth, J. Chem. Phys., 2016, 145, 054103.
     DOI: 10.1063/1.4959605
   
   in the mass-spec context:
   * V. Asgeirsson, C. Bauer and S. Grimme, Chem. Sci., 2017, 8, 4879.
     DOI: 10.1039/c7sc00601b
   
   for metadynamics refer to:
   * S. Grimme, J. Chem. Theory Comput., 2019, 155, 2847-2862
     DOI: 10.1021/acs.jctc.9b00143
   
   with help from (in alphabetical order)
   C. Bannwarth, F. Bohle, G. Brandenburg, E. Caldeweyher, M. Checinski,
   S. Dohm, S. Ehlert, S. Ehrlich, F. März, H. Neugebauer, J. Pisarek,
   P. Pracht, P. Shushkov, and S. Spicher.
   
 * started run on 2020/05/12 at 11:44:36.261     

           -------------------------------------------------
          |                Calculation Setup                |
           -------------------------------------------------

          program call               : xtb --input C5_11_S_2.input C5_11_S_2.xyz --ohess --molden --namespace C5_11_S_2 output.out
          calculation namespace      : C5_11_S_2
          coordinate file            : C5_11_S_2.xyz
          number of atoms            :                     5
          number of electrons        :                    20
          charge                     :                     0
          spin                       :                   1.0
          first test random number   :      0.89308667278607

   ID    Z sym.   atoms
    1    6 C      1-5

           -------------------------------------------------
          |                 G F N 2 - x T B                 |
           -------------------------------------------------

        Reference                      10.1021/acs.jctc.8b01176
      * Hamiltonian:
        H0-scaling (s, p, d)           1.850000    2.230000    2.230000
        zeta-weighting                 0.500000
      * Dispersion:
        s8                             2.700000
        a1                             0.520000
        a2                             5.000000
        s9                             5.000000
      * Repulsion:
        kExp                           1.500000    1.000000
        rExp                           1.000000
      * Coulomb:
        alpha                          2.000000
        third order                    shell-resolved
        anisotropic                    true
        a3                             3.000000
        a5                             4.000000
        cn-shift                       1.200000
        cn-exp                         4.000000
        max-rad                        5.000000


          ...................................................
          :                      SETUP                      :
          :.................................................:
          :  # basis functions                  20          :
          :  # atomic orbitals                  20          :
          :  # shells                           10          :
          :  # electrons                        20          :
          :  max. iterations                   250          :
          :  Hamiltonian                  GFN2-xTB          :
          :  restarted?                      false          :
          :  GBSA solvation                  false          :
          :  PC potential                    false          :
          :  electronic temp.          300.0000000     K    :
          :  accuracy                    1.0000000          :
          :  -> integral cutoff          0.2500000E+02      :
          :  -> integral neglect         0.1000000E-07      :
          :  -> SCF convergence          0.1000000E-05 Eh   :
          :  -> wf. convergence          0.1000000E-03 e    :
          :  Broyden damping             0.4000000          :
          ...................................................

 iter      E             dE          RMSdq      gap      omega  full diag
   1    -10.0274933 -0.100275E+02  0.111E+01    1.68       0.0  T
   2     -8.2497930  0.177770E+01  0.146E+01    0.68       1.0  T
   3     -8.7386167 -0.488824E+00  0.113E+01    1.42       1.0  T
   4    -10.1013885 -0.136277E+01  0.551E+00    1.43       1.0  T
   5    -10.1548000 -0.534116E-01  0.341E+00    1.52       1.0  T
   6    -10.1828601 -0.280600E-01  0.253E+00    1.40       1.0  T
   7    -10.1819822  0.877906E-03  0.224E+00    1.44       1.0  T
   8    -10.1897581 -0.777599E-02  0.132E+00    1.37       1.0  T
   9    -10.1930413 -0.328314E-02  0.305E-01    1.32       1.0  T
  10    -10.1931128 -0.715042E-04  0.208E-01    1.33       1.0  T
  11    -10.1932001 -0.872928E-04  0.802E-03    1.34       5.6  T
  12    -10.1932004 -0.289865E-06  0.709E-03    1.34       6.3  T
  13    -10.1932003  0.373417E-07  0.622E-03    1.34       7.2  T
  14    -10.1932004 -0.919190E-07  0.129E-03    1.34      34.8  T
  15    -10.1932004  0.153186E-08  0.121E-03    1.34      36.8  T
  16    -10.1932004 -0.359516E-08  0.138E-04    1.34     323.1  T
  17    -10.1932004 -0.122057E-09  0.356E-05    1.34    1256.3  T

   *** convergence criteria satisfied after 17 iterations ***

         #    Occupation            Energy/Eh            Energy/eV
      -------------------------------------------------------------
         1        2.0000           -0.7409551             -20.1624
       ...           ...                  ...                  ...
         5        2.0000           -0.5433690             -14.7858
         6        2.0000           -0.5263158             -14.3218
         7        2.0000           -0.5251098             -14.2890
         8        2.0000           -0.4829203             -13.1409
         9        1.9992           -0.4519724             -12.2988
        10        1.0008           -0.4383351             -11.9277
        11        1.0000           -0.4249022             -11.5622 (HOMO)
        12                         -0.3757672             -10.2251 (LUMO)
        13                         -0.3617235              -9.8430
        14                         -0.3408987              -9.2763
        15                         -0.2449330              -6.6650
        16                         -0.0165011              -0.4490
       ...                                ...                  ...
        20                          0.1736056               4.7240
      -------------------------------------------------------------
                  HL-Gap            0.0491350 Eh            1.3370 eV
             Fermi-level           -0.4227443 Eh          -11.5035 eV

 transition dipole moment (au) for excitation:          10          11
     X       Y       Z   
   0.0004   0.0386   0.1530  total (au/Debye):    0.158   0.401
 dE (eV)             :    0.366
 oscillator strength :  0.31523E-03

 SCC (total)                   0 d,  0 h,  0 min,  0.008 sec
 SCC setup                      ...        0 min,  0.000 sec (  1.839%)
 Dispersion                     ...        0 min,  0.000 sec (  0.427%)
 integral evaluation            ...        0 min,  0.002 sec ( 30.411%)
 zeroth order Hamiltonian       ...        0 min,  0.000 sec (  0.368%)
 iterations                     ...        0 min,  0.003 sec ( 33.448%)
 molecular gradient             ...        0 min,  0.002 sec ( 18.937%)
 printout                       ...        0 min,  0.001 sec ( 14.391%)

         :::::::::::::::::::::::::::::::::::::::::::::::::::::
         ::                     SUMMARY                     ::
         :::::::::::::::::::::::::::::::::::::::::::::::::::::
         :: total energy             -10.105220583878 Eh    ::
         :: gradient norm              0.205708756151 Eh/a0 ::
         :: HOMO-LUMO gap              1.337030419431 eV    ::
         ::.................................................::
         :: SCC energy               -10.193200430421 Eh    ::
         :: -> isotropic ES           -0.025543207057 Eh    ::
         :: -> anisotropic ES          0.000658661283 Eh    ::
         :: -> anisotropic XC          0.007810576053 Eh    ::
         :: -> dispersion             -0.003004301440 Eh    ::
         :: repulsion energy           0.087979771703 Eh    ::
         :: add. restraining           0.000000000000 Eh    ::
         :::::::::::::::::::::::::::::::::::::::::::::::::::::

      ----------------------------------------------------------- 
     |                   =====================                   |
     |                        A N C O P T                        |
     |                   =====================                   |
     |               Approximate Normal Coordinate               |
     |                Rational Function Optimizer                |
      ----------------------------------------------------------- 

          ...................................................
          :                      SETUP                      :
          :.................................................:
          :   optimization level            normal          :
          :   max. optcycles                   200          :
          :   ANC micro-cycles                  20          :
          :   degrees of freedom                 9          :
          :.................................................:
          :   RF solver                   davidson          :
          :   write xtbopt.log                true          :
          :   linear?                        false          :
          :   energy convergence         0.5000000E-05 Eh   :
          :   grad. convergence          0.1000000E-02 Eh/α :
          :   maximium RF displ.         1.0000000          :
          :   Hlow (freq-cutoff)         0.1000000E-01      :
          :   Hmax (freq-cutoff)         5.0000000          :
          :   S6 in model hess.         20.0000000          :
          ...................................................

generating ANC from model Hessian ...
Using Lindh-Hessian (1995)
 Shifting diagonal of input Hessian by    0.0000000000000000     
 Lowest  eigenvalues of input Hessian
   -0.000000   -0.000000   -0.000000   -0.000000    0.000000    0.000000
    0.028475    0.054415    0.119969    0.528741    0.603247    0.809178
    0.837887    1.228662    1.317900
 Highest eigenvalues
    0.528741    0.603247    0.809178    0.837887    1.228662    1.317900


........................................................................
.............................. CYCLE    1 ..............................
........................................................................
   1    -10.1932004 -0.101932E+02  0.359E-06    1.34       0.0  T
   2    -10.1932004  0.641265E-12  0.855E-06    1.34    5228.3  T
   3    -10.1932004 -0.664357E-12  0.301E-06    1.34   14863.6  T
     SCC iter.                  ...        0 min,  0.001 sec
     gradient                   ...        0 min,  0.001 sec
 * total energy  :   -10.1052206 Eh     change        0.3292548E-09 Eh
   gradient norm :     0.2057091 Eh/α   predicted     0.0000000E+00 (-100.00%)
   displ. norm   :     0.3776827 α      lambda       -0.6290501E-01
   maximum displ.:     0.2574280 α      in ANC's #4, #1, #6, ...

........................................................................
.............................. CYCLE    2 ..............................
........................................................................
   1    -10.2705200 -0.102705E+02  0.208E+00    1.91       0.0  T
   2    -10.2212169  0.493030E-01  0.286E+00    1.79       1.0  T
   3    -10.2668287 -0.456117E-01  0.154E+00    1.88       1.0  T
   4    -10.2500320  0.167967E-01  0.182E+00    1.86       1.0  T
   5    -10.2803691 -0.303371E-01  0.307E-01    1.86       1.0  T
   6    -10.2808691 -0.499993E-03  0.165E-01    1.85       1.0  T
   7    -10.2809661 -0.969777E-04  0.957E-02    1.84       1.0  T
   8    -10.2809974 -0.313236E-04  0.772E-03    1.84       5.8  T
   9    -10.2809974 -0.260665E-07  0.357E-03    1.84      12.5  T
  10    -10.2809974 -0.357395E-07  0.568E-04    1.84      78.8  T
  11    -10.2809974 -0.683404E-09  0.334E-04    1.84     134.0  T
     SCC iter.                  ...        0 min,  0.001 sec
     gradient                   ...        0 min,  0.001 sec
 * total energy  :   -10.1540109 Eh     change       -0.4879035E-01 Eh
   gradient norm :     0.1168913 Eh/α   predicted    -0.3593902E-01 ( -26.34%)
   displ. norm   :     0.3849282 α      lambda       -0.4186188E-01
   maximum displ.:     0.3203281 α      in ANC's #4, #6, #3, ...

........................................................................
.............................. CYCLE    3 ..............................
........................................................................
   1    -10.3388425 -0.103388E+02  0.402E+00    1.97       0.0  T
   2     -9.9061768  0.432666E+00  0.678E+00    2.31       1.0  T
   3    -10.3003114 -0.394135E+00  0.345E+00    1.94       1.0  T
   4    -10.3640469 -0.637355E-01  0.180E+00    2.06       1.0  T
   5    -10.3788006 -0.147537E-01  0.102E+00    2.04       1.0  T
   6    -10.3788087 -0.809263E-05  0.891E-01    2.04       1.0  T
   7    -10.3788599 -0.512058E-04  0.699E-01    2.04       1.0  T
   8    -10.3773720  0.148791E-02  0.782E-01    2.05       1.0  T
   9    -10.3773428  0.292218E-04  0.788E-01    2.05       1.0  T
  10    -10.3786219 -0.127909E-02  0.402E-01    2.05       1.0  T
  11    -10.3791590 -0.537097E-03  0.338E-02    2.04       1.3  T
  12    -10.3791600 -0.975936E-06  0.315E-02    2.04       1.4  T
  13    -10.3791602 -0.194745E-06  0.196E-02    2.04       2.3  T
  14    -10.3791610 -0.844042E-06  0.583E-03    2.04       7.7  T
  15    -10.3791611 -0.686340E-07  0.324E-03    2.04      13.8  T
  16    -10.3791611 -0.299132E-07  0.241E-04    2.04     185.3  T
  17    -10.3791611  0.704734E-10  0.254E-04    2.04     176.0  T
     SCC iter.                  ...        0 min,  0.002 sec
     gradient                   ...        0 min,  0.002 sec
 * total energy  :   -10.1673960 Eh     change       -0.1338504E-01 Eh
   gradient norm :     0.1361730 Eh/α   predicted    -0.2403228E-01 (  79.55%)
   displ. norm   :     0.5140006 α      lambda       -0.3052373E-01
   maximum displ.:     0.4432197 α      in ANC's #1, #3, #4, ...

........................................................................
.............................. CYCLE    4 ..............................
........................................................................
   1    -10.3491097 -0.103491E+02  0.208E+00    1.52       0.0  T
   2    -10.3464615  0.264822E-02  0.130E+00    1.49       1.0  T
   3    -10.3268459  0.196155E-01  0.189E+00    1.63       1.0  T
   4    -10.3264433  0.402622E-03  0.145E+00    1.46       1.0  T
   5    -10.3503138 -0.238705E-01  0.272E-01    1.52       1.0  T
   6    -10.3508576 -0.543843E-03  0.718E-02    1.51       1.0  T
   7    -10.3508871 -0.295198E-04  0.227E-02    1.51       2.0  T
   8    -10.3508869  0.279250E-06  0.827E-03    1.51       5.4  T
   9    -10.3508873 -0.427252E-06  0.309E-03    1.51      14.5  T
  10    -10.3508873 -0.310068E-07  0.130E-03    1.51      34.3  T
  11    -10.3508873 -0.129038E-07  0.355E-04    1.51     126.1  T
  12    -10.3508873 -0.268614E-09  0.147E-04    1.51     304.4  T
     SCC iter.                  ...        0 min,  0.001 sec
     gradient                   ...        0 min,  0.001 sec
 * total energy  :   -10.1843857 Eh     change       -0.1698975E-01 Eh
   gradient norm :     0.0709720 Eh/α   predicted    -0.1929400E-01 (  13.56%)
   displ. norm   :     0.3010869 α      lambda       -0.7069191E-02
   maximum displ.:     0.2693108 α      in ANC's #1, #4, #6, ...

........................................................................
.............................. CYCLE    5 ..............................
........................................................................
   1    -10.3416914 -0.103417E+02  0.103E+00    1.35       0.0  T
   2    -10.3413245  0.366893E-03  0.660E-01    1.33       1.0  T
   3    -10.3195388  0.217857E-01  0.142E+00    1.43       1.0  T
   4    -10.3405098 -0.209710E-01  0.370E-01    1.34       1.0  T
   5    -10.3418129 -0.130305E-02  0.335E-02    1.35       1.3  T
   6    -10.3418090  0.382213E-05  0.398E-02    1.35       1.1  T
   7    -10.3418147 -0.568780E-05  0.151E-02    1.35       3.0  T
   8    -10.3418160 -0.125916E-05  0.927E-04    1.35      48.3  T
   9    -10.3418160 -0.568830E-09  0.270E-04    1.35     165.3  T
  10    -10.3418160  0.374737E-09  0.309E-04    1.35     144.7  T
     SCC iter.                  ...        0 min,  0.001 sec
     gradient                   ...        0 min,  0.001 sec
 * total energy  :   -10.1887904 Eh     change       -0.4404655E-02 Eh
   gradient norm :     0.0771309 Eh/α   predicted    -0.3855014E-02 ( -12.48%)
   displ. norm   :     0.1773960 α      lambda       -0.7791686E-02
   maximum displ.:     0.1319100 α      in ANC's #4, #6, #1, ...

........................................................................
.............................. CYCLE    6 ..............................
........................................................................
   1    -10.3573344 -0.103573E+02  0.947E-01    1.38       0.0  T
   2    -10.3502940  0.704036E-02  0.101E+00    1.45       1.0  T
   3    -10.3484282  0.186586E-02  0.103E+00    1.34       1.0  T
   4    -10.3576009 -0.917275E-02  0.262E-01    1.39       1.0  T
   5    -10.3578565 -0.255599E-03  0.103E-01    1.38       1.0  T
   6    -10.3579487 -0.922061E-04  0.535E-02    1.39       1.0  T
   7    -10.3579584 -0.965695E-05  0.250E-02    1.39       1.8  T
   8    -10.3579613 -0.286194E-05  0.321E-03    1.39      14.0  T
   9    -10.3579613  0.550765E-08  0.266E-03    1.39      16.8  T
  10    -10.3579613 -0.508840E-07  0.153E-04    1.39     291.5  T
  11    -10.3579613 -0.358824E-10  0.816E-05    1.39     548.4  T
     SCC iter.                  ...        0 min,  0.001 sec
     gradient                   ...        0 min,  0.001 sec
 * total energy  :   -10.1945042 Eh     change       -0.5713816E-02 Eh
   gradient norm :     0.0448240 Eh/α   predicted    -0.4018441E-02 ( -29.67%)
   displ. norm   :     0.1707379 α      lambda       -0.4061491E-02
   maximum displ.:     0.1068601 α      in ANC's #4, #1, #6, ...

........................................................................
.............................. CYCLE    7 ..............................
........................................................................
   1    -10.3743511 -0.103744E+02  0.736E-01    1.36       0.0  T
   2    -10.3717123  0.263878E-02  0.693E-01    1.39       1.0  T
   3    -10.3680261  0.368618E-02  0.859E-01    1.33       1.0  T
   4    -10.3721759 -0.414977E-02  0.527E-01    1.38       1.0  T
   5    -10.3747216 -0.254566E-02  0.895E-02    1.36       1.0  T
   6    -10.3747877 -0.660975E-04  0.319E-02    1.36       1.4  T
   7    -10.3747897 -0.206178E-05  0.147E-02    1.36       3.0  T
   8    -10.3747907 -0.941011E-06  0.202E-03    1.36      22.2  T
   9    -10.3747907 -0.110116E-07  0.315E-04    1.36     141.8  T
  10    -10.3747907 -0.281339E-10  0.970E-05    1.36     461.3  T
     SCC iter.                  ...        0 min,  0.001 sec
     gradient                   ...        0 min,  0.001 sec
 * total energy  :   -10.1966669 Eh     change       -0.2162718E-02 Eh
   gradient norm :     0.0324523 Eh/α   predicted    -0.2089945E-02 (  -3.36%)
   displ. norm   :     0.2420760 α      lambda       -0.2546728E-02
   maximum displ.:     0.1693231 α      in ANC's #1, #4, #3, ...

........................................................................
.............................. CYCLE    8 ..............................
........................................................................
   1    -10.3666574 -0.103667E+02  0.826E-01    1.23       0.0  T
   2    -10.3613051  0.535225E-02  0.808E-01    1.18       1.0  T
   3    -10.3522777  0.902739E-02  0.123E+00    1.28       1.0  T
   4    -10.3663567 -0.140790E-01  0.262E-01    1.21       1.0  T
   5    -10.3670724 -0.715636E-03  0.702E-02    1.22       1.0  T
   6    -10.3670953 -0.229094E-04  0.397E-02    1.22       1.1  T
   7    -10.3670945  0.734238E-06  0.356E-02    1.22       1.3  T
   8    -10.3670996 -0.509394E-05  0.379E-03    1.22      11.8  T
   9    -10.3670997 -0.302011E-07  0.310E-03    1.22      14.4  T
  10    -10.3670997 -0.639711E-07  0.363E-04    1.22     123.1  T
  11    -10.3670997 -0.717902E-09  0.128E-04    1.22     348.6  T
     SCC iter.                  ...        0 min,  0.001 sec
     gradient                   ...        0 min,  0.001 sec
 * total energy  :   -10.1969516 Eh     change       -0.2846588E-03 Eh
   gradient norm :     0.0378352 Eh/α   predicted    -0.1347986E-02 ( 373.54%)
   displ. norm   :     0.0770270 α      lambda       -0.2094217E-02
   maximum displ.:     0.0597976 α      in ANC's #3, #4, #9, ...

........................................................................
.............................. CYCLE    9 ..............................
........................................................................
   1    -10.3757516 -0.103758E+02  0.472E-01    1.22       0.0  T
   2    -10.3709211  0.483049E-02  0.657E-01    1.24       1.0  T
   3    -10.3717146 -0.793477E-03  0.683E-01    1.21       1.0  T
   4    -10.3758632 -0.414866E-02  0.199E-01    1.22       1.0  T
   5    -10.3760885 -0.225247E-03  0.452E-02    1.21       1.0  T
   6    -10.3760943 -0.582464E-05  0.234E-02    1.21       1.9  T
   7    -10.3760980 -0.365713E-05  0.886E-03    1.22       5.0  T
   8    -10.3760981 -0.120833E-06  0.137E-03    1.22      32.7  T
   9    -10.3760981 -0.239626E-08  0.900E-04    1.22      49.7  T
  10    -10.3760981 -0.640570E-08  0.757E-05    1.22     590.8  T
     SCC iter.                  ...        0 min,  0.001 sec
     gradient                   ...        0 min,  0.001 sec
 * total energy  :   -10.1982343 Eh     change       -0.1282713E-02 Eh
   gradient norm :     0.0193492 Eh/α   predicted    -0.1053323E-02 ( -17.88%)
   displ. norm   :     0.0571290 α      lambda       -0.7416991E-03
   maximum displ.:     0.0362424 α      in ANC's #1, #8, #6, ...

........................................................................
.............................. CYCLE   10 ..............................
........................................................................
   1    -10.3835286 -0.103835E+02  0.389E-01    1.20       0.0  T
   2    -10.3804262  0.310242E-02  0.538E-01    1.21       1.0  T
   3    -10.3810894 -0.663218E-03  0.515E-01    1.19       1.0  T
   4    -10.3835825 -0.249310E-02  0.139E-01    1.20       1.0  T
   5    -10.3837070 -0.124441E-03  0.199E-02    1.19       2.2  T
   6    -10.3837082 -0.128087E-05  0.985E-03    1.19       4.5  T
   7    -10.3837086 -0.403238E-06  0.479E-03    1.19       9.3  T
   8    -10.3837087 -0.587628E-07  0.749E-04    1.19      59.7  T
   9    -10.3837087 -0.911902E-09  0.451E-04    1.19      99.2  T
     SCC iter.                  ...        0 min,  0.001 sec
     gradient                   ...        0 min,  0.001 sec
 * total energy  :   -10.1987636 Eh     change       -0.5293114E-03 Eh
   gradient norm :     0.0088007 Eh/α   predicted    -0.3720613E-03 ( -29.71%)
   displ. norm   :     0.1487342 α      lambda       -0.7062713E-03
   maximum displ.:     0.1281583 α      in ANC's #1, #6, #8, ...

........................................................................
.............................. CYCLE   11 ..............................
........................................................................
   1    -10.3822240 -0.103822E+02  0.704E-01    1.13       0.0  T
   2    -10.3807164  0.150760E-02  0.502E-01    1.11       1.0  T
   3    -10.3604933  0.202231E-01  0.141E+00    1.16       1.0  T
   4    -10.3819283 -0.214350E-01  0.243E-01    1.12       1.0  T
   5    -10.3823046 -0.376355E-03  0.403E-02    1.11       1.1  T
   6    -10.3823210 -0.163328E-04  0.166E-02    1.11       2.7  T
   7    -10.3823220 -0.101695E-05  0.633E-03    1.11       7.1  T
   8    -10.3823220 -0.465370E-07  0.951E-04    1.11      47.0  T
   9    -10.3823220 -0.256205E-08  0.672E-04    1.11      66.6  T
     SCC iter.                  ...        0 min,  0.001 sec
     gradient                   ...        0 min,  0.001 sec
 * total energy  :   -10.1990498 Eh     change       -0.2861603E-03 Eh
   gradient norm :     0.0136913 Eh/α   predicted    -0.3609480E-03 (  26.13%)
   displ. norm   :     0.0271144 α      lambda       -0.3008313E-03
   maximum displ.:     0.0174765 α      in ANC's #3, #8, #1, ...

........................................................................
.............................. CYCLE   12 ..............................
........................................................................
   1    -10.3875665 -0.103876E+02  0.169E-01    1.15       0.0  T
   2    -10.3861273  0.143914E-02  0.364E-01    1.14       1.0  T
   3    -10.3876036 -0.147631E-02  0.999E-02    1.15       1.0  T
   4    -10.3875990  0.462022E-05  0.755E-02    1.14       1.0  T
   5    -10.3876350 -0.359567E-04  0.620E-03    1.14       7.2  T
   6    -10.3876350 -0.424006E-08  0.492E-03    1.14       9.1  T
   7    -10.3876350 -0.602161E-07  0.797E-04    1.14      56.1  T
   8    -10.3876350 -0.830308E-09  0.353E-04    1.14     126.8  T
     SCC iter.                  ...        0 min,  0.001 sec
     gradient                   ...        0 min,  0.001 sec
 * total energy  :   -10.1991417 Eh     change       -0.9194138E-04 Eh
   gradient norm :     0.0063742 Eh/α   predicted    -0.1505251E-03 (  63.72%)
   displ. norm   :     0.0095176 α      lambda       -0.4580646E-04
   maximum displ.:     0.0057869 α      in ANC's #4, #9, #8, ...

........................................................................
.............................. CYCLE   13 ..............................
........................................................................
   1    -10.3854302 -0.103854E+02  0.734E-02    1.13       0.0  T
   2    -10.3851688  0.261348E-03  0.152E-01    1.14       1.0  T
   3    -10.3854119 -0.243025E-03  0.612E-02    1.13       1.0  T
   4    -10.3854423 -0.303988E-04  0.648E-03    1.14       6.9  T
   5    -10.3854425 -0.233067E-06  0.274E-03    1.14      16.3  T
   6    -10.3854424  0.636810E-07  0.327E-03    1.14      13.7  T
   7    -10.3854425 -0.683014E-07  0.815E-04    1.14      54.9  T
   8    -10.3854425 -0.860492E-09  0.589E-04    1.14      75.9  T
     SCC iter.                  ...        0 min,  0.001 sec
     gradient                   ...        0 min,  0.002 sec
 * total energy  :   -10.1991655 Eh     change       -0.2375718E-04 Eh
   gradient norm :     0.0006862 Eh/α   predicted    -0.2290405E-04 (  -3.59%)
   displ. norm   :     0.0032769 α      lambda       -0.7392926E-06
   maximum displ.:     0.0019683 α      in ANC's #1, #6, #3, ...

........................................................................
.............................. CYCLE   14 ..............................
........................................................................
   1    -10.3852612 -0.103853E+02  0.106E-02    1.14       0.0  T
   2    -10.3852600  0.124259E-05  0.126E-02    1.14       3.6  T
   3    -10.3852594  0.548545E-06  0.133E-02    1.14       3.4  T
   4    -10.3852608 -0.141514E-05  0.642E-03    1.14       7.0  T
   5    -10.3852613 -0.456715E-06  0.111E-03    1.14      40.3  T
   6    -10.3852613 -0.481403E-08  0.298E-04    1.14     150.2  T
   7    -10.3852613  0.320616E-09  0.229E-04    1.14     195.7  T
     SCC iter.                  ...        0 min,  0.001 sec
     gradient                   ...        0 min,  0.001 sec
 * total energy  :   -10.1991659 Eh     change       -0.4698179E-06 Eh
   gradient norm :     0.0001655 Eh/α   predicted    -0.3676917E-06 ( -21.74%)
   displ. norm   :     0.0005784 α      lambda       -0.3824021E-07
   maximum displ.:     0.0004308 α      in ANC's #1, #4, #9, ...

   *** GEOMETRY OPTIMIZATION CONVERGED AFTER 14 ITERATIONS ***

------------------------------------------------------------------------
 total energy gain   :        -0.0939453 Eh      -58.9516 kcal/mol
 total RMSD          :         0.8717390 a0        0.4613 Å
 total power (kW/mol):       -17.6181042 (step)-4300.9940 (real)
------------------------------------------------------------------------

 ANCopt (total)                0 d,  0 h,  0 min,  0.057 sec
 optimizer setup                ...        0 min,  0.000 sec (  0.124%)
 model hessian                  ...        0 min,  0.000 sec (  0.165%)
 ANC generation                 ...        0 min,  0.000 sec (  0.098%)
 coordinate transformation      ...        0 min,  0.000 sec (  0.056%)
 single point calculation       ...        0 min,  0.056 sec ( 97.596%)
 optimization log               ...        0 min,  0.000 sec (  0.614%)
 hessian update                 ...        0 min,  0.000 sec (  0.059%)
 rational function              ...        0 min,  0.000 sec (  0.530%)

================
 final structure:
================
5
 xtb: 6.2.2 (9d81278992624c895f80dd42a50cac0aa55982e2)
C        -1.56490594253970    0.18014297179014   -0.04067858267228
C        -0.53311108990852   -0.35289183738276   -0.78048953087142
C         0.68159166063678   -0.00981669181738    0.00040654083312
C        -0.52813805538741    0.06017583425695    0.85752577928461
C         1.94456442719885    0.12238972315305   -0.03676520657404

 Bond Distances (Angstroems)
 ---------------------------
C1-C2=1.3770         C1-C4=1.3770         C2-C1=1.3770         C2-C3=1.4843         C2-C4=1.6893         C3-C2=1.4843         
C3-C4=1.4843         C3-C5=1.2704         C4-C1=1.3770         C4-C2=1.6893         C4-C3=1.4843         C5-C3=1.2704         
 C  C  Rav=1.4470 sigma=0.1307  Rmin=1.2704  Rmax=1.6893     6

 selected bond angles (degree)
 --------------------
C4-C1-C2= 75.67                C3-C2-C1=103.95                C4-C2-C1= 52.16                C4-C2-C3= 55.31                
C4-C3-C2= 69.37                C5-C3-C2=145.31                C5-C3-C4=145.31                C2-C4-C1= 52.16                
C3-C4-C1=103.95                C3-C4-C2= 55.31                

 selected dihedral angles (degree)
 ---------------------------------
C3-C2-C1-C4=339.30            C4-C3-C2-C1= 19.85            C5-C3-C2-C1=199.03            C5-C3-C2-C4=179.18            
C3-C4-C1-C2= 20.70            C1-C4-C2-C3=155.34            C3-C4-C2-C1=204.66            C1-C4-C3-C2=340.15            
C1-C4-C3-C5=160.97            C2-C4-C3-C5=180.82            
           -------------------------------------------------
          |                Final Singlepoint                |
           -------------------------------------------------

          ...................................................
          :                      SETUP                      :
          :.................................................:
          :  # basis functions                  20          :
          :  # atomic orbitals                  20          :
          :  # shells                           10          :
          :  # electrons                        20          :
          :  max. iterations                   250          :
          :  Hamiltonian                  GFN2-xTB          :
          :  restarted?                      false          :
          :  GBSA solvation                  false          :
          :  PC potential                    false          :
          :  electronic temp.          300.0000000     K    :
          :  accuracy                    1.0000000          :
          :  -> integral cutoff          0.2500000E+02      :
          :  -> integral neglect         0.1000000E-07      :
          :  -> SCF convergence          0.1000000E-05 Eh   :
          :  -> wf. convergence          0.1000000E-03 e    :
          :  Broyden damping             0.4000000          :
          ...................................................

 iter      E             dE          RMSdq      gap      omega  full diag
   1    -10.3852613 -0.103853E+02  0.745E-05    1.14       0.0  T
   2    -10.3852613  0.327951E-10  0.686E-05    1.14     652.2  T
   3    -10.3852613  0.155650E-09  0.128E-04    1.14     348.8  T

   *** convergence criteria satisfied after 3 iterations ***

         #    Occupation            Energy/Eh            Energy/eV
      -------------------------------------------------------------
         1        2.0000           -0.7380784             -20.0841
       ...           ...                  ...                  ...
         5        2.0000           -0.5552711             -15.1097
         6        2.0000           -0.5456998             -14.8492
         7        2.0000           -0.4739295             -12.8963
         8        2.0000           -0.4628129             -12.5938
         9        2.0000           -0.4560025             -12.4085
        10        1.0000           -0.4205500             -11.4437
        11        1.0000           -0.4054289             -11.0323 (HOMO)
        12                         -0.3636772              -9.8962 (LUMO)
        13                         -0.3036965              -8.2640
        14                         -0.2625756              -7.1450
        15                         -0.1832023              -4.9852
        16                          0.0799624               2.1759
       ...                                ...                  ...
        20                          0.8362492              22.7555
      -------------------------------------------------------------
                  HL-Gap            0.0417516 Eh            1.1361 eV
             Fermi-level           -0.4114145 Eh          -11.1952 eV

 transition dipole moment (au) for excitation:          10          11
     X       Y       Z   
   0.0003   0.0209   0.0830  total (au/Debye):    0.086   0.218
 dE (eV)             :    0.411
 oscillator strength :  0.10450E-03

 SCC (total)                   0 d,  0 h,  0 min,  0.005 sec
 SCC setup                      ...        0 min,  0.000 sec (  1.792%)
 Dispersion                     ...        0 min,  0.000 sec (  0.348%)
 integral evaluation            ...        0 min,  0.001 sec ( 29.697%)
 zeroth order Hamiltonian       ...        0 min,  0.000 sec (  0.353%)
 iterations                     ...        0 min,  0.001 sec ( 12.396%)
 molecular gradient             ...        0 min,  0.001 sec ( 31.905%)
 printout                       ...        0 min,  0.001 sec ( 23.337%)

         :::::::::::::::::::::::::::::::::::::::::::::::::::::
         ::                     SUMMARY                     ::
         :::::::::::::::::::::::::::::::::::::::::::::::::::::
         :: total energy             -10.199165923962 Eh    ::
         :: gradient norm              0.000166258880 Eh/a0 ::
         :: HOMO-LUMO gap              1.136119994364 eV    ::
         ::.................................................::
         :: SCC energy               -10.385261284617 Eh    ::
         :: -> isotropic ES           -0.011375804489 Eh    ::
         :: -> anisotropic ES          0.001538181274 Eh    ::
         :: -> anisotropic XC          0.007515488482 Eh    ::
         :: -> dispersion             -0.002948083056 Eh    ::
         :: repulsion energy           0.186095366327 Eh    ::
         :: add. restraining           0.000000000000 Eh    ::
         :::::::::::::::::::::::::::::::::::::::::::::::::::::

           ------------------------------------------------- 
          |                Numerical Hessian                |
           ------------------------------------------------- 
step length          :   0.00500
SCC accuracy         :   0.30000
Hessian scale factor :   1.00000
frozen atoms in %    :   0.00000    0
RMS gradient         :   0.00017
estimated CPU  time      0.00 min
estimated wall time      0.00 min

writing file <hessian>.

 projected vibrational frequencies (cm-1)
eigval :       -0.00    -0.00     0.00     0.00     0.00     0.00
eigval :      223.35   300.43   440.91   540.11   555.94   937.68
eigval :      977.54  1487.21  1714.41
           -------------------------------------------------
          |                Property Printout                |
           -------------------------------------------------

    * Orbital Energies and Occupations

         #    Occupation            Energy/Eh            Energy/eV
      -------------------------------------------------------------
         1        2.0000           -0.7380788             -20.0841
         2        2.0000           -0.6789645             -18.4756
         3        2.0000           -0.6191268             -16.8473
         4        2.0000           -0.6159659             -16.7613
         5        2.0000           -0.5552715             -15.1097
         6        2.0000           -0.5457000             -14.8493
         7        2.0000           -0.4739295             -12.8963
         8        2.0000           -0.4628131             -12.5938
         9        2.0000           -0.4560020             -12.4084
        10        1.0000           -0.4205502             -11.4438
        11        1.0000           -0.4054287             -11.0323 (HOMO)
        12                         -0.3636772              -9.8962 (LUMO)
        13                         -0.3036966              -8.2640
        14                         -0.2625758              -7.1451
        15                         -0.1832021              -4.9852
        16                          0.0799623               2.1759
        17                          0.1387850               3.7765
        18                          0.1835179               4.9938
        19                          0.4237341              11.5304
        20                          0.8362497              22.7555
      -------------------------------------------------------------
                  HL-Gap            0.0417515 Eh            1.1361 eV
             Fermi-level           -0.4114143 Eh          -11.1952 eV

     #   Z        covCN         q      C6AA      α(0)
     1   6 C      2.047    -0.006    31.147     9.014
     2   6 C      2.891     0.004    27.927     8.664
     3   6 C      3.023     0.105    25.664     8.310
     4   6 C      2.891     0.004    27.927     8.664
     5   6 C      0.982    -0.107    39.332    10.534

 Mol. C6AA /au·bohr⁶  :        755.399820
 Mol. C8AA /au·bohr⁸  :      21847.475506
 Mol. α(0) /au        :         45.186540


Wiberg/Mayer (AO) data.
largest (>0.10) Wiberg bond orders for each atom
          total WBO             WBO to atom ...
     1  C   2.960        C    2 1.317    C    4 1.317    C    5 0.254
     2  C   3.047        C    1 1.317    C    3 0.857    C    4 0.782
     3  C   3.814        C    5 2.028    C    4 0.857    C    2 0.857
     4  C   3.047        C    1 1.317    C    3 0.857    C    2 0.782
     5  C   2.465        C    3 2.028    C    1 0.254

MOs/occ written to file <molden.input>


molecular dipole:
                 x           y           z       tot (Debye)
 q only:       -0.248      -0.031       0.009
   full:       -0.414      -0.070       0.019       1.068
molecular quadrupole (traceless):
                xx          xy          yy          xz          yz          zz
Molecule has the following symmetry elements: (sigma) 
It seems to be the Cs point group
 q only:       -1.324      -0.127       0.644       0.038       0.010       0.680
  q+dip:       -1.873       0.131       1.702      -0.027      -0.413       0.170
   full:       -4.396       0.547       3.719      -0.123      -0.821       0.677

           -------------------------------------------------
          |                Geometry Summary                 |
           -------------------------------------------------

      molecular mass/u    :       60.0536795
   center of mass at/Å    :        0.0000002      -0.0000000      -0.0000002
  moments of inertia/u·Å² :        0.1827261E+02   0.8833050E+02   0.1043335E+03
rotational constants/cm⁻¹ :        0.9225627E+00   0.1908472E+00   0.1615746E+00

 * 3 selected distances

     #   Z        #   Z                                     value/Å
     1   6 C      2   6 C                                 1.3769702
     1   6 C      4   6 C                                 1.3769716 (max)
     3   6 C      5   6 C                                 1.2704174 (min)

 * 1 distinct bonds (by element types)

   Z      Z             #   av. dist./Å        max./Å        min./Å
   6 C    6 C           3     1.3414531     1.3769716     1.2704174

           -------------------------------------------------
          |               Frequency Printout                |
           -------------------------------------------------
 projected vibrational frequencies (cm-1)
eigval :       -0.00    -0.00     0.00     0.00     0.00     0.00
eigval :      223.35   300.43   440.91   540.11   555.94   937.68
eigval :      977.54  1487.21  1714.41
 reduced masses (amu)
   1: 12.01   2: 12.01   3: 12.01   4: 12.01   5: 12.01   6: 12.01   7: 12.01   8: 12.01
   9: 12.01  10: 12.01  11: 12.01  12: 12.01  13: 12.01  14: 12.01  15: 12.01
 IR intensities (amu)
   1:  0.07   2:  0.04   3:  0.05   4:  0.05   5:  0.02   6:  0.06   7:  0.30   8:  0.19
   9:  0.20  10:  0.27  11:  1.01  12:  1.29  13:  0.55  14:  0.52  15:  1.27
 Raman intensities (amu)
   1:  0.00   2:  0.00   3:  0.00   4:  0.00   5:  0.00   6:  0.00   7:  0.00   8:  0.00
   9:  0.00  10:  0.00  11:  0.00  12:  0.00  13:  0.00  14:  0.00  15:  0.00
 output can be read by thermo (or use thermo option).
 writing <g98.out> molden fake output.
 recommended (thermochemical) frequency scaling factor: 1.0
           -------------------------------------------------
          |             Thermodynamic Functions             |
           -------------------------------------------------

cs  symmetry found (for desy threshold:  0.10E+00) used in thermo

          ...................................................
          :                      SETUP                      :
          :.................................................:
          :  # frequencies                           9      :
          :  # imaginary freq.                       0      :
          :  linear?                             false      :
          :  only rotor calc.                    false      :
          :  symmetry                               cs      :
          :  rotational number                       1      :
          :  scaling factor                  1.0000000      :
          :  rotor cutoff                   50.0000000 cm⁻¹ :
          :  imag. cutoff                  -20.0000000 cm⁻¹ :
          :.................................................:

    mode    ω/cm⁻¹     T·S(HO)/kcal·mol⁻¹    T·S(FR)/kcal·mol⁻¹   T·S(vib)
   ------------------------------------------------------------------------
       1    223.35    -0.00000 ( 99.75%)     0.01318 (  0.25%)     0.00003
   ------------------------------------------------------------------------

   temp. (K)  partition function   enthalpy   heat capacity  entropy
                                   cal/mol     cal/K/mol   cal/K/mol   J/K/mol
 298.15  VIB   2.66                 1062.046      8.114      5.508
         ROT  0.313E+05              888.752      2.981     23.555
         INT  0.834E+05             1950.799     11.095     29.062
         TR   0.450E+27             1481.254      4.968     38.181
         TOT                        3432.0527    16.0628    67.2431   281.3452

   temp. (K)  partition function   enthalpy   heat capacity  entropy
                                   cal/mol     cal/K/mol   cal/K/mol   J/K/mol
 120.00  VIB   1.11                   82.069      2.403      0.898
         ROT  0.800E+04              357.707      2.981     20.842
         INT  0.891E+04              439.776      5.384     21.740
         TR   0.115E+27              596.178      4.968     33.661
         TOT                        1035.9543    10.3519    55.4013   231.7992

   temp. (K)  partition function   enthalpy   heat capacity  entropy
                                   cal/mol     cal/K/mol   cal/K/mol   J/K/mol
 100.00  VIB   1.06                   41.718      1.637      0.532
         ROT  0.609E+04              298.089      2.981     20.298
         INT  0.645E+04              339.807      4.618     20.831
         TR   0.875E+26              496.815      4.968     32.756
         TOT                         836.6219     9.5861    53.5867   224.2067

   temp. (K)  partition function   enthalpy   heat capacity  entropy
                                   cal/mol     cal/K/mol   cal/K/mol   J/K/mol
  80.00  VIB   1.02                   16.216      0.928      0.250
         ROT  0.436E+04              238.471      2.981     19.633
         INT  0.446E+04              254.687      3.909     19.884
         TR   0.626E+26              397.452      4.968     31.648
         TOT                         652.1392     8.8769    51.5316   215.6080

   temp. (K)  partition function   enthalpy   heat capacity  entropy
                                   cal/mol     cal/K/mol   cal/K/mol   J/K/mol
  60.00  VIB   1.01                    3.706      0.355      0.074
         ROT  0.283E+04              178.853      2.981     18.776
         INT  0.285E+04              182.560      3.336     18.849
         TR   0.406E+26              298.089      4.968     30.219
         TOT                         480.6487     8.3045    49.0688   205.3038

   temp. (K)  partition function   enthalpy   heat capacity  entropy
                                   cal/mol     cal/K/mol   cal/K/mol   J/K/mol
  40.00  VIB   1.00                    0.225      0.046      0.006
         ROT  0.154E+04              119.236      2.981     17.567
         INT  0.154E+04              119.460      3.027     17.573
         TR   0.221E+26              198.726      4.968     28.206
         TOT                         318.1864     7.9954    45.7790   191.5393

   temp. (K)  partition function   enthalpy   heat capacity  entropy
                                   cal/mol     cal/K/mol   cal/K/mol   J/K/mol
  20.00  VIB   1.00                    0.000      0.000     -0.003
         ROT   545.                   59.618      2.981     15.501
         INT   545.                   59.618      2.981     15.498
         TR   0.782E+25               99.363      4.968     24.764
         TOT                         158.9809     7.9491    40.2621   168.4565

   temp. (K)  partition function   enthalpy   heat capacity  entropy
                                   cal/mol     cal/K/mol   cal/K/mol   J/K/mol
  10.00  VIB   1.00                    0.000      0.000     -0.005
         ROT   193.                   29.809      2.981     13.435
         INT   193.                   29.809      2.981     13.429
         TR   0.277E+25               49.681      4.968     21.322
         TOT                          79.4904     7.9490    34.7514   145.3999

       T/K    H(0)-H(T)+PV         H(T)/Eh          T*S/Eh         G(T)/Eh
   ------------------------------------------------------------------------
    298.15    0.546932E-02    0.218210E-01    0.319494E-01   -0.101283E-01
    120.00    0.165090E-02    0.180026E-01    0.105945E-01    0.740810E-02
    100.00    0.133324E-02    0.176850E-01    0.853958E-02    0.914538E-02
     80.00    0.103925E-02    0.173910E-01    0.656966E-02    0.108213E-01
     60.00    0.765962E-03    0.171177E-01    0.469176E-02    0.124259E-01
     40.00    0.507062E-03    0.168588E-01    0.291814E-02    0.139406E-01
     20.00    0.253352E-03    0.166051E-01    0.128323E-02    0.153218E-01
     10.00    0.126676E-03    0.164784E-01    0.553799E-03    0.159246E-01 (used)
   ------------------------------------------------------------------------

         :::::::::::::::::::::::::::::::::::::::::::::::::::::
         ::                  THERMODYNAMIC                  ::
         :::::::::::::::::::::::::::::::::::::::::::::::::::::
         :: total free energy         -10.183241330080 Eh   ::
         ::.................................................::
         :: total energy              -10.199165925730 Eh   ::
         :: zero point energy           0.016351718665 Eh   ::
         :: G(RRHO) w/o ZPVE           -0.000427123015 Eh   ::
         :: G(RRHO) contrib.            0.015924595650 Eh   ::
         :::::::::::::::::::::::::::::::::::::::::::::::::::::

optimized geometry written to: xtbopt.xyz


           -------------------------------------------------
          | TOTAL ENERGY              -10.199165925730 Eh   |
          | TOTAL ENTHALPY            -10.182687531050 Eh   |
          | TOTAL FREE ENERGY         -10.183241330080 Eh   |
          | GRADIENT NORM               0.000165892067 Eh/α |
          | HOMO-LUMO GAP               1.136117474293 eV   |
           -------------------------------------------------

------------------------------------------------------------------------
 * finished run on 2020/05/12 at 11:44:36.462     
------------------------------------------------------------------------
 total:
 * wall-time:     0 d,  0 h,  0 min,  0.200 sec
 *  cpu-time:     0 d,  0 h,  0 min,  0.200 sec
 * ratio c/w:     0.998 speedup
 SCF:
 * wall-time:     0 d,  0 h,  0 min,  0.008 sec
 *  cpu-time:     0 d,  0 h,  0 min,  0.008 sec
 * ratio c/w:     0.997 speedup
 ANC optimizer:
 * wall-time:     0 d,  0 h,  0 min,  0.063 sec
 *  cpu-time:     0 d,  0 h,  0 min,  0.063 sec
 * ratio c/w:     0.998 speedup
 numerical hessian:
 * wall-time:     0 d,  0 h,  0 min,  0.112 sec
 *  cpu-time:     0 d,  0 h,  0 min,  0.112 sec
 * ratio c/w:     0.998 speedup

