 Entering Gaussian System
 *********************************************
 Gaussian 98:
 frequency output generated by the xtb code
 *********************************************
                         Standard orientation:
 --------------------------------------------------------------------
  Center     Atomic     Atomic              Coordinates (Angstroms)
  Number     Number      Type              X           Y           Z
 --------------------------------------------------------------------
    1          6             0       -1.564905    0.180151   -0.040673
    2          6             0       -0.533116   -0.352890   -0.780487
    3          6             0        0.681592   -0.009820    0.000404
    4          6             0       -0.528135    0.060180    0.857528
    5          6             0        1.944565    0.122379   -0.036772
 --------------------------------------------------------------------
     1 basis functions        1 primitive gaussians
     1 alpha electrons        1 beta electrons

 Harmonic frequencies (cm**-1), IR intensities (KM/Mole),
 Raman scattering activities (A**4/amu), Raman depolarization ratios,
 reduced masses (AMU), force constants (mDyne/A) and normal coordinates:
                      1                      2                      3
                        a                      a                      a 
 Frequencies --   223.3529               300.4258               440.9142
 Red. masses --    12.0107                12.0107                12.0107
 Frc consts  --     0.0000                 0.0000                 0.0000
 IR Inten    --     0.2968                 0.1926                 0.1965
 Raman Activ --     0.0000                 0.0000                 0.0000
 Depolar     --     0.0000                 0.0000                 0.0000
 Atom AN      X      Y      Z        X      Y      Z        X      Y      Z
   1   6     0.30   0.54  -0.14    -0.00  -0.06  -0.24     0.23   0.19  -0.05
   2   6    -0.02  -0.30   0.01     0.32   0.13   0.11     0.04  -0.34  -0.00
   3   6    -0.10  -0.40   0.10     0.00   0.14   0.54    -0.24   0.71  -0.18
   4   6    -0.02  -0.27   0.14    -0.32  -0.06   0.16     0.04  -0.30   0.17
   5   6    -0.17   0.44  -0.11    -0.00  -0.15  -0.58    -0.07  -0.26   0.07
                      4                      5                      6
                        a                      a                      a 
 Frequencies --   540.1132               555.9384               937.6769
 Red. masses --    12.0107                12.0107                12.0107
 Frc consts  --     0.0000                 0.0000                 0.0000
 IR Inten    --     0.2705                 1.0129                 1.2888
 Raman Activ --     0.0000                 0.0000                 0.0000
 Depolar     --     0.0000                 0.0000                 0.0000
 Atom AN      X      Y      Z        X      Y      Z        X      Y      Z
   1   6    -0.39   0.27  -0.07     0.00   0.02   0.09     0.00   0.16   0.63
   2   6    -0.12  -0.11   0.50    -0.38  -0.16  -0.33     0.42  -0.20  -0.28
   3   6     0.32   0.12  -0.03     0.00   0.17   0.64    -0.00   0.00   0.01
   4   6    -0.12  -0.33  -0.39     0.38  -0.02  -0.37    -0.42   0.04  -0.34
   5   6     0.31   0.05  -0.01    -0.00  -0.01  -0.02    -0.00  -0.00  -0.02
                      7                      8                      9
                        a                      a                      a 
 Frequencies --   977.5370              1487.2065              1714.4100
 Red. masses --    12.0107                12.0107                12.0107
 Frc consts  --     0.0000                 0.0000                 0.0000
 IR Inten    --     0.5485                 0.5191                 1.2683
 Raman Activ --     0.0000                 0.0000                 0.0000
 Depolar     --     0.0000                 0.0000                 0.0000
 Atom AN      X      Y      Z        X      Y      Z        X      Y      Z
   1   6    -0.03  -0.00  -0.00     0.68  -0.19   0.05    -0.18   0.07  -0.02
   2   6     0.41   0.15   0.37    -0.33   0.15   0.27     0.03  -0.09  -0.15
   3   6    -0.28  -0.05   0.01     0.19   0.06  -0.01     0.72   0.10  -0.03
   4   6     0.41  -0.05  -0.40    -0.34   0.01  -0.31     0.03  -0.01   0.18
   5   6    -0.51  -0.05   0.01    -0.20  -0.03   0.01    -0.61  -0.07   0.02
