$hessian                                                                        
        0.5352907145  -0.1522810864   0.0372786711  -0.2348195541   0.1211884823
        0.1902333227  -0.0586433802   0.0216703407  -0.0053170040  -0.2367809385
        0.0168977101  -0.2240740289  -0.0050468417  -0.0074754467   0.0018790390
       -0.1522810864   0.0723320916   0.0254711886   0.0868393232  -0.0650538934
       -0.0675750335   0.0399236699   0.0104553910  -0.0016256423   0.0386982823
       -0.0194584380   0.0436727713  -0.0131801890   0.0017248489   0.0000567158
        0.0372786711   0.0254711886   0.1647879565   0.0809048519  -0.0412147673
       -0.0638466155  -0.0098870318  -0.0014494096   0.0048513062  -0.1116349525
        0.0172299627  -0.1074678459   0.0033384613  -0.0000369744   0.0016751987
       -0.2348195541   0.0868393232   0.0809048519   0.2815584564  -0.0517619026
       -0.0665347630  -0.0875792439  -0.0297942097  -0.0196313360   0.0955961451
        0.0011602607   0.0129251367  -0.0547558034  -0.0064434716  -0.0076638896
        0.1211884823  -0.0650538934  -0.0412147673  -0.0517619026   0.0791488471
        0.1080241110  -0.0734417357  -0.0300598080  -0.0044504179  -0.0056641809
        0.0115260460  -0.0596975165   0.0096793368   0.0044388083  -0.0026614092
        0.1902333227  -0.0675750335  -0.0638466155  -0.0665347630   0.1080241110
        0.2454745827  -0.1147792560  -0.0121187150  -0.0264273846  -0.0134964884
       -0.0298525491  -0.1549587719   0.0045771846   0.0015221866  -0.0002418107
       -0.0586433802   0.0399236699  -0.0098870318  -0.0875792439  -0.0734417357
       -0.1147792560   0.7777198580   0.0998289081  -0.0273222713  -0.0867017276
       -0.0101271081   0.1362290909  -0.5447955062  -0.0561837343   0.0157594682
        0.0216703407   0.0104553910  -0.0014494096  -0.0297942097  -0.0300598080
       -0.0121187150   0.0998289081   0.0709932132   0.0004996969  -0.0166354310
       -0.0222940105   0.0095336240  -0.0750696080  -0.0290947857   0.0035348037
       -0.0053170040  -0.0016256423   0.0048513062  -0.0196313360  -0.0044504179
       -0.0264273846  -0.0273222713   0.0004996969   0.0734400668   0.0317606476
        0.0022005252  -0.0349045200   0.0205099637   0.0033758381  -0.0169594685
       -0.2367809385   0.0386982823  -0.1116349525   0.0955961451  -0.0056641809
       -0.0134964884  -0.0867017276  -0.0166354310   0.0317606476   0.2826155787
       -0.0143715681   0.0832124589  -0.0547290576  -0.0020271023   0.0101583344
        0.0168977101  -0.0194584380   0.0172299627   0.0011602607   0.0115260460
       -0.0298525491  -0.0101271081  -0.0222940105   0.0022005252  -0.0143715681
        0.0263801592   0.0100601147   0.0064407053   0.0038462433   0.0003619466
       -0.2240740289   0.0436727713  -0.1074678459   0.0129251367  -0.0596975165
       -0.1549587719   0.1362290909   0.0095336240  -0.0349045200   0.0832124589
        0.0100601147   0.2970170955  -0.0082926576  -0.0035689934   0.0003140424
       -0.0050468417  -0.0131801890   0.0033384613  -0.0547558034   0.0096793368
        0.0045771846  -0.5447955062  -0.0750696080   0.0205099637  -0.0547290576
        0.0064407053  -0.0082926576   0.6593272090   0.0721297548  -0.0201329520
       -0.0074754467   0.0017248489  -0.0000369744  -0.0064434716   0.0044388083
        0.0015221866  -0.0561837343  -0.0290947857   0.0033758381  -0.0020271023
        0.0038462433  -0.0035689934   0.0721297548   0.0190848852  -0.0012920569
        0.0018790390   0.0000567158   0.0016751987  -0.0076638896  -0.0026614092
       -0.0002418107   0.0157594682   0.0035348037  -0.0169594685   0.0101583344
        0.0003619466   0.0003140424  -0.0201329520  -0.0012920569   0.0152120381
