5
 energy: -10.105220583549 gnorm: 0.205709057866 xtb: 6.2.2 (9d81278992624c895f80dd42a50cac0aa55982e2)
C        -1.36653800000000    0.64998400000000   -0.15976600000000
C        -0.52619800000000   -0.51465200000000   -0.64789700000000
C         0.76507100000000   -0.59351000000000    0.14735100000000
C        -0.52176300000000   -0.14512700000000    0.81746400000000
C         1.64942900000000    0.60330500000000   -0.15715300000000
5
 energy: -10.154010930147 gnorm: 0.116891736991 xtb: 6.2.2 (9d81278992624c895f80dd42a50cac0aa55982e2)
C        -1.39380123537334    0.54878896345609   -0.13416449687448
C        -0.50411888361326   -0.46617090913707   -0.68051678056994
C         0.73695049174682   -0.50027933706636    0.12392447715874
C        -0.49956444299613   -0.08700684042333    0.82306658647032
C         1.66053507023591    0.50466812317068   -0.13231078618464
5
 energy: -10.167395973293 gnorm: 0.136592605218 xtb: 6.2.2 (9d81278992624c895f80dd42a50cac0aa55982e2)
C        -1.30558724117955    0.48783722275726   -0.11905887078622
C        -0.51791103398605   -0.47485029349255   -0.70485480723720
C         0.70209806960215   -0.36148917612262    0.08903084264415
C        -0.51319653656247   -0.08308273625148    0.84868003898485
C         1.63459774212592    0.43158498310939   -0.11379820360557
5
 energy: -10.184385723674 gnorm: 0.071856901642 xtb: 6.2.2 (9d81278992624c895f80dd42a50cac0aa55982e2)
C        -1.41096199092524    0.40252940071361   -0.09722545339975
C        -0.54555156888842   -0.46085797268567   -0.73072765263132
C         0.66630289695634   -0.26654979090374    0.06519813728612
C        -0.54070609561142   -0.05845491661632    0.86497925370109
C         1.83091775846874    0.38333327949212   -0.10222528495615
5
 energy: -10.188790378590 gnorm: 0.078173544006 xtb: 6.2.2 (9d81278992624c895f80dd42a50cac0aa55982e2)
C        -1.48135287504039    0.34331370887476   -0.08207898189401
C        -0.54209827611558   -0.43815911725986   -0.75859277339736
C         0.66027230900408   -0.19898747533045    0.04817805727263
C        -0.53712420487222   -0.02526173614376    0.87872783635304
C         1.90030404702411    0.31909461985930   -0.08623513833430
5
 energy: -10.194504194893 gnorm: 0.045327923365 xtb: 6.2.2 (9d81278992624c895f80dd42a50cac0aa55982e2)
C        -1.47844958284843    0.31281808948806   -0.07439927807124
C        -0.54063729437979   -0.43535384574034   -0.78182772861303
C         0.65711699028516   -0.13622429793966    0.03235856280889
C        -0.53553677177634   -0.01177836656607    0.89784967417748
C         1.89750765871939    0.27053842075802   -0.07398223030211
5
 energy: -10.196666912825 gnorm: 0.032954594917 xtb: 6.2.2 (9d81278992624c895f80dd42a50cac0aa55982e2)
C        -1.49111900020530    0.27457516256405   -0.06471629998416
C        -0.53131395579959   -0.41593468345552   -0.79895811882606
C         0.65955268871815   -0.09175501702975    0.02113903008826
C        -0.52614843860687    0.01342432588477    0.90367064204664
C         1.88902970589360    0.21969021203645   -0.06113625332469
5
 energy: -10.196951571590 gnorm: 0.039162865917 xtb: 6.2.2 (9d81278992624c895f80dd42a50cac0aa55982e2)
C        -1.51097180952291    0.21776425767539   -0.05032902755470
C        -0.53913137552923   -0.39963029845068   -0.80996555575312
C         0.64949956421412   -0.01522282611185    0.00187117278922
C        -0.53392885160120    0.03300713052370    0.90567513268314
C         1.93453347243922    0.16408173636344   -0.04725272216454
5
 energy: -10.198234284470 gnorm: 0.019371810317 xtb: 6.2.2 (9d81278992624c895f80dd42a50cac0aa55982e2)
C        -1.52129128681454    0.22220368029504   -0.05141790013753
C        -0.53112366251638   -0.38880903703055   -0.80166912109131
C         0.65853248142242   -0.04107662941995    0.00836131531087
C        -0.52598106102244    0.03859158848534    0.89319378978551
C         1.91986452893093    0.16909039767012   -0.04846908386754
5
 energy: -10.198763595850 gnorm: 0.008830626553 xtb: 6.2.2 (9d81278992624c895f80dd42a50cac0aa55982e2)
C        -1.53194077953707    0.21139933053550   -0.04866109860622
C        -0.53039567414641   -0.37661191048712   -0.79250186079270
C         0.66615689622282   -0.03756978979942    0.00745293053725
C        -0.52532239647772    0.04498292090300    0.87933513251758
C         1.92150295393838    0.15779944884803   -0.04562610365592
5
 energy: -10.199049756167 gnorm: 0.013772478880 xtb: 6.2.2 (9d81278992624c895f80dd42a50cac0aa55982e2)
C        -1.56852238221793    0.17972797145817   -0.04056169385035
C        -0.52872956807826   -0.35088631433578   -0.78387041374705
C         0.67862507259899   -0.01615122337287    0.00201544742738
C        -0.52374110199458    0.06353706588512    0.85952417740498
C         1.94236897969177    0.12377250036536   -0.03710851723496
5
 energy: -10.199141697548 gnorm: 0.006429322642 xtb: 6.2.2 (9d81278992624c895f80dd42a50cac0aa55982e2)
C        -1.56343588084208    0.18133930044864   -0.04098220482314
C        -0.53374639219431   -0.35259960699076   -0.77727158314636
C         0.68228954205780   -0.01199066449964    0.00095655207904
C        -0.52879007018077    0.05890790521921    0.85455196632413
C         1.94368380115936    0.12434306582255   -0.03725573043368
5
 energy: -10.199165454730 gnorm: 0.000703347224 xtb: 6.2.2 (9d81278992624c895f80dd42a50cac0aa55982e2)
C        -1.56452953789445    0.18057745189708   -0.04078789762021
C        -0.53289479439800   -0.35292104027020   -0.78028823287325
C         0.68125095152298   -0.01095375394372    0.00069602689283
C        -0.52791924692750    0.06005560687793    0.85735691062421
C         1.94409362769696    0.12324173543890   -0.03697780702358
5
 energy: -10.199165924548 gnorm: 0.000166193304 xtb: 6.2.2 (9d81278992624c895f80dd42a50cac0aa55982e2)
C        -1.56490594253970    0.18014297179014   -0.04067858267228
C        -0.53311108990852   -0.35289183738276   -0.78048953087142
C         0.68159166063678   -0.00981669181738    0.00040654083312
C        -0.52813805538741    0.06017583425695    0.85752577928461
C         1.94456442719885    0.12238972315305   -0.03676520657404
