5
 energy: -10.199165923962 gnorm: 0.000166258880 xtb: 6.2.2 (9d81278992624c895f80dd42a50cac0aa55982e2)
C        -1.56490514127883    0.18015109461898   -0.04067343452854
C        -0.53311566206270   -0.35289040821119   -0.78048705404427
C         0.68159161064236   -0.00982025991328    0.00040417876275
C        -0.52813474695990    0.06018009622958    0.85752751780103
C         1.94456493965558    0.12237947726893   -0.03677220799447
