[Molden Format]
[Title]
[Atoms] AU
C      1     6 -0.29572418536632E+01  0.34043619829578E+00 -0.76861644675615E-01
C      2     6 -0.10074425005767E+01 -0.66686616165477E+00 -0.14749066391180E+01
C      3     6  0.12880213534542E+01 -0.18557599986962E-01  0.76378709612300E-03
C      4     6 -0.99802993605564E+00  0.11372388947623E+00  0.16204920026250E+01
C      5     6  0.36746948265607E+01  0.23126367385653E+00 -0.69489395660112E-01
[GTO]
           1 0
 s           4   1.0000000000000000     
   51.049363095579913      -0.16312063210127389     
   8.7911227406887544      -0.19911024581000730     
  0.70640422258929825       0.31882047753655751     
  0.26922813413411617       0.12706504184240380     
 p           4   1.0000000000000000     
   5.8263656140800002       0.73716451545209605     
   1.5106896018720002       0.68216371614850257     
  0.53256483288000001       0.35783053929253711     
  0.21202323690600003        5.3983030275847881E-002

           2 0
 s           4   1.0000000000000000     
   51.049363095579913      -0.16312063210127389     
   8.7911227406887544      -0.19911024581000730     
  0.70640422258929825       0.31882047753655751     
  0.26922813413411617       0.12706504184240380     
 p           4   1.0000000000000000     
   5.8263656140800002       0.73716451545209605     
   1.5106896018720002       0.68216371614850257     
  0.53256483288000001       0.35783053929253711     
  0.21202323690600003        5.3983030275847881E-002

           3 0
 s           4   1.0000000000000000     
   51.049363095579913      -0.16312063210127389     
   8.7911227406887544      -0.19911024581000730     
  0.70640422258929825       0.31882047753655751     
  0.26922813413411617       0.12706504184240380     
 p           4   1.0000000000000000     
   5.8263656140800002       0.73716451545209605     
   1.5106896018720002       0.68216371614850257     
  0.53256483288000001       0.35783053929253711     
  0.21202323690600003        5.3983030275847881E-002

           4 0
 s           4   1.0000000000000000     
   51.049363095579913      -0.16312063210127389     
   8.7911227406887544      -0.19911024581000730     
  0.70640422258929825       0.31882047753655751     
  0.26922813413411617       0.12706504184240380     
 p           4   1.0000000000000000     
   5.8263656140800002       0.73716451545209605     
   1.5106896018720002       0.68216371614850257     
  0.53256483288000001       0.35783053929253711     
  0.21202323690600003        5.3983030275847881E-002

           5 0
 s           4   1.0000000000000000     
   51.049363095579913      -0.16312063210127389     
   8.7911227406887544      -0.19911024581000730     
  0.70640422258929825       0.31882047753655751     
  0.26922813413411617       0.12706504184240380     
 p           4   1.0000000000000000     
   5.8263656140800002       0.73716451545209605     
   1.5106896018720002       0.68216371614850257     
  0.53256483288000001       0.35783053929253711     
  0.21202323690600003        5.3983030275847881E-002

[MO]
Sym=     1a
Ene=  -0.73807882777146872     
Spin= Alpha
Occup=     2.00000000
           1 -0.29483969568231544     
           2 -0.15195115115120825     
           3   3.9291040236885511E-002
           4  -9.4464066530064641E-003
           5 -0.34706931197025181     
           6   3.9393321168502511E-003
           7  -6.1742152310753605E-002
           8 -0.14411943305599967     
           9 -0.25185798881373589     
          10  0.12960224059910941     
          11   6.9901975205304088E-003
          12  -2.1569482800629656E-003
          13 -0.34706977842299735     
          14   4.8521407128965443E-003
          15   1.3976106115624264E-002
          16  0.15613830017344058     
          17  -4.5150601135473686E-002
          18   3.9581288939500969E-002
          19   3.6801182342215324E-003
          20  -1.0483853368587486E-003
Sym=     2a
Ene=  -0.67896447778680924     
Spin= Alpha
Occup=     2.00000000
           1  0.21880432174776238     
           2   3.5331387373974114E-002
           3  -2.6443734568484381E-002
           4   6.5609345235542139E-003
           5   4.1686432296059422E-002
           6 -0.16487813601870172     
           7   9.2015890221049269E-003
           8   1.3292190703803327E-002
           9 -0.46100733182144843     
          10 -0.19288439319785594     
          11  -9.9670855103472355E-003
          12   3.0993512979387030E-003
          13   4.1685352604422313E-002
          14 -0.16496500079808157     
          15   2.0357549092499239E-003
          16  -1.5123221016035270E-002
          17 -0.45893224073595634     
          18  0.16751115674106301     
          19   2.1129561804057978E-002
          20  -5.8376287603141364E-003
Sym=     3a
Ene=  -0.61912678884664241     
Spin= Alpha
Occup=     2.00000000
           1 -0.43460618728862582     
           2   2.4857749544106796E-002
           3   2.1509308309827679E-002
           4  -5.4906796764022233E-003
           5   6.2654405313028641E-002
           6  0.29810884679601518     
           7  -4.4073822286292849E-002
           8   2.4092465544558548E-002
           9  0.12005905346925835     
          10 -0.34716100347911877     
          11  -7.4871808829563610E-002
          12   1.9944548238947403E-002
          13   6.2682310484082807E-002
          14  0.29802903959209825     
          15  -5.0654124333055474E-002
          16  -2.0098149274341516E-003
          17 -0.39950091280487160     
          18   2.3756158494459848E-002
          19  -6.0421598080072202E-003
          20   1.4537652606332304E-003
Sym=     4a
Ene=  -0.61596593684207590     
Spin= Alpha
Occup=     2.00000000
           1   1.1969622186561773E-005
           2   9.5839378025009954E-004
           3   7.9571033251417983E-002
           4  0.31553800433182772     
           5 -0.50629400417697057     
           6   1.0240609658006401E-002
           7  -5.2358706449953923E-003
           8  0.13457675213417866     
           9  -3.9722779688082140E-006
          10   8.7329051150990765E-004
          11   7.1677652964086569E-002
          12  0.28422601556397808     
          13  0.50629088008468770     
          14  -9.4956511519945549E-003
          15   6.8443103724145610E-002
          16  0.11605778805186445     
          17   1.0519181921159071E-005
          18   2.3482620630082903E-004
          19   1.9519594088220838E-002
          20   7.7403271259576203E-002
Sym=     5a
Ene=  -0.55527149365247597     
Spin= Alpha
Occup=     2.00000000
           1   5.7348474617989885E-002
           2   6.3757020817494570E-002
           3  0.34934486000234422     
           4  -8.8290720478640616E-002
           5  -7.5558526089929606E-002
           6   5.9026924846616736E-002
           7  0.39878018214892808     
           8 -0.12401688877274866     
           9   4.0057134108902340E-002
          10  -8.1818276358674127E-002
          11  0.37171927398348936     
          12  -9.3490584495823301E-002
          13  -7.5558675526327918E-002
          14   5.9159912345243260E-002
          15  0.40981722659868114     
          16  -8.0252629137380863E-002
          17  -7.2598791697474629E-002
          18  -3.3659144396650048E-002
          19  0.15735721609998155     
          20  -3.9579633026690285E-002
Sym=     6a
Ene=  -0.54570001070638852     
Spin= Alpha
Occup=     2.00000000
           1   5.8951287972418983E-007
           2  -1.1372768719152884E-003
           3  -9.4292869038174312E-002
           4 -0.37391486605188590     
           5   2.0379626693423691E-002
           6 -0.37443496092307843     
           7   3.0531074297455885E-002
           8  -8.4665679173794774E-003
           9  -2.9496478179775476E-007
          10   1.3430009782039510E-003
          11  0.11142169751410393     
          12  0.44183874232486575     
          13  -2.0378967691916085E-002
          14  0.37442428300175690     
          15  -3.1434182500511144E-002
          16   4.8844986087368545E-003
          17  -4.3513751252637697E-007
          18   6.5709727555161791E-004
          19   5.4523984013130820E-002
          20  0.21621292262772429     
Sym=     7a
Ene=  -0.47392951542379497     
Spin= Alpha
Occup=     2.00000000
           1  0.37456273891344760     
           2 -0.29234558905104563     
           3  0.15338966577017257     
           4  -3.7792295068995591E-002
           5 -0.32921603042378295     
           6   2.9901522018893158E-002
           7   9.4417830248028731E-002
           8  0.25177920778953428     
           9  0.21493767273424827     
          10   3.0921660207693342E-002
          11 -0.23083910914505867     
          12   5.8118380603805170E-002
          13 -0.32921571526434362     
          14   2.8326231169935823E-002
          15  -3.6308910393696818E-002
          16 -0.26661031191814910     
          17 -0.37010257722594425     
          18 -0.29765988766278717     
          19 -0.24252646372181605     
          20   6.2064376729455799E-002
Sym=     8a
Ene=  -0.46281314947834878     
Spin= Alpha
Occup=     2.00000000
           1 -0.19941985755512082     
           2  0.19882207687469874     
           3 -0.18307081582655099     
           4   4.5561983644369426E-002
           5 -0.31372441473786405     
           6  -7.8720714896633771E-003
           7   5.6523689522885480E-002
           8  0.47237489609170819     
           9  -7.8827029215144603E-002
          10  -7.2030926506440926E-002
          11  0.19057221000953686     
          12  -4.7837874319288029E-002
          13 -0.31372502802418373     
          14  -1.0652877474106643E-002
          15 -0.17422120700995841     
          16 -0.44263889129029810     
          17  0.21457447678611336     
          18  0.19519697985037882     
          19  0.22508147191427544     
          20  -5.7352620821894615E-002
Sym=     9a
Ene=  -0.45600195003958538     
Spin= Alpha
Occup=     1.99999999
           1   3.1019757737447057E-002
           2 -0.16571865311441103     
           3 -0.33810546624251592     
           4   8.5766536601156906E-002
           5   2.0267796264943502E-002
           6  -6.1883892784018846E-002
           7 -0.16294846305261523     
           8  -2.4085215044554749E-002
           9  0.15033590824340479     
          10   5.3390318770107359E-002
          11  0.40222006872119109     
          12 -0.10159336980964664     
          13   2.0267640198113644E-002
          14  -6.1510078838895296E-002
          15 -0.13195110364120344     
          16   9.8827470985920429E-002
          17 -0.36674093485119169     
          18 -0.43865409025756641     
          19  0.39864541233835094     
          20  -9.9196322472505968E-002
Sym=    10a
Ene=  -0.42055021646898627     
Spin= Alpha
Occup=     1.00000001
           1  0.41071531008598811     
           2 -0.62114326165310307     
           3   3.6001788987859613E-002
           4  -7.1901710146134905E-003
           5   8.8202824957178492E-003
           6  0.19017993605484115     
           7 -0.10593242079593999     
           8  -1.8552078398044493E-003
           9   4.4238860997781612E-002
          10 -0.25732672278936830     
          11   7.7534882863119117E-002
          12  -1.8770752377691161E-002
          13   8.8203560127127628E-003
          14  0.19034010619631880     
          15  -9.2659223705084406E-002
          16   5.0778175726343126E-002
          17  0.28179431740293881     
          18  0.36951505998213524     
          19  0.25461248933519953     
          20  -6.5331316323457053E-002
Sym=    11a
Ene=  -0.40542870100775846     
Spin= Alpha
Occup=     1.00000000
           1   5.3037368728553320E-007
           2   8.4166170160570025E-004
           3   6.9871065992409345E-002
           4  0.27707172010193298     
           5  0.25761199727466222     
           6  0.13661284232016768     
           7 -0.41480361870782334     
           8 -0.14974133196753928     
           9  -9.3998799116045888E-008
          10   5.6642446481771952E-004
          11   4.6980998823090633E-002
          12  0.18630309261889894     
          13 -0.25761111140125842     
          14 -0.13806417776747928     
          15  0.29439215783456563     
          16 -0.32774816439744314     
          17  -4.8424909521007576E-008
          18   1.7359532936665630E-003
          19  0.14404284444343643     
          20  0.57120099762396959     
Sym=    12a
Ene=  -0.36367715208050638     
Spin= Alpha
Occup=     0.00000000
           1   3.2237473384682628E-007
           2   8.2262506776771012E-005
           3   6.8038227718826413E-003
           4   2.6971858468072776E-002
           5   1.4546033837627346E-002
           6  0.20434731538724407     
           7  0.56833579658061095     
           8 -0.15796720457795954     
           9  -1.5491022453781663E-007
          10  -7.5997183070206697E-005
          11  -6.3303828354211748E-003
          12  -2.5102765181827597E-002
          13  -1.4545774699222278E-002
          14 -0.20442744121587730     
          15 -0.57498851105209403     
          16  0.13159616307504179     
          17  -6.9138692007778478E-008
          18   1.6530272994587953E-003
          19  0.13721867406808666     
          20  0.54412547239847775     
Sym=    13a
Ene=  -0.30369661850114027     
Spin= Alpha
Occup=     0.00000000
           1  -3.9263590678906120E-002
           2 -0.21520467612451902     
           3 -0.70089907437554422     
           4  0.17740440570196361     
           5  -3.8205935371153098E-002
           6   2.9395237197982042E-002
           7  0.29699320542875424     
           8 -0.11143700467364386     
           9   8.0368460858388530E-002
          10 -0.11452891050581847     
          11  0.28030595073490222     
          12  -7.0340029255071435E-002
          13  -3.8205215011819178E-002
          14   2.9602166947107985E-002
          15  0.31427570772668001     
          16  -4.2888099140801390E-002
          17   1.5501297185609997E-002
          18  0.13761775230828313     
          19 -0.54532600138854626     
          20  0.13710303331780727     
Sym=    14a
Ene=  -0.26257576542032501     
Spin= Alpha
Occup=     0.00000000
           1  -2.3623022947899570E-007
           2   1.0913314077887917E-003
           3   9.0534759578301038E-002
           4  0.35901821568314318     
           5   4.3703965049649240E-002
           6  -8.0170668694040145E-002
           7   9.7193976041006686E-002
           8 -0.62503697000393199     
           9  -2.6771342384176539E-007
          10   1.1676006354809075E-003
          11   9.6864964559931044E-002
          12  0.38411001484547663     
          13  -4.3703636076606316E-002
          14   7.6735753886514255E-002
          15 -0.38207507181749800     
          16 -0.50465249235617604     
          17  -8.2191493949127363E-008
          18  -1.3538477858476543E-003
          19 -0.11233038535099582     
          20 -0.44543682450000205     
Sym=    15a
Ene=  -0.18320210240026119     
Spin= Alpha
Occup=     0.00000000
           1  -4.5970323712131583E-003
           2  -1.3914148702660995E-002
           3 -0.41732164921323928     
           4  0.10528184501047654     
           5  -5.8353477734639482E-002
           6   1.9327131208052319E-002
           7  0.38797260364923442     
           8 -0.14919261131863509     
           9   4.7307502815547943E-002
          10   5.1294953010486789E-002
          11 -0.74444350715249852     
          12  0.18757586356148920     
          13  -5.8353479271449051E-002
          14   1.9620492840205693E-002
          15  0.41229642047178677     
          16  -5.2736018820090907E-002
          17  -6.3331997350820112E-003
          18  -2.5162230487736827E-002
          19  0.58144405534590116     
          20 -0.14655055250949434     
Sym=    16a
Ene=    7.9962317303492070E-002
Spin= Alpha
Occup=     0.00000000
           1   3.0458747930812731E-006
           2   2.2061225802262634E-004
           3   1.8385343117214993E-002
           4   7.2914269164143092E-002
           5  0.52148814096692164     
           6  0.39346357420356004     
           7  0.17776050462957521     
           8  0.44338452299195247     
           9  -1.5117934942244607E-005
          10   2.5438137927701267E-003
          11  0.21051595663439621     
          12  0.83478963115646365     
          13 -0.52148076781465968     
          14 -0.39064798363636999     
          15   5.4314762637573379E-002
          16  0.47689222658873043     
          17   2.0915473887826976E-006
          18  -1.0749143873116911E-003
          19  -8.8688817143155116E-002
          20 -0.35168928708242830     
Sym=    17a
Ene=   0.13878496383137576     
Spin= Alpha
Occup=     0.00000000
           1 -0.13767139682040416     
           2   9.8287111503341115E-002
           3   9.5065919962872072E-002
           4  -2.4271058542517751E-002
           5 -0.29583797460203703     
           6 -0.54286157775618249     
           7 -0.12908538773708092     
           8 -0.20142029137109146     
           9   1.0694394223200940     
          10 -0.40782751766467501     
          11  -4.6965900527323093E-002
          12   1.3097583628869666E-002
          13 -0.29585461221133574     
          14 -0.54152695916530369     
          15  -1.7352501968956966E-002
          16  0.24166018412155382     
          17 -0.17553192337793280     
          18  0.42688016964742642     
          19   4.6332116552354217E-002
          20  -1.2986852566301962E-002
Sym=    18a
Ene=   0.18351786229277547     
Spin= Alpha
Occup=     0.00000000
           1  -4.7953089834784327E-006
           2  -2.7759857848040793E-003
           3 -0.22982077462099967     
           4 -0.91135091253286526     
           5 -0.41858535354324478     
           6  0.62044074013536066     
           7 -0.22131625799961424     
           8 -0.29500355734153572     
           9  -9.6410982747546689E-007
          10   8.5621584948235296E-004
          11   7.1090241198114579E-002
          12  0.28190873286020735     
          13  0.41858977734117370     
          14 -0.62244156143640317     
          15   5.5857191061519401E-002
          16 -0.36112657170721923     
          17   1.0586079164968795E-006
          18  -2.5982368338310131E-004
          19  -2.1428336125640671E-002
          20  -8.4973529664662692E-002
Sym=    19a
Ene=   0.42373407323888623     
Spin= Alpha
Occup=     0.00000000
           1 -0.91693623382157452     
           2 -0.85885403526609561     
           3  0.26602505762938861     
           4  -6.4467985095517807E-002
           5  0.42631396822790507     
           6 -0.50736070642038977     
           7  0.24795492750784764     
           8  0.28310872881643417     
           9 -0.18249707096966189     
          10 -0.23344412670828094     
          11  -9.3466548180780928E-002
          12   2.4278909041250490E-002
          13  0.42630599952725706     
          14 -0.50932018317423922     
          15   8.4786119147272174E-002
          16 -0.36392139046179489     
          17  0.22980754160301753     
          18 -0.28764965815303356     
          19  -9.9123539644165454E-003
          20   3.3741110462893759E-003
Sym=    20a
Ene=   0.83624972821089649     
Spin= Alpha
Occup=     0.00000000
           1  0.23049073518205099     
           2  0.26574420524234721     
           3  -6.8006979169674964E-002
           4   1.6341456753802438E-002
           5 -0.36503889479024765     
           6  -8.6051945523369019E-002
           7 -0.13178517937441506     
           8 -0.24325209112796017     
           9 -0.44639438247919327     
          10  -1.2676678829162662     
          11 -0.12237679504405841     
          12   3.4714302705054205E-002
          13 -0.36503871223809148     
          14  -8.4470641703351293E-002
          15  -5.5295082124893970E-004
          16  0.27714325995726763     
          17  0.83664287052914266     
          18 -0.89867210916902407     
          19  -9.6330049296915909E-002
          20   2.7023425832904735E-002
