      -----------------------------------------------------------      
     |                   =====================                   |     
     |                           x T B                           |     
     |                   =====================                   |     
     |                         S. Grimme                         |     
     |          Mulliken Center for Theoretical Chemistry        |     
     |                    University of Bonn                     |     
      -----------------------------------------------------------      

   * xtb version 6.2.2 (9d81278992624c895f80dd42a50cac0aa55982e2) compiled by '@Darwin' on 04/03/2020

   xtb is free software: you can redistribute it and/or modify it under
   the terms of the GNU Lesser General Public License as published by
   the Free Software Foundation, either version 3 of the License, or
   (at your option) any later version.
   
   xtb is distributed in the hope that it will be useful,
   but WITHOUT ANY WARRANTY; without even the implied warranty of
   MERCHANTABILITY or FITNESS FOR A PARTICULAR PURPOSE.  See the
   GNU Lesser General Public License for more details.
   
   Cite this work as:
   * S. Grimme, C. Bannwarth, P. Shushkov, J. Chem. Theory Comput., 2017,
     13, 1989-2009. DOI: 10.1021/acs.jctc.7b00118
   * C. Bannwarth, S. Ehlert and S. Grimme., J. Chem. Theory Comput., 2019,
     15, 1652-1671. DOI: 10.1021/acs.jctc.8b01176
   * P. Pracht, E. Caldeweyher, S. Ehlert, S. Grimme, ChemRxiv, 2019, preprint.
     DOI: 10.26434/chemrxiv.8326202.v1
   
   for DFT-D4:
   * E. Caldeweyher, C. Bannwarth and S. Grimme, J. Chem. Phys., 2017,
     147, 034112. DOI: 10.1063/1.4993215
   * E. Caldeweyher, S. Ehlert, A. Hansen, H. Neugebauer, S. Spicher,
     C. Bannwarth and S. Grimme, J. Chem. Phys., 2019, 150, 154122.
     DOI: 10.1063/1.5090222
   
   for sTDA-xTB:
   * S. Grimme and C. Bannwarth, J. Chem. Phys., 2016, 145, 054103.
     DOI: 10.1063/1.4959605
   
   in the mass-spec context:
   * V. Asgeirsson, C. Bauer and S. Grimme, Chem. Sci., 2017, 8, 4879.
     DOI: 10.1039/c7sc00601b
   
   for metadynamics refer to:
   * S. Grimme, J. Chem. Theory Comput., 2019, 155, 2847-2862
     DOI: 10.1021/acs.jctc.9b00143
   
   with help from (in alphabetical order)
   C. Bannwarth, F. Bohle, G. Brandenburg, E. Caldeweyher, M. Checinski,
   S. Dohm, S. Ehlert, S. Ehrlich, F. März, H. Neugebauer, J. Pisarek,
   P. Pracht, P. Shushkov, and S. Spicher.
   
 * started run on 2020/05/12 at 11:44:27.762     

           -------------------------------------------------
          |                Calculation Setup                |
           -------------------------------------------------

          program call               : xtb --input H2C1_0_S_0.input H2C1_0_S_0.xyz --ohess --molden --namespace H2C1_0_S_0 output.out
          calculation namespace      : H2C1_0_S_0
          coordinate file            : H2C1_0_S_0.xyz
          number of atoms            :                     3
          number of electrons        :                     6
          charge                     :                     0
          spin                       :                   0.0
          first test random number   :      0.99354089459185

   ID    Z sym.   atoms
    1    6 C      1
    2    1 H      2, 3

           -------------------------------------------------
          |                 G F N 2 - x T B                 |
           -------------------------------------------------

        Reference                      10.1021/acs.jctc.8b01176
      * Hamiltonian:
        H0-scaling (s, p, d)           1.850000    2.230000    2.230000
        zeta-weighting                 0.500000
      * Dispersion:
        s8                             2.700000
        a1                             0.520000
        a2                             5.000000
        s9                             5.000000
      * Repulsion:
        kExp                           1.500000    1.000000
        rExp                           1.000000
      * Coulomb:
        alpha                          2.000000
        third order                    shell-resolved
        anisotropic                    true
        a3                             3.000000
        a5                             4.000000
        cn-shift                       1.200000
        cn-exp                         4.000000
        max-rad                        5.000000


          ...................................................
          :                      SETUP                      :
          :.................................................:
          :  # basis functions                   6          :
          :  # atomic orbitals                   6          :
          :  # shells                            4          :
          :  # electrons                         6          :
          :  max. iterations                   250          :
          :  Hamiltonian                  GFN2-xTB          :
          :  restarted?                      false          :
          :  GBSA solvation                  false          :
          :  PC potential                    false          :
          :  electronic temp.          300.0000000     K    :
          :  accuracy                    1.0000000          :
          :  -> integral cutoff          0.2500000E+02      :
          :  -> integral neglect         0.1000000E-07      :
          :  -> SCF convergence          0.1000000E-05 Eh   :
          :  -> wf. convergence          0.1000000E-03 e    :
          :  Broyden damping             0.4000000          :
          ...................................................

 iter      E             dE          RMSdq      gap      omega  full diag
   1     -2.9836211 -0.298362E+01  0.131E+01    1.10       0.0  T
   2     -2.9937810 -0.101599E-01  0.791E+00    0.97       1.0  T
   3     -2.9948383 -0.105730E-02  0.112E+00    0.79       1.0  T
   4     -2.9957489 -0.910606E-03  0.581E-01    0.92       1.0  T
   5     -2.9957361  0.128123E-04  0.590E-01    0.92       1.0  T
   6     -2.9960926 -0.356519E-03  0.186E-02    0.89       3.1  T
   7     -2.9960925  0.779342E-07  0.143E-02    0.89       4.0  T
   8     -2.9960928 -0.250904E-06  0.511E-04    0.89     112.9  T
   9     -2.9960928 -0.293834E-09  0.209E-05    0.89    2766.6  T

   *** convergence criteria satisfied after 9 iterations ***

         #    Occupation            Energy/Eh            Energy/eV
      -------------------------------------------------------------
         1        2.0000           -0.5994830             -16.3128
         2        2.0000           -0.4837618             -13.1638
         3        2.0000           -0.3997696             -10.8783 (HOMO)
         4                         -0.3669157              -9.9843 (LUMO)
         5                          0.1220879               3.3222
         6                          0.1641112               4.4657
      -------------------------------------------------------------
                  HL-Gap            0.0328539 Eh            0.8940 eV
             Fermi-level           -0.3833427 Eh          -10.4313 eV

 SCC (total)                   0 d,  0 h,  0 min,  0.001 sec
 SCC setup                      ...        0 min,  0.000 sec (  7.598%)
 Dispersion                     ...        0 min,  0.000 sec (  1.294%)
 integral evaluation            ...        0 min,  0.000 sec ( 15.292%)
 zeroth order Hamiltonian       ...        0 min,  0.000 sec (  1.007%)
 iterations                     ...        0 min,  0.001 sec ( 57.598%)
 molecular gradient             ...        0 min,  0.000 sec ( 12.440%)
 printout                       ...        0 min,  0.000 sec (  3.715%)

         :::::::::::::::::::::::::::::::::::::::::::::::::::::
         ::                     SUMMARY                     ::
         :::::::::::::::::::::::::::::::::::::::::::::::::::::
         :: total energy              -2.967162605554 Eh    ::
         :: gradient norm              0.010342225216 Eh/a0 ::
         :: HOMO-LUMO gap              0.893998973706 eV    ::
         ::.................................................::
         :: SCC energy                -2.996092777679 Eh    ::
         :: -> isotropic ES           -0.006073449646 Eh    ::
         :: -> anisotropic ES         -0.001298395937 Eh    ::
         :: -> anisotropic XC          0.011380974688 Eh    ::
         :: -> dispersion             -0.000265262897 Eh    ::
         :: repulsion energy           0.028930171837 Eh    ::
         :: add. restraining           0.000000000000 Eh    ::
         :::::::::::::::::::::::::::::::::::::::::::::::::::::

      ----------------------------------------------------------- 
     |                   =====================                   |
     |                        A N C O P T                        |
     |                   =====================                   |
     |               Approximate Normal Coordinate               |
     |                Rational Function Optimizer                |
      ----------------------------------------------------------- 

          ...................................................
          :                      SETUP                      :
          :.................................................:
          :   optimization level            normal          :
          :   max. optcycles                   200          :
          :   ANC micro-cycles                  20          :
          :   degrees of freedom                 3          :
          :.................................................:
          :   RF solver                   davidson          :
          :   write xtbopt.log                true          :
          :   linear?                        false          :
          :   energy convergence         0.5000000E-05 Eh   :
          :   grad. convergence          0.1000000E-02 Eh/α :
          :   maximium RF displ.         1.0000000          :
          :   Hlow (freq-cutoff)         0.1000000E-01      :
          :   Hmax (freq-cutoff)         5.0000000          :
          :   S6 in model hess.         20.0000000          :
          ...................................................

generating ANC from model Hessian ...
Using Lindh-Hessian (1995)
 Shifting diagonal of input Hessian by    0.0000000000000000     
 Lowest  eigenvalues of input Hessian
   -0.000000   -0.000000   -0.000000    0.000000    0.000000    0.000000
    0.094807    0.705145    0.938962
 Highest eigenvalues
    0.000000    0.000000    0.000000    0.094807    0.705145    0.938962


........................................................................
.............................. CYCLE    1 ..............................
........................................................................
   1     -2.9960928 -0.299609E+01  0.156E-05    0.89       0.0  T
   2     -2.9960928 -0.222045E-12  0.361E-06    0.89   15987.6  T
   3     -2.9960928 -0.488498E-14  0.116E-06    0.89   49751.0  T
     SCC iter.                  ...        0 min,  0.000 sec
     gradient                   ...        0 min,  0.000 sec
 * total energy  :    -2.9671626 Eh     change       -0.2219975E-09 Eh
   gradient norm :     0.0103423 Eh/α   predicted     0.0000000E+00 (-100.00%)
   displ. norm   :     0.0852674 α      lambda       -0.7453488E-03
   maximum displ.:     0.0847795 α      in ANC's #1, #2, #3, ...

........................................................................
.............................. CYCLE    2 ..............................
........................................................................
   1     -2.9982950 -0.299830E+01  0.333E-01    0.97       0.0  T
   2     -2.9982959 -0.857966E-06  0.199E-01    0.97       1.0  T
   3     -2.9982959 -0.231842E-07  0.534E-03    0.97      10.8  T
   4     -2.9982960 -0.208811E-07  0.153E-03    0.97      37.7  T
   5     -2.9982960 -0.367179E-09  0.179E-04    0.97     322.7  T
   6     -2.9982960 -0.582157E-11  0.416E-05    0.97    1388.9  T
     SCC iter.                  ...        0 min,  0.000 sec
     gradient                   ...        0 min,  0.000 sec
 * total energy  :    -2.9674664 Eh     change       -0.3038278E-03 Eh
   gradient norm :     0.0020776 Eh/α   predicted    -0.3753840E-03 (  23.55%)
   displ. norm   :     0.0149441 α      lambda       -0.2775358E-04
   maximum displ.:     0.0148794 α      in ANC's #1, #2, #3, ...

........................................................................
.............................. CYCLE    3 ..............................
........................................................................
   1     -2.9983328 -0.299833E+01  0.743E-02    0.96       0.0  T
   2     -2.9983332 -0.353737E-06  0.439E-02    0.96       1.3  T
   3     -2.9983332 -0.248387E-07  0.514E-03    0.96      11.2  T
   4     -2.9983332 -0.718308E-08  0.144E-03    0.96      40.0  T
   5     -2.9983332 -0.336692E-09  0.311E-05    0.96    1856.9  T
   6     -2.9983332 -0.417444E-13  0.171E-05    0.96    3376.5  T
     SCC iter.                  ...        0 min,  0.000 sec
     gradient                   ...        0 min,  0.000 sec
 * total energy  :    -2.9674811 Eh     change       -0.1468964E-04 Eh
   gradient norm :     0.0005873 Eh/α   predicted    -0.1387871E-04 (  -5.52%)
   displ. norm   :     0.0017411 α      lambda       -0.5850400E-06
   maximum displ.:     0.0013944 α      in ANC's #2, #1, #3, ...

........................................................................
.............................. CYCLE    4 ..............................
........................................................................
   1     -2.9984852 -0.299849E+01  0.132E-02    0.95       0.0  T
   2     -2.9984852 -0.550427E-07  0.749E-03    0.95       7.7  T
   3     -2.9984852 -0.441421E-08  0.259E-03    0.95      22.3  T
   4     -2.9984852 -0.103537E-08  0.546E-04    0.95     105.7  T
   5     -2.9984852 -0.370828E-10  0.871E-06    0.95    6631.3  T
     SCC iter.                  ...        0 min,  0.000 sec
     gradient                   ...        0 min,  0.000 sec
 * total energy  :    -2.9674815 Eh     change       -0.3541486E-06 Eh
   gradient norm :     0.0000968 Eh/α   predicted    -0.2915886E-06 ( -17.66%)
   displ. norm   :     0.0005455 α      lambda       -0.2380008E-07
   maximum displ.:     0.0005187 α      in ANC's #1, #2, #3, ...

   *** GEOMETRY OPTIMIZATION CONVERGED AFTER 4 ITERATIONS ***

------------------------------------------------------------------------
 total energy gain   :        -0.0003189 Eh       -0.2001 kcal/mol
 total RMSD          :         0.0403433 a0        0.0213 Å
 total power (kW/mol):        -0.2092995 (step) -361.2987 (real)
------------------------------------------------------------------------

 ANCopt (total)                0 d,  0 h,  0 min,  0.002 sec
 optimizer setup                ...        0 min,  0.000 sec (  2.893%)
 model hessian                  ...        0 min,  0.000 sec (  1.980%)
 ANC generation                 ...        0 min,  0.000 sec (  1.559%)
 coordinate transformation      ...        0 min,  0.000 sec (  0.380%)
 single point calculation       ...        0 min,  0.002 sec ( 78.939%)
 optimization log               ...        0 min,  0.000 sec (  3.303%)
 hessian update                 ...        0 min,  0.000 sec (  0.492%)
 rational function              ...        0 min,  0.000 sec (  3.498%)

================
 final structure:
================
3
 xtb: 6.2.2 (9d81278992624c895f80dd42a50cac0aa55982e2)
C        -0.00041339589330    0.43900892723505   -0.00000000000000
H         0.88202664728615   -0.21867359657164    0.00000000000000
H        -0.88161325139285   -0.22033433066341    0.00000000000000

 Bond Distances (Angstroems)
 ---------------------------
C1-H2=1.1006         C1-H3=1.1006         H2-C1=1.1006         H3-C1=1.1006         
 C  H  Rav=1.1006 sigma=0.0000  Rmin=1.1006  Rmax=1.1006     2

 selected bond angles (degree)
 --------------------
H3-C1-H2=106.50                

 selected dihedral angles (degree)
 ---------------------------------

           -------------------------------------------------
          |                Final Singlepoint                |
           -------------------------------------------------

          ...................................................
          :                      SETUP                      :
          :.................................................:
          :  # basis functions                   6          :
          :  # atomic orbitals                   6          :
          :  # shells                            4          :
          :  # electrons                         6          :
          :  max. iterations                   250          :
          :  Hamiltonian                  GFN2-xTB          :
          :  restarted?                      false          :
          :  GBSA solvation                  false          :
          :  PC potential                    false          :
          :  electronic temp.          300.0000000     K    :
          :  accuracy                    1.0000000          :
          :  -> integral cutoff          0.2500000E+02      :
          :  -> integral neglect         0.1000000E-07      :
          :  -> SCF convergence          0.1000000E-05 Eh   :
          :  -> wf. convergence          0.1000000E-03 e    :
          :  Broyden damping             0.4000000          :
          ...................................................

 iter      E             dE          RMSdq      gap      omega  full diag
   1     -2.9984852 -0.299849E+01  0.602E-07    0.95       0.0  T
   2     -2.9984852  0.133227E-14  0.188E-07    0.95  100000.0  T
   3     -2.9984852 -0.888178E-15  0.107E-07    0.95  100000.0  T

   *** convergence criteria satisfied after 3 iterations ***

         #    Occupation            Energy/Eh            Energy/eV
      -------------------------------------------------------------
         1        2.0000           -0.6020504             -16.3826
         2        2.0000           -0.4826349             -13.1332
         3        2.0000           -0.4027889             -10.9604 (HOMO)
         4                         -0.3677923             -10.0081 (LUMO)
         5                          0.1443745               3.9286
         6                          0.1653684               4.4999
      -------------------------------------------------------------
                  HL-Gap            0.0349966 Eh            0.9523 eV
             Fermi-level           -0.3852906 Eh          -10.4843 eV

 SCC (total)                   0 d,  0 h,  0 min,  0.000 sec
 SCC setup                      ...        0 min,  0.000 sec ( 13.886%)
 Dispersion                     ...        0 min,  0.000 sec (  1.008%)
 integral evaluation            ...        0 min,  0.000 sec ( 30.963%)
 zeroth order Hamiltonian       ...        0 min,  0.000 sec (  0.896%)
 iterations                     ...        0 min,  0.000 sec ( 23.236%)
 molecular gradient             ...        0 min,  0.000 sec ( 21.837%)
 printout                       ...        0 min,  0.000 sec (  6.775%)

         :::::::::::::::::::::::::::::::::::::::::::::::::::::
         ::                     SUMMARY                     ::
         :::::::::::::::::::::::::::::::::::::::::::::::::::::
         :: total energy              -2.967481477409 Eh    ::
         :: gradient norm              0.000096802515 Eh/a0 ::
         :: HOMO-LUMO gap              0.952306899676 eV    ::
         ::.................................................::
         :: SCC energy                -2.998485226108 Eh    ::
         :: -> isotropic ES           -0.006144587797 Eh    ::
         :: -> anisotropic ES         -0.001183933927 Eh    ::
         :: -> anisotropic XC          0.011197851549 Eh    ::
         :: -> dispersion             -0.000265272922 Eh    ::
         :: repulsion energy           0.031003748621 Eh    ::
         :: add. restraining           0.000000000000 Eh    ::
         :::::::::::::::::::::::::::::::::::::::::::::::::::::

           ------------------------------------------------- 
          |                Numerical Hessian                |
           ------------------------------------------------- 
step length          :   0.00500
SCC accuracy         :   0.30000
Hessian scale factor :   1.00000
frozen atoms in %    :   0.00000    0
RMS gradient         :   0.00010
estimated CPU  time      0.00 min
Molecule has the following symmetry elements: (C2) 2*(sigma) 
It seems to be the C2v point group
estimated wall time      0.00 min

writing file <hessian>.

 projected vibrational frequencies (cm-1)
eigval :       -0.00    -0.00    -0.00    -0.00     0.00     0.00
eigval :     1358.31  2858.09  2921.60
           -------------------------------------------------
          |                Property Printout                |
           -------------------------------------------------

    * Orbital Energies and Occupations

         #    Occupation            Energy/Eh            Energy/eV
      -------------------------------------------------------------
         1        2.0000           -0.6020504             -16.3826
         2        2.0000           -0.4826349             -13.1332
         3        2.0000           -0.4027889             -10.9604 (HOMO)
         4                         -0.3677923             -10.0081 (LUMO)
         5                          0.1443745               3.9286
         6                          0.1653684               4.4999
      -------------------------------------------------------------
                  HL-Gap            0.0349966 Eh            0.9523 eV
             Fermi-level           -0.3852906 Eh          -10.4843 eV

     #   Z        covCN         q      C6AA      α(0)
     1   6 C      1.846    -0.144    35.239     9.589
     2   1 H      0.923     0.072     2.063     2.246
     3   1 H      0.923     0.072     2.063     2.246

 Mol. C6AA /au·bohr⁶  :         77.570335
 Mol. C8AA /au·bohr⁸  :       1756.154150
 Mol. α(0) /au        :         14.081437


Wiberg/Mayer (AO) data.
largest (>0.10) Wiberg bond orders for each atom
          total WBO             WBO to atom ...
     1  C   1.990        H    3 0.995    H    2 0.995
     2  H   0.995        C    1 0.995
     3  H   0.995        C    1 0.995

MOs/occ written to file <molden.input>


molecular dipole:
                 x           y           z       tot (Debye)
 q only:        0.000      -0.180       0.000
   full:        0.001      -0.693       0.000       1.761
molecular quadrupole (traceless):
                xx          xy          yy          xz          yz          zz
 q only:        0.438       0.001      -0.275      -0.000       0.000      -0.163
  q+dip:        1.327       0.002      -0.994      -0.000       0.000      -0.333
   full:        0.731       0.003      -1.974       0.000       0.000       1.242

           -------------------------------------------------
          |                Geometry Summary                 |
           -------------------------------------------------

      molecular mass/u    :       14.0266174
   center of mass at/Å    :       -0.0003225       0.3443686      -0.0000006
  moments of inertia/u·Å² :        0.7485324E+00   0.1567564E+01   0.2316096E+01
rotational constants/cm⁻¹ :        0.2252091E+02   0.1075403E+02   0.7278468E+01

           -------------------------------------------------
          |               Frequency Printout                |
           -------------------------------------------------
 projected vibrational frequencies (cm-1)
eigval :       -0.00    -0.00    -0.00    -0.00     0.00     0.00
eigval :     1358.31  2858.09  2921.60
 reduced masses (amu)
   1:  1.01   2:  1.92   3:  8.82   4:  9.84   5: 12.01   6:  2.81   7:  2.12   8:  1.48
   9:  2.08
 IR intensities (amu)
   1:  0.28   2:  0.23   3:  0.12   4:  0.10   5:  0.56   6:  0.25   7:  0.17   8:  0.05
   9:  0.32
 Raman intensities (amu)
   1:  0.00   2:  0.00   3:  0.00   4:  0.00   5:  0.00   6:  0.00   7:  0.00   8:  0.00
   9:  0.00
 output can be read by thermo (or use thermo option).
 writing <g98.out> molden fake output.
 recommended (thermochemical) frequency scaling factor: 1.0
           -------------------------------------------------
          |             Thermodynamic Functions             |
           -------------------------------------------------

c2v symmetry found (for desy threshold:  0.10E+00) used in thermo

          ...................................................
          :                      SETUP                      :
          :.................................................:
          :  # frequencies                           3      :
          :  # imaginary freq.                       0      :
          :  linear?                             false      :
          :  only rotor calc.                    false      :
          :  symmetry                              c2v      :
          :  rotational number                       2      :
          :  scaling factor                  1.0000000      :
          :  rotor cutoff                   50.0000000 cm⁻¹ :
          :  imag. cutoff                  -20.0000000 cm⁻¹ :
          :.................................................:

    mode    ω/cm⁻¹     T·S(HO)/kcal·mol⁻¹    T·S(FR)/kcal·mol⁻¹   T·S(vib)
   ------------------------------------------------------------------------
   ------------------------------------------------------------------------

   temp. (K)  partition function   enthalpy   heat capacity  entropy
                                   cal/mol     cal/K/mol   cal/K/mol   J/K/mol
 298.15  VIB   1.00                    5.550      0.123      0.021
         ROT   63.0                  888.752      2.981     11.213
         INT   63.1                  894.303      3.103     11.235
         TR   0.508E+26             1481.254      4.968     33.848
         TOT                        2375.5566     8.0716    45.0825   188.6252

   temp. (K)  partition function   enthalpy   heat capacity  entropy
                                   cal/mol     cal/K/mol   cal/K/mol   J/K/mol
 120.00  VIB   1.00                    0.000      0.000      0.000
         ROT   16.1                  357.707      2.981      8.500
         INT   16.1                  357.707      2.981      8.500
         TR   0.130E+26              596.178      4.968     29.328
         TOT                         953.8851     7.9491    37.8288   158.2757

   temp. (K)  partition function   enthalpy   heat capacity  entropy
                                   cal/mol     cal/K/mol   cal/K/mol   J/K/mol
 100.00  VIB   1.00                    0.000      0.000     -0.000
         ROT   12.2                  298.089      2.981      7.957
         INT   12.2                  298.089      2.981      7.957
         TR   0.987E+25              496.815      4.968     28.423
         TOT                         794.9040     7.9490    36.3800   152.2137

   temp. (K)  partition function   enthalpy   heat capacity  entropy
                                   cal/mol     cal/K/mol   cal/K/mol   J/K/mol
  80.00  VIB   1.00                    0.000      0.000     -0.000
         ROT   8.75                  238.471      2.981      7.292
         INT   8.75                  238.471      2.981      7.292
         TR   0.706E+25              397.452      4.968     27.315
         TOT                         635.9232     7.9490    34.6067   144.7945

   temp. (K)  partition function   enthalpy   heat capacity  entropy
                                   cal/mol     cal/K/mol   cal/K/mol   J/K/mol
  60.00  VIB   1.00                    0.000      0.000     -0.000
         ROT   5.68                  178.853      2.981      6.434
         INT   5.68                  178.853      2.981      6.434
         TR   0.459E+25              298.089      4.968     25.886
         TOT                         476.9424     7.9490    32.3206   135.2295

   temp. (K)  partition function   enthalpy   heat capacity  entropy
                                   cal/mol     cal/K/mol   cal/K/mol   J/K/mol
  40.00  VIB   1.00                    0.000      0.000     -0.000
         ROT   3.09                  119.236      2.981      5.226
         INT   3.09                  119.236      2.981      5.226
         TR   0.250E+25              198.726      4.968     23.873
         TOT                         317.9616     7.9490    29.0985   121.7483

   temp. (K)  partition function   enthalpy   heat capacity  entropy
                                   cal/mol     cal/K/mol   cal/K/mol   J/K/mol
  20.00  VIB   1.00                    0.000      0.000     -0.000
         ROT   1.09                   59.618      2.981      3.159
         INT   1.09                   59.618      2.981      3.159
         TR   0.883E+24               99.363      4.968     20.431
         TOT                         158.9808     7.9490    23.5904    98.7021

   temp. (K)  partition function   enthalpy   heat capacity  entropy
                                   cal/mol     cal/K/mol   cal/K/mol   J/K/mol
  10.00  VIB   1.00                    0.000      0.000     -0.000
         ROT  0.387                   29.809      2.981      1.093
         INT  0.387                   29.809      2.981      1.093
         TR   0.312E+24               49.681      4.968     16.989
         TOT                          79.4904     7.9490    18.0822    75.6559

       T/K    H(0)-H(T)+PV         H(T)/Eh          T*S/Eh         G(T)/Eh
   ------------------------------------------------------------------------
    298.15    0.378569E-02    0.200473E-01    0.214202E-01   -0.137290E-02
    120.00    0.152011E-02    0.177817E-01    0.723408E-02    0.105476E-01
    100.00    0.126676E-02    0.175283E-01    0.579752E-02    0.117308E-01
     80.00    0.101341E-02    0.172750E-01    0.441195E-02    0.128630E-01
     60.00    0.760056E-03    0.170216E-01    0.309037E-02    0.139312E-01
     40.00    0.506704E-03    0.167683E-01    0.185486E-02    0.149134E-01
     20.00    0.253352E-03    0.165149E-01    0.751873E-03    0.157630E-01
     10.00    0.126676E-03    0.163882E-01    0.288158E-03    0.161001E-01 (used)
   ------------------------------------------------------------------------

         :::::::::::::::::::::::::::::::::::::::::::::::::::::
         ::                  THERMODYNAMIC                  ::
         :::::::::::::::::::::::::::::::::::::::::::::::::::::
         :: total free energy          -2.951381397063 Eh   ::
         ::.................................................::
         :: total energy               -2.967481477409 Eh   ::
         :: zero point energy           0.016261562536 Eh   ::
         :: G(RRHO) w/o ZPVE           -0.000161482190 Eh   ::
         :: G(RRHO) contrib.            0.016100080346 Eh   ::
         :::::::::::::::::::::::::::::::::::::::::::::::::::::

optimized geometry written to: xtbopt.xyz


           -------------------------------------------------
          | TOTAL ENERGY               -2.967481477409 Eh   |
          | TOTAL ENTHALPY             -2.951093238857 Eh   |
          | TOTAL FREE ENERGY          -2.951381397063 Eh   |
          | GRADIENT NORM               0.000096803250 Eh/α |
          | HOMO-LUMO GAP               0.952306907265 eV   |
           -------------------------------------------------

------------------------------------------------------------------------
 * finished run on 2020/05/12 at 11:44:27.789     
------------------------------------------------------------------------
 total:
 * wall-time:     0 d,  0 h,  0 min,  0.026 sec
 *  cpu-time:     0 d,  0 h,  0 min,  0.026 sec
 * ratio c/w:     1.000 speedup
 SCF:
 * wall-time:     0 d,  0 h,  0 min,  0.001 sec
 *  cpu-time:     0 d,  0 h,  0 min,  0.001 sec
 * ratio c/w:     1.000 speedup
 ANC optimizer:
 * wall-time:     0 d,  0 h,  0 min,  0.003 sec
 *  cpu-time:     0 d,  0 h,  0 min,  0.003 sec
 * ratio c/w:     1.000 speedup
 numerical hessian:
 * wall-time:     0 d,  0 h,  0 min,  0.007 sec
 *  cpu-time:     0 d,  0 h,  0 min,  0.007 sec
 * ratio c/w:     1.000 speedup

