2
 energy: -3.201467093448 gnorm: 0.019691191475 xtb: 6.2.2 (9d81278992624c895f80dd42a50cac0aa55982e2)
N         0.52221000000000    0.00000000000000    0.00000000000000
H        -0.52221000000000    0.00000000000000    0.00000000000000
2
 energy: -3.201724050000 gnorm: 0.005904008543 xtb: 6.2.2 (9d81278992624c895f80dd42a50cac0aa55982e2)
N         0.51477274432939    0.00000000000000    0.00000000000000
H        -0.51477274432939   -0.00000000000000    0.00000000000000
2
 energy: -3.201747279288 gnorm: 0.000495568896 xtb: 6.2.2 (9d81278992624c895f80dd42a50cac0aa55982e2)
N         0.51158816028482    0.00000000000000    0.00000000000000
H        -0.51158816028482   -0.00000000000000    0.00000000000000
2
 energy: -3.201747393782 gnorm: 0.000263323032 xtb: 6.2.2 (9d81278992624c895f80dd42a50cac0aa55982e2)
N         0.51195807071256    0.00000000000000    0.00000000000000
H        -0.51195807071256   -0.00000000000000    0.00000000000000
