[Molden Format]
[Title]
[Atoms] AU
N      1     7  0.96746045115850E+00 -0.50656110767100E-05 -0.33770740511691E-05
H      2     1 -0.96746045115850E+00  0.50656110767070E-05  0.33770740511691E-05
[GTO]
           1 0
 s           4   1.0000000000000000     
   63.594024466941008      -0.19234388414721629     
   10.951417231523665      -0.23478107924953728     
  0.87999310257376984       0.37593753901700888     
  0.33538715296521110       0.14982889271862770     
 p           4   1.0000000000000000     
   7.2965040481495080       0.97658666315667420     
   1.8918745450712575       0.90372226730345739     
  0.66694432110824120       0.47404958461536373     
  0.26552202674130870        7.1516067715011844E-002

           2 0
 s           3   1.0000000000000000     
   3.3702276975336001       0.27359110588908298     
  0.61389118221497996       0.26460540653860526     
  0.16614291148415999        8.2465947534082318E-002

[MO]
Sym=     1a
Ene=  -0.61297041555343235     
Spin= Alpha
Occup=     2.00000000
           1  0.76359269112966410     
           2 -0.17437205703523095     
           3   1.0074661250382983E-006
           4   6.7164408320974366E-007
           5  0.34207368403987271     
Sym=     2a
Ene=  -0.47325038392119345     
Spin= Alpha
Occup=     1.99999785
           1  0.54589964340553865     
           2  0.71984769151903882     
           3  -3.7725855052954675E-006
           4  -2.5150570063699488E-006
           5 -0.36187140248557242     
Sym=     3a
Ene=  -0.44779355267462378     
Spin= Alpha
Occup=     1.00000107
           1  -3.2698565529058293E-012
           2   3.4686149558368120E-010
           3 -0.55465424983646305     
           4  0.83208092349075169     
           5  -4.7581564878001858E-012
Sym=     4a
Ene=  -0.44779355267259852     
Spin= Alpha
Occup=     1.00000107
           1  -5.9241223039271084E-008
           2   6.2814500826042554E-006
           3  0.83208092347433094     
           4  0.55465424982551448     
           5  -8.6152033442053806E-008
Sym=     5a
Ene=    8.5245865030379078E-002
Spin= Alpha
Occup=     0.00000000
           1 -0.62565683660913107     
           2  0.85082950234484001     
           3  -4.4214654613153977E-006
           4  -2.9476436408284951E-006
           5   1.1388847762828727     
