$hessian                                                                        
        0.3829333766  -0.0000014875  -0.0000009916  -0.3829333766   0.0000014875
        0.0000009916
       -0.0000014875   0.0000997656   0.0000000000   0.0000014875  -0.0000997656
       -0.0000000000
       -0.0000009916   0.0000000000   0.0000997656   0.0000009916  -0.0000000000
       -0.0000997656
       -0.3829333766   0.0000014875   0.0000009916   0.3829333766  -0.0000014875
       -0.0000009916
        0.0000014875  -0.0000997656  -0.0000000000  -0.0000014875   0.0000997656
        0.0000000000
        0.0000009916  -0.0000000000  -0.0000997656  -0.0000009916   0.0000000000
        0.0000997656
