2
 energy: -3.201747393797 gnorm: 0.000263393194 xtb: 6.2.2 (9d81278992624c895f80dd42a50cac0aa55982e2)
N         0.51195807070242   -0.00000268060619   -0.00000178707079
H        -0.51195807070242    0.00000268060619    0.00000178707079
