4
 energy: -9.997827181111 gnorm: 0.212399752777 xtb: 6.2.2 (9d81278992624c895f80dd42a50cac0aa55982e2)
C        -0.60879000000000    1.27774600000000   -0.11463400000000
C         0.03866200000000   -0.00307200000000    0.36755500000000
C        -0.76633100000000   -1.18956000000000   -0.11868600000000
O         1.33645900000000   -0.08511400000000   -0.13423500000000
4
 energy: -10.044686884140 gnorm: 0.079025984595 xtb: 6.2.2 (9d81278992624c895f80dd42a50cac0aa55982e2)
C        -0.57682029681971    1.17904001946345   -0.10347424766438
C         0.03994577476711   -0.00309362951591    0.33072407878966
C        -0.72206927590884   -1.09575847362150   -0.10721004997998
O         1.25894379796144   -0.08018791632604   -0.12003978114529
4
 energy: -10.051630031768 gnorm: 0.056886863365 xtb: 6.2.2 (9d81278992624c895f80dd42a50cac0aa55982e2)
C        -0.55994978381460    1.07223510743080   -0.12018839143296
C         0.05592098995619   -0.00418737005346    0.37550268949556
C        -0.69174818521597   -0.99191223938617   -0.12357817042041
O         1.19577697907439   -0.07613549799117   -0.13173612764219
4
 energy: -10.055086241985 gnorm: 0.008810770983 xtb: 6.2.2 (9d81278992624c895f80dd42a50cac0aa55982e2)
C        -0.57311747357161    1.03760290012474   -0.14550871760092
C         0.07764695190887   -0.00569065716729    0.44619487584202
C        -0.70039912138862   -0.95580401527632   -0.14878231603682
O         1.19586964305136   -0.07610822768113   -0.15190384220427
4
 energy: -10.055895403007 gnorm: 0.027329730484 xtb: 6.2.2 (9d81278992624c895f80dd42a50cac0aa55982e2)
C        -0.58832844959929    0.97435297492548   -0.16935403098805
C         0.10560157680471   -0.00758748139640    0.50973226215972
C        -0.70745355109636   -0.89105942008689   -0.17241428541455
O         1.19018042389094   -0.07570607344220   -0.16796394575712
4
 energy: -10.056565467372 gnorm: 0.015316083706 xtb: 6.2.2 (9d81278992624c895f80dd42a50cac0aa55982e2)
C        -0.59747459957047    0.96494196482061   -0.16586578166050
C         0.11318167028680   -0.00805387715228    0.49609749482485
C        -0.71533994978082   -0.88057573914534   -0.16889137974300
O         1.19963287906448   -0.07631234852300   -0.16134033342134
4
 energy: -10.126637921587 gnorm: 0.213327180070 xtb: 6.2.2 (9d81278992624c895f80dd42a50cac0aa55982e2)
C        -0.73034807242316    0.83235153216365   -0.14038511231700
C         0.22944704353592   -0.01535678255689    0.37425078847489
C        -0.83044927297196   -0.73228876747453   -0.14291658931405
O         1.33135030185921   -0.08470598213223   -0.09094908684384
4
 energy: -10.129289372137 gnorm: 0.648377987302 xtb: 6.2.2 (9d81278992624c895f80dd42a50cac0aa55982e2)
C        -0.92516047270805    0.62401751380514   -0.11062330262984
C         0.41517262508329   -0.02702211150931    0.21333315364080
C        -0.99719873166814   -0.50092960805865   -0.11240457488120
O         1.50718657929290   -0.09606579423719    0.00969472387025
4
 energy: -10.204347801901 gnorm: 0.167779626350 xtb: 6.2.2 (9d81278992624c895f80dd42a50cac0aa55982e2)
C        -0.91652374232550    0.78907748673816   -0.05899265971643
C         0.36688442025672   -0.02371365071419    0.07185159204924
C        -1.00965627891076   -0.66592189900220   -0.06131300518479
O         1.55929560097954   -0.09944193702177    0.04845407285198
4
 energy: -10.203957078740 gnorm: 0.120512855209 xtb: 6.2.2 (9d81278992624c895f80dd42a50cac0aa55982e2)
C        -0.84118847713320    0.77115158222835   -0.10306037350485
C         0.32650494729461   -0.02130190046279    0.22284051887623
C        -0.93253648616154   -0.65757278881799   -0.10537069356209
O         1.44722001600013   -0.09227689294757   -0.01440945180929
4
 energy: -10.219275574763 gnorm: 0.043000643600 xtb: 6.2.2 (9d81278992624c895f80dd42a50cac0aa55982e2)
C        -0.88796694809153    0.73302076550910   -0.07896633148077
C         0.35339337244945   -0.02285220329510    0.13829547524281
C        -0.97403189035156   -0.61386751866032   -0.08115374045237
O         1.50860546599363   -0.09630104355368    0.02182459669033
4
 energy: -10.220913078024 gnorm: 0.043762611877 xtb: 6.2.2 (9d81278992624c895f80dd42a50cac0aa55982e2)
C        -0.90067528212113    0.72993899106877   -0.06587941871666
C         0.36513558318077   -0.02350524963889    0.09326762559455
C        -0.98614425939191   -0.60919695794826   -0.06806398275848
O         1.52168395833227   -0.09723678348162    0.04067577588059
4
 energy: -10.222283277337 gnorm: 0.035485700258 xtb: 6.2.2 (9d81278992624c895f80dd42a50cac0aa55982e2)
C        -0.89977059070418    0.72900727200217   -0.05514425504786
C         0.35940586867026   -0.02305867128307    0.06198685940874
C        -0.98480000564048   -0.60826742018925   -0.05734013638853
O         1.52516472767441   -0.09768118052985    0.05049753202765
4
 energy: -10.223963971179 gnorm: 0.010379815202 xtb: 6.2.2 (9d81278992624c895f80dd42a50cac0aa55982e2)
C        -0.88830446776527    0.73131798151293   -0.03993393413153
C         0.35147517923796   -0.02242464393372    0.01735517713252
C        -0.97184127210977   -0.61111201876070   -0.04217537926219
O         1.50867056063708   -0.09778131881851    0.06475413626120
4
 energy: -10.224099294274 gnorm: 0.009564053594 xtb: 6.2.2 (9d81278992624c895f80dd42a50cac0aa55982e2)
C        -0.88459553408795    0.73302846860531   -0.03869199759496
C         0.34699309884040   -0.02218696723796    0.01509358829323
C        -0.96361480825786   -0.61074923066717   -0.04095430705228
O         1.50121724350541   -0.10009227070018    0.06455271635401
4
 energy: -10.224355093824 gnorm: 0.028800723958 xtb: 6.2.2 (9d81278992624c895f80dd42a50cac0aa55982e2)
C        -0.88839850805425    0.73905121117353   -0.03754517543717
C         0.34475929321238   -0.02238044330426    0.01230327499125
C        -0.95285591252362   -0.60799852087709   -0.03980414040426
O         1.49649512736549   -0.10867224699218    0.06504604085018
4
 energy: -10.225714044585 gnorm: 0.059898946532 xtb: 6.2.2 (9d81278992624c895f80dd42a50cac0aa55982e2)
C        -0.89997522604718    0.75075511456320   -0.03602013470274
C         0.34105983285745   -0.02348314391295    0.00849916249256
C        -0.93014760857295   -0.59857050968606   -0.03804430805410
O         1.48906300176269   -0.12870146096419    0.06556528026427
4
 energy: -10.228803607747 gnorm: 0.075333022579 xtb: 6.2.2 (9d81278992624c895f80dd42a50cac0aa55982e2)
C        -0.92011048724953    0.76635408990673   -0.03562273892235
C         0.33992146452285   -0.02948296362487    0.00442890142821
C        -0.90400849946423   -0.58247435770204   -0.03563379870792
O         1.48419752219091   -0.15439676857982    0.06682763620206
4
 energy: -10.019910628499 gnorm: 1.399480930378 xtb: 6.2.2 (9d81278992624c895f80dd42a50cac0aa55982e2)
C        -1.13307580707796    0.93783249617317   -0.04191434321159
C         0.32947676644273   -0.12941818750794   -0.02986861933175
C        -0.63680141947201   -0.40064828576487   -0.00614415309494
O         1.44040046010724   -0.40776602290035    0.07792711563828
4
 energy: -10.220092389040 gnorm: 0.200925197398 xtb: 6.2.2 (9d81278992624c895f80dd42a50cac0aa55982e2)
C        -1.08813453190880    0.86283127808735   -0.02484694793468
C         0.39733816809694   -0.02469793261234   -0.04085331154632
C        -0.77343469191148   -0.49943599674256   -0.03075573528361
O         1.46423105572334   -0.33869734873244    0.09645599476461
4
 energy: -10.237826334978 gnorm: 0.118967935631 xtb: 6.2.2 (9d81278992624c895f80dd42a50cac0aa55982e2)
C        -1.01270382985560    0.80279297615811   -0.03894807857387
C         0.35753282999605   -0.06158548869109   -0.00925080336244
C        -0.83829372431801   -0.50253049003535   -0.02794020616713
O         1.49346472417756   -0.23867699743168    0.07613908810345
4
 energy: -10.245987023580 gnorm: 0.074973288243 xtb: 6.2.2 (9d81278992624c895f80dd42a50cac0aa55982e2)
C        -1.04491530289881    0.81184905186784   -0.05661604815925
C         0.37870667937461   -0.07569492237016    0.06379974461352
C        -0.87084729317779   -0.49629506553221   -0.04680527536537
O         1.53705591670199   -0.23985906396548    0.03962157891111
4
 energy: -10.231925294821 gnorm: 0.166357615853 xtb: 6.2.2 (9d81278992624c895f80dd42a50cac0aa55982e2)
C        -1.10977006017915    0.83005212911251    0.00275706446904
C         0.44217251465702   -0.13751206756371   -0.19576898902217
C        -0.92277072059796   -0.46747349902121    0.01263682181156
O         1.59036826612008   -0.22506656252759    0.18037510274157
4
 energy: -10.255437771369 gnorm: 0.097426082502 xtb: 6.2.2 (9d81278992624c895f80dd42a50cac0aa55982e2)
C        -1.11884015152126    0.83131157170550   -0.03819856479824
C         0.43400040135205   -0.13887912145642   -0.02029944313721
C        -0.89106403033282   -0.45990158893005   -0.02815702651570
O         1.57590378050203   -0.23253086131903    0.08665503445115
4
 energy: -10.262405679296 gnorm: 0.073809713842 xtb: 6.2.2 (9d81278992624c895f80dd42a50cac0aa55982e2)
C        -1.15838479199220    0.83947404775399   -0.04954560794955
C         0.43818970121510   -0.16579826439792    0.02440583534831
C        -0.87183860777481   -0.43604099848437   -0.03867995924713
O         1.59203369855191   -0.23763478487169    0.06381973184837
4
 energy: -10.279969652429 gnorm: 0.089728201276 xtb: 6.2.2 (9d81278992624c895f80dd42a50cac0aa55982e2)
C        -1.32248153380323    0.86823452415364   -0.07376203364316
C         0.48355375309761   -0.28136869444163    0.11286552973511
C        -0.80948084231709   -0.33374777369103   -0.05940053991383
O         1.64840862302271   -0.25311805602098    0.02029704382187
4
 energy: -10.290328193285 gnorm: 0.102386183272 xtb: 6.2.2 (9d81278992624c895f80dd42a50cac0aa55982e2)
C        -1.46882076205107    0.87775399597833   -0.08009964167257
C         0.53561428207916   -0.38382810739044    0.12636884799687
C        -0.75133359062090   -0.22607782861065   -0.06188799107179
O         1.68454007059281   -0.26784805997723    0.01561878474749
4
 energy: -10.298049151162 gnorm: 0.060436813084 xtb: 6.2.2 (9d81278992624c895f80dd42a50cac0aa55982e2)
C        -1.49578543829215    0.85213132626166   -0.06760587743557
C         0.54628259281314   -0.40844188508427    0.07062861846153
C        -0.72612126476498   -0.17246151258251   -0.04797686563957
O         1.67562411024399   -0.27122792859487    0.04495412461361
4
 energy: -10.300705396540 gnorm: 0.038156464792 xtb: 6.2.2 (9d81278992624c895f80dd42a50cac0aa55982e2)
C        -1.53932824687988    0.82956090570757   -0.06074037789171
C         0.56171744044649   -0.43854763328852    0.03692691527480
C        -0.71788095407659   -0.11432824413637   -0.04015395083424
O         1.69549176050999   -0.27668502828267    0.06396741345115
4
 energy: -10.302327801146 gnorm: 0.024390203203 xtb: 6.2.2 (9d81278992624c895f80dd42a50cac0aa55982e2)
C        -1.56426989148445    0.81717684219505   -0.05657944443086
C         0.56289698142676   -0.43128527596895    0.01340490682334
C        -0.69704297101171   -0.09114733998177   -0.03342492653577
O         1.69841588106941   -0.29474422624433    0.07659946414329
4
 energy: -10.304402925902 gnorm: 0.040116642158 xtb: 6.2.2 (9d81278992624c895f80dd42a50cac0aa55982e2)
C        -1.61069983003712    0.79109223888466   -0.05329156264754
C         0.56948504176629   -0.40354487351624   -0.01238476250199
C        -0.67119697304610   -0.05346356579829   -0.02529182899608
O         1.71241176131693   -0.33408379957013    0.09096815414560
4
 energy: -10.306524419581 gnorm: 0.069156142872 xtb: 6.2.2 (9d81278992624c895f80dd42a50cac0aa55982e2)
C        -1.67146792713078    0.75343238344921   -0.05377338119555
C         0.58458248830043   -0.35753832143511   -0.02608458513968
C        -0.64836264412502   -0.00682019586042   -0.01952720701194
O         1.73524808295536   -0.38907386615368    0.09938517334717
4
 energy: -10.308445464940 gnorm: 0.072769642167 xtb: 6.2.2 (9d81278992624c895f80dd42a50cac0aa55982e2)
C        -1.69714857849197    0.71656476593959   -0.05864958440517
C         0.59572305269244   -0.29774991848566   -0.01570054721998
C        -0.64649686644755    0.01451388777055   -0.02012118179205
O         1.74792239224707   -0.43332873522448    0.09447131341720
4
 energy: -10.309073210285 gnorm: 0.064512847795 xtb: 6.2.2 (9d81278992624c895f80dd42a50cac0aa55982e2)
C        -1.78095139521531    0.67321167213889   -0.07148170568161
C         0.63637753746657   -0.26493430001771    0.02268543889674
C        -0.62860707984545    0.08149024581050   -0.02687814130250
O         1.77318093759419   -0.48976761793167    0.07567440808737
4
 energy: -10.310181944339 gnorm: 0.045887035203 xtb: 6.2.2 (9d81278992624c895f80dd42a50cac0aa55982e2)
C        -1.72535510279632    0.68723789310497   -0.07288115279943
C         0.62525445736802   -0.27494986164377    0.03992741766533
C        -0.64982595616485    0.04490591655900   -0.03238398079169
O         1.74992660159315   -0.45719394802019    0.06533771592579
4
 energy: -10.311131841400 gnorm: 0.014742204778 xtb: 6.2.2 (9d81278992624c895f80dd42a50cac0aa55982e2)
C        -1.74093736905916    0.67143472520867   -0.07008981260974
C         0.62303977242157   -0.26038240741924    0.02317754638803
C        -0.63435170132984    0.06367345532735   -0.02738377892747
O         1.75224929796743   -0.47472577311678    0.07429604514917
4
 energy: -10.311500190543 gnorm: 0.020229835246 xtb: 6.2.2 (9d81278992624c895f80dd42a50cac0aa55982e2)
C        -1.75898178149460    0.65191254321414   -0.07059699976974
C         0.62915798734162   -0.25011421462261    0.02125517388199
C        -0.62330341305869    0.08849861260042   -0.02607556786123
O         1.75312720721167   -0.49029694119195    0.07541739374898
4
 energy: -10.311948606594 gnorm: 0.024320824322 xtb: 6.2.2 (9d81278992624c895f80dd42a50cac0aa55982e2)
C        -1.78273471186259    0.61308106003716   -0.07199268825072
C         0.63864637344080   -0.22930400827207    0.02127427955516
C        -0.60615428244626    0.13192582700692   -0.02464422232231
O         1.75024262086804   -0.51570287877200    0.07536263101787
4
 energy: -10.312230140032 gnorm: 0.011429455271 xtb: 6.2.2 (9d81278992624c895f80dd42a50cac0aa55982e2)
C        -1.78534589883479    0.59368655686353   -0.07266418231219
C         0.64113059366226   -0.22056963030000    0.02303313612329
C        -0.60057650880943    0.15012474853880   -0.02456827965480
O         1.74479181398196   -0.52324167510233    0.07419932584370
4
 energy: -10.312343312021 gnorm: 0.005531954737 xtb: 6.2.2 (9d81278992624c895f80dd42a50cac0aa55982e2)
C        -1.79253036978152    0.56876892985066   -0.07412377844679
C         0.64534346105696   -0.20402157782214    0.02658914814449
C        -0.59482613878258    0.17238430790161   -0.02467549624860
O         1.74201304750713   -0.53713165993014    0.07221012655090
4
 energy: -10.312360254417 gnorm: 0.002756901579 xtb: 6.2.2 (9d81278992624c895f80dd42a50cac0aa55982e2)
C        -1.79387264851627    0.56088923680686   -0.07419557475493
C         0.64651328054253   -0.20264925825230    0.02663364923480
C        -0.59261882899027    0.18094529828424   -0.02454489507505
O         1.73997819696400   -0.53918527683879    0.07210682059518
4
 energy: -10.312362210372 gnorm: 0.000666106803 xtb: 6.2.2 (9d81278992624c895f80dd42a50cac0aa55982e2)
C        -1.79509059730975    0.55748666156949   -0.07429840896786
C         0.64690082902348   -0.20031244691178    0.02663528388455
C        -0.59152390326424    0.18410244093961   -0.02443221420801
O         1.73971367155052   -0.54127665559732    0.07209533929132
