[Molden Format]
[Title]
[Atoms] AU
C      1     6 -0.33922242570199E+01  0.10535145273619E+01 -0.14039362900216E+00
C      2     6  0.12224634768949E+01 -0.37854194185649E+00  0.50329780583619E-01
C      3     6 -0.11178164091561E+01  0.34790893226763E+00 -0.46166894471718E-01
O      4     8  0.32875771892811E+01 -0.10228815177730E+01  0.13623074289025E+00
[GTO]
           1 0
 s           4   1.0000000000000000     
   51.049363095579913      -0.16312063210127389     
   8.7911227406887544      -0.19911024581000730     
  0.70640422258929825       0.31882047753655751     
  0.26922813413411617       0.12706504184240380     
 p           4   1.0000000000000000     
   5.8263656140800002       0.73716451545209605     
   1.5106896018720002       0.68216371614850257     
  0.53256483288000001       0.35783053929253711     
  0.21202323690600003        5.3983030275847881E-002

           2 0
 s           4   1.0000000000000000     
   51.049363095579913      -0.16312063210127389     
   8.7911227406887544      -0.19911024581000730     
  0.70640422258929825       0.31882047753655751     
  0.26922813413411617       0.12706504184240380     
 p           4   1.0000000000000000     
   5.8263656140800002       0.73716451545209605     
   1.5106896018720002       0.68216371614850257     
  0.53256483288000001       0.35783053929253711     
  0.21202323690600003        5.3983030275847881E-002

           3 0
 s           4   1.0000000000000000     
   51.049363095579913      -0.16312063210127389     
   8.7911227406887544      -0.19911024581000730     
  0.70640422258929825       0.31882047753655751     
  0.26922813413411617       0.12706504184240380     
 p           4   1.0000000000000000     
   5.8263656140800002       0.73716451545209605     
   1.5106896018720002       0.68216371614850257     
  0.53256483288000001       0.35783053929253711     
  0.21202323690600003        5.3983030275847881E-002

           4 0
 s           4   1.0000000000000000     
   69.137961906196551      -0.20478756370077797     
   11.906129132707308      -0.24997023136827334     
  0.95670827744340703       0.40025880240639616     
  0.36462520496073686       0.15952206667693555     
 p           4   1.0000000000000000     
   8.2124193257781641        1.1321556799186829     
   2.1293576997098116        1.0476840782254817     
  0.75066448202360914       0.54956508217158984     
  0.29885246543283073        8.2908486592766617E-002

[MO]
Sym=     1a
Ene=  -0.80870088636374504     
Spin= Alpha
Occup=     2.00000000
           1   2.1037248709216351E-003
           2  -1.6783738909743337E-003
           3   5.2057904091598009E-004
           4  -6.9440599826142585E-005
           5 -0.33833451607590825     
           6 -0.21387458600254822     
           7   6.6744788089771773E-002
           8  -8.9003385084577401E-003
           9  -1.7966024485958978E-002
          10  -2.9161514493060665E-002
          11   9.0686384097669170E-003
          12  -1.2059272585001205E-003
          13 -0.63718586615507444     
          14  0.23532254621175422     
          15  -7.3451732157332458E-002
          16   9.7939537223558498E-003
Sym=     2a
Ene=  -0.69686475774719636     
Spin= Alpha
Occup=     2.00000000
           1  0.10671699320808507     
           2   6.2991812926412788E-002
           3  -1.9549824660322880E-002
           4   2.6062676014019159E-003
           5  0.45255372616818812     
           6 -0.23255090077114138     
           7   7.2136345540554647E-002
           8  -9.5811980379081150E-003
           9  0.36111321786478673     
          10  0.12713571338054427     
          11  -3.9489603257802902E-002
          12   5.2376211506538362E-003
          13 -0.39769072452620907     
          14 -0.31881993710600021     
          15   9.9126351465853510E-002
          16  -1.3185775373989702E-002
Sym=     3a
Ene=  -0.64938056122755594     
Spin= Alpha
Occup=     2.00000000
           1  0.48768488808242727     
           2  0.13735117061338789     
           3  -4.2632915521038060E-002
           4   5.6929977371333960E-003
           5 -0.10093423204952674     
           6  -9.7211269642352244E-002
           7   2.9528855016652290E-002
           8  -3.9248562465063240E-003
           9  0.38344242926745242     
          10 -0.21237326026649964     
          11   6.5767257761803657E-002
          12  -8.7794861806781699E-003
          13  0.35432189436154310     
          14  0.33318695862561254     
          15 -0.10481580213297492     
          16   1.3980495408197005E-002
Sym=     4a
Ene=  -0.63460236482270416     
Spin= Alpha
Occup=     2.00000000
           1   7.4896825942284044E-005
           2   1.4235165851974961E-004
           3  -2.5838801092435346E-003
           4  -2.2453810676784713E-002
           5   3.2666407732033495E-005
           6   2.9199049021567673E-003
           7  -5.8243103338515102E-002
           8 -0.50693424801749976     
           9   2.8131990612698896E-006
          10   6.1737576457000592E-004
          11  -1.3534389921185348E-002
          12 -0.11797050033538593     
          13  -5.6785733529853164E-005
          14   4.0196780573769769E-003
          15  -8.1710766057452491E-002
          16 -0.71140615470875590     
Sym=     5a
Ene=  -0.63460233217479145     
Spin= Alpha
Occup=     2.00000000
           1  -1.0469732083658834E-003
           2  -6.9917167766314842E-003
           3  -2.1359371646000415E-002
           4   2.4137476439213671E-003
           5  -2.4608201924105586E-004
           6 -0.15299825561914215     
           7 -0.48371720829044595     
           8   5.4694259830852431E-002
           9  -5.5393742316608508E-004
          10  -3.4942640482849237E-002
          11 -0.11277042421854025     
          12   1.2755192400511874E-002
          13   3.9680012093454933E-005
          14 -0.21483661476868668     
          15 -0.67878205072746745     
          16   7.6749588505480443E-002
Sym=     6a
Ene=  -0.60432336203661652     
Spin= Alpha
Occup=     2.00000000
           1 -0.38186771481795689     
           2  -1.7116725934505621E-002
           3   5.3608331602206273E-003
           4  -7.3142180039210351E-004
           5  0.10886874958459059     
           6 -0.33639312854262848     
           7  0.10523516991295469     
           8  -1.4072997015757196E-002
           9  0.11487680479646448     
          10  0.32345420170502104     
          11 -0.10012124036618178     
          12   1.3307440534097298E-002
          13  0.36716092805877937     
          14  0.49410570280065763     
          15 -0.15348364285044711     
          16   2.0357450166266635E-002
Sym=     7a
Ene=  -0.46722602346605840     
Spin= Alpha
Occup=     2.00000000
           1   2.3078744159866536E-004
           2   3.9264118690249247E-002
           3   6.4640278246711078E-002
           4 -0.46873272401541166     
           5   9.5719266278350927E-005
           6   1.8506800366142051E-002
           7   3.0294558171911647E-002
           8 -0.21987306067208218     
           9  -1.8550339513430240E-004
          10   5.2229307281832775E-002
          11   8.5569470731328312E-002
          12 -0.62096752754475049     
          13   3.3341504272474816E-005
          14  -3.3995719729719959E-002
          15  -5.5368486709335377E-002
          16  0.40217527518857432     
Sym=     8a
Ene=  -0.46722601187211732     
Spin= Alpha
Occup=     2.00000000
           1   3.2878521481894980E-004
           2  0.13597987249244969     
           3  0.44896145677902466     
           4   7.3304301940479891E-002
           5   1.8029247508983650E-004
           6   6.4085057621889707E-002
           7  0.21050956742703514     
           8   3.4398483393062014E-002
           9  -1.7901426996414505E-004
          10  0.18046413661717819     
          11  0.59468456847754447     
          12   9.7126586731268408E-002
          13   7.7403360148785527E-005
          14 -0.11754807918745867     
          15 -0.38495217180581798     
          16  -6.2933600046267274E-002
Sym=     9a
Ene=  -0.43382991967590701     
Spin= Alpha
Occup=     2.00000000
           1 -0.62270555886174206     
           2  0.64434750399695462     
           3 -0.19950421603992230     
           4   2.6526338419231538E-002
           5 -0.14867331994168934     
           6  0.12613853904489072     
           7  -3.9366664344974989E-002
           8   5.1781190845387685E-003
           9  0.22808965803422337     
          10 -0.19908410512612182     
          11   6.2136854537461872E-002
          12  -8.4008979143715152E-003
          13  -1.6108649907655172E-002
          14  -9.8887413525937065E-002
          15   3.0843317324644317E-002
          16  -4.0147755863673609E-003
Sym=    10a
Ene=  -0.33295079120820481     
Spin= Alpha
Occup=     0.00000000
           1   1.1324005917658797E-004
           2  0.20076837064359246     
           3  0.61952307742537693     
           4 -0.21642198742399382     
           5  -5.6497280502437752E-004
           6 -0.19187754852872510     
           7 -0.58899019060207158     
           8  0.20581684513913406     
           9   2.2234039670340614E-004
          10  -2.6358552990527452E-002
          11  -8.2202800805278656E-002
          12   2.8699362346034676E-002
          13  -6.2934728265167387E-005
          14  0.15661598513663466     
          15  0.48020928295855841     
          16 -0.16781521871231958     
Sym=    11a
Ene=  -0.33295071762323125     
Spin= Alpha
Occup=     0.00000000
           1   8.2629411408977565E-006
           2   3.9518217783597320E-002
           3  0.21449941016895016     
           4  0.65067974236690929     
           5  -2.3131683605848224E-005
           6  -3.7866574768134154E-002
           7 -0.20393957908046609     
           8 -0.61891980733010188     
           9  -5.2375961020211391E-007
          10  -5.2261146005445434E-003
          11  -2.8437907537532274E-002
          12  -8.6253641262655140E-002
          13  -6.1549609936831132E-006
          14   3.0888746105205356E-002
          15  0.16628720167460440     
          16  0.50466404638765061     
Sym=    12a
Ene=  -0.13545201758072031     
Spin= Alpha
Occup=     0.00000000
           1  -6.3016753979423188E-005
           2 -0.18197934708542729     
           3 -0.57441150835283361     
           4   8.0367688454745040E-002
           5  -1.1363767261509394E-003
           6 -0.18787527595895720     
           7 -0.59260459002121724     
           8   8.2913201472035611E-002
           9   6.2292966798062300E-004
          10  0.25208045663908046     
          11  0.79629178838403480     
          12 -0.11141128627303036     
          13   2.2974331717780775E-004
          14   9.7123519508762510E-002
          15  0.30769308181872207     
          16  -4.3049518678834130E-002
Sym=    13a
Ene=  -0.13545170168185477     
Spin= Alpha
Occup=     0.00000000
           1  -6.1642623451239316E-006
           2  -1.1547512667910475E-003
           3  -8.3871487037586498E-002
           4 -0.60206943023434978     
           5   7.3787067009114518E-006
           6  -1.1640278557530140E-003
           7  -8.6542216354862506E-002
           8 -0.62117890516253760     
           9   1.2290098345878848E-004
          10   1.5837919324505675E-003
          11  0.11626628864802532     
          12  0.83457638573796900     
          13  -2.4930902448438554E-006
          14   6.1047837958519283E-004
          15   4.4914963282506368E-002
          16  0.32240306563677040     
Sym=    14a
Ene=   0.15494195953802550     
Spin= Alpha
Occup=     0.00000000
           1  0.24569397227850961     
           2  0.48897675320125555     
           3 -0.15206114585139588     
           4   2.0233277800439143E-002
           5  0.97624268101926270     
           6 -0.14528999511992943     
           7   4.3633396637142566E-002
           8  -5.7372906390021168E-003
           9 -0.95020204051396806     
          10 -0.26258046848616917     
          11   8.2344924334369324E-002
          12  -1.0821865954711083E-002
          13 -0.29302026535247239     
          14  0.47040870189590078     
          15 -0.14611025599378352     
          16   1.9447284794620510E-002
Sym=    15a
Ene=   0.77004863738796003     
Spin= Alpha
Occup=     0.00000000
           1  0.64934848682741320     
           2  0.72297883900707771     
           3 -0.22419410453077773     
           4   2.9926851132456071E-002
           5 -0.71044147016189396     
           6 -0.63227567952953312     
           7  0.19739589437001731     
           8  -2.6376510173429079E-002
           9 -0.75234697412557749     
          10  0.69738130222426531     
          11 -0.21669682742455995     
          12   2.8986744956734048E-002
          13  0.59376529537951939     
          14 -0.60847707344990709     
          15  0.18982668818962320     
          16  -2.5289976532041267E-002
Sym=    16a
Ene=    1.3844666739109321     
Spin= Alpha
Occup=     0.00000000
           1 -0.58942536182692984     
           2 -0.52378878341885349     
           3  0.16253099591937201     
           4  -2.1746908434608296E-002
           5  0.15646002794987809     
           6  -1.2941733471794019     
           7  0.40269962747317023     
           8  -5.3556099508171737E-002
           9 -0.24709418801516714     
          10  -1.2211239168451371     
          11  0.37871699597297209     
          12  -5.0391989991209370E-002
          13  0.67343085416621740     
          14 -0.55560569830136863     
          15  0.17362059247484044     
          16  -2.3178549311207698E-002
