      -----------------------------------------------------------      
     |                   =====================                   |     
     |                           x T B                           |     
     |                   =====================                   |     
     |                         S. Grimme                         |     
     |          Mulliken Center for Theoretical Chemistry        |     
     |                    University of Bonn                     |     
      -----------------------------------------------------------      

   * xtb version 6.2.2 (9d81278992624c895f80dd42a50cac0aa55982e2) compiled by '@Darwin' on 04/03/2020

   xtb is free software: you can redistribute it and/or modify it under
   the terms of the GNU Lesser General Public License as published by
   the Free Software Foundation, either version 3 of the License, or
   (at your option) any later version.
   
   xtb is distributed in the hope that it will be useful,
   but WITHOUT ANY WARRANTY; without even the implied warranty of
   MERCHANTABILITY or FITNESS FOR A PARTICULAR PURPOSE.  See the
   GNU Lesser General Public License for more details.
   
   Cite this work as:
   * S. Grimme, C. Bannwarth, P. Shushkov, J. Chem. Theory Comput., 2017,
     13, 1989-2009. DOI: 10.1021/acs.jctc.7b00118
   * C. Bannwarth, S. Ehlert and S. Grimme., J. Chem. Theory Comput., 2019,
     15, 1652-1671. DOI: 10.1021/acs.jctc.8b01176
   * P. Pracht, E. Caldeweyher, S. Ehlert, S. Grimme, ChemRxiv, 2019, preprint.
     DOI: 10.26434/chemrxiv.8326202.v1
   
   for DFT-D4:
   * E. Caldeweyher, C. Bannwarth and S. Grimme, J. Chem. Phys., 2017,
     147, 034112. DOI: 10.1063/1.4993215
   * E. Caldeweyher, S. Ehlert, A. Hansen, H. Neugebauer, S. Spicher,
     C. Bannwarth and S. Grimme, J. Chem. Phys., 2019, 150, 154122.
     DOI: 10.1063/1.5090222
   
   for sTDA-xTB:
   * S. Grimme and C. Bannwarth, J. Chem. Phys., 2016, 145, 054103.
     DOI: 10.1063/1.4959605
   
   in the mass-spec context:
   * V. Asgeirsson, C. Bauer and S. Grimme, Chem. Sci., 2017, 8, 4879.
     DOI: 10.1039/c7sc00601b
   
   for metadynamics refer to:
   * S. Grimme, J. Chem. Theory Comput., 2019, 155, 2847-2862
     DOI: 10.1021/acs.jctc.9b00143
   
   with help from (in alphabetical order)
   C. Bannwarth, F. Bohle, G. Brandenburg, E. Caldeweyher, M. Checinski,
   S. Dohm, S. Ehlert, S. Ehrlich, F. März, H. Neugebauer, J. Pisarek,
   P. Pracht, P. Shushkov, and S. Spicher.
   
 * started run on 2020/05/12 at 11:45:17.114     

           -------------------------------------------------
          |                Calculation Setup                |
           -------------------------------------------------

          program call               : xtb --input C3O1_0_S_0.input C3O1_0_S_0.xyz --ohess --molden --namespace C3O1_0_S_0 output.out
          calculation namespace      : C3O1_0_S_0
          coordinate file            : C3O1_0_S_0.xyz
          number of atoms            :                     4
          number of electrons        :                    18
          charge                     :                     0
          spin                       :                   0.0
          first test random number   :      0.47763573910872

   ID    Z sym.   atoms
    1    6 C      1-3
    2    8 O      4

           -------------------------------------------------
          |                 G F N 2 - x T B                 |
           -------------------------------------------------

        Reference                      10.1021/acs.jctc.8b01176
      * Hamiltonian:
        H0-scaling (s, p, d)           1.850000    2.230000    2.230000
        zeta-weighting                 0.500000
      * Dispersion:
        s8                             2.700000
        a1                             0.520000
        a2                             5.000000
        s9                             5.000000
      * Repulsion:
        kExp                           1.500000    1.000000
        rExp                           1.000000
      * Coulomb:
        alpha                          2.000000
        third order                    shell-resolved
        anisotropic                    true
        a3                             3.000000
        a5                             4.000000
        cn-shift                       1.200000
        cn-exp                         4.000000
        max-rad                        5.000000


          ...................................................
          :                      SETUP                      :
          :.................................................:
          :  # basis functions                  16          :
          :  # atomic orbitals                  16          :
          :  # shells                            8          :
          :  # electrons                        18          :
          :  max. iterations                   250          :
          :  Hamiltonian                  GFN2-xTB          :
          :  restarted?                      false          :
          :  GBSA solvation                  false          :
          :  PC potential                    false          :
          :  electronic temp.          300.0000000     K    :
          :  accuracy                    1.0000000          :
          :  -> integral cutoff          0.2500000E+02      :
          :  -> integral neglect         0.1000000E-07      :
          :  -> SCF convergence          0.1000000E-05 Eh   :
          :  -> wf. convergence          0.1000000E-03 e    :
          :  Broyden damping             0.4000000          :
          ...................................................

 iter      E             dE          RMSdq      gap      omega  full diag
   1     -9.8238722 -0.982387E+01  0.148E+01    1.37       0.0  T
   2     -7.9832266  0.184065E+01  0.180E+01    0.45       1.0  T
   3     -9.5559002 -0.157267E+01  0.127E+01    1.56       1.0  T
   4     -9.7839400 -0.228040E+00  0.836E+00    1.34       1.0  T
   5     -9.8132122 -0.292722E-01  0.709E+00    1.37       1.0  T
   6     -9.9275090 -0.114297E+00  0.529E+00    1.13       1.0  T
   7     -9.9478192 -0.203102E-01  0.469E+00    1.08       1.0  T
   8     -9.9447355  0.308370E-02  0.414E+00    0.58       1.0  T
   9     -9.7948420  0.149893E+00  0.697E+00    0.57       1.0  T
  10     -9.7941332  0.708745E-03  0.698E+00    0.57       1.0  T
  11     -9.8674460 -0.733128E-01  0.578E+00    0.58       1.0  T
  12     -9.9080673 -0.406214E-01  0.502E+00    0.59       1.0  T
  13     -9.9630849 -0.550176E-01  0.379E+00    0.60       1.0  T
  14    -10.0358811 -0.727961E-01  0.121E-01    0.72       1.0  T
  15    -10.0343290  0.155209E-02  0.571E-01    0.75       1.0  T
  16    -10.0316915  0.263754E-02  0.948E-01    0.77       1.0  T
  17    -10.0307351  0.956315E-03  0.105E+00    0.78       1.0  T
  18    -10.0339885 -0.325333E-02  0.671E-01    0.76       1.0  T
  19    -10.0355442 -0.155572E-02  0.319E-01    0.74       1.0  T
  20    -10.0357727 -0.228466E-03  0.210E-01    0.73       1.0  T
  21    -10.0359026 -0.129918E-03  0.113E-01    0.73       1.0  T
  22    -10.0359335 -0.308946E-04  0.726E-02    0.73       1.0  T
  23    -10.0359565 -0.230502E-04  0.158E-02    0.72       3.2  T
  24    -10.0359576 -0.105579E-05  0.274E-03    0.72      18.2  T
  25    -10.0359576 -0.347061E-07  0.318E-04    0.72     157.2  T
  26    -10.0359576  0.131889E-09  0.206E-04    0.72     242.4  T

   *** convergence criteria satisfied after 26 iterations ***

         #    Occupation            Energy/Eh            Energy/eV
      -------------------------------------------------------------
         1        2.0000           -0.7622505             -20.7419
       ...           ...                  ...                  ...
         3        2.0000           -0.6993154             -19.0293
         4        2.0000           -0.6219141             -16.9231
         5        2.0000           -0.5800320             -15.7835
         6        2.0000           -0.5606745             -15.2567
         7        2.0000           -0.5606202             -15.2553
         8        2.0000           -0.4872813             -13.2596
         9        2.0000           -0.4829234             -13.1410 (HOMO)
        10        0.0000           -0.4563750             -12.4186 (LUMO)
        11                         -0.4509353             -12.2706
        12                         -0.4334838             -11.7957
        13                         -0.3573656              -9.7244
        14                          0.0332799               0.9056
       ...                                ...                  ...
        16                          0.0716930               1.9509
      -------------------------------------------------------------
                  HL-Gap            0.0265484 Eh            0.7224 eV
             Fermi-level           -0.4696459 Eh          -12.7797 eV

 SCC (total)                   0 d,  0 h,  0 min,  0.005 sec
 SCC setup                      ...        0 min,  0.000 sec (  2.052%)
 Dispersion                     ...        0 min,  0.000 sec (  0.331%)
 integral evaluation            ...        0 min,  0.001 sec ( 22.531%)
 zeroth order Hamiltonian       ...        0 min,  0.000 sec (  0.420%)
 iterations                     ...        0 min,  0.002 sec ( 51.006%)
 molecular gradient             ...        0 min,  0.001 sec ( 21.285%)
 printout                       ...        0 min,  0.000 sec (  2.097%)

         :::::::::::::::::::::::::::::::::::::::::::::::::::::
         ::                     SUMMARY                     ::
         :::::::::::::::::::::::::::::::::::::::::::::::::::::
         :: total energy              -9.997827180148 Eh    ::
         :: gradient norm              0.212401247292 Eh/a0 ::
         :: HOMO-LUMO gap              0.722419880665 eV    ::
         ::.................................................::
         :: SCC energy               -10.035957608684 Eh    ::
         :: -> isotropic ES           -0.005510395911 Eh    ::
         :: -> anisotropic ES         -0.002114594895 Eh    ::
         :: -> anisotropic XC          0.008863588395 Eh    ::
         :: -> dispersion             -0.001744008409 Eh    ::
         :: repulsion energy           0.038130377361 Eh    ::
         :: add. restraining           0.000000000000 Eh    ::
         :::::::::::::::::::::::::::::::::::::::::::::::::::::

      ----------------------------------------------------------- 
     |                   =====================                   |
     |                        A N C O P T                        |
     |                   =====================                   |
     |               Approximate Normal Coordinate               |
     |                Rational Function Optimizer                |
      ----------------------------------------------------------- 

          ...................................................
          :                      SETUP                      :
          :.................................................:
          :   optimization level            normal          :
          :   max. optcycles                   200          :
          :   ANC micro-cycles                  20          :
          :   degrees of freedom                 6          :
          :.................................................:
          :   RF solver                   davidson          :
          :   write xtbopt.log                true          :
          :   linear?                        false          :
          :   energy convergence         0.5000000E-05 Eh   :
          :   grad. convergence          0.1000000E-02 Eh/α :
          :   maximium RF displ.         1.0000000          :
          :   Hlow (freq-cutoff)         0.1000000E-01      :
          :   Hmax (freq-cutoff)         5.0000000          :
          :   S6 in model hess.         20.0000000          :
          ...................................................

generating ANC from model Hessian ...
Using Lindh-Hessian (1995)
 Shifting diagonal of input Hessian by    0.0000000000000000     
 Lowest  eigenvalues of input Hessian
   -0.000000   -0.000000   -0.000000   -0.000000    0.000000    0.000000
    0.066696    0.096505    0.111388    0.623971    0.996469    1.279129
 Highest eigenvalues
    0.066696    0.096505    0.111388    0.623971    0.996469    1.279129


........................................................................
.............................. CYCLE    1 ..............................
........................................................................
   1    -10.0359576 -0.100360E+02  0.561E-05    0.72       0.0  T
   2    -10.0359576  0.190321E-09  0.190E-04    0.72     263.4  T
   3    -10.0359576 -0.201366E-09  0.191E-05    0.72    2618.8  T
     SCC iter.                  ...        0 min,  0.000 sec
     gradient                   ...        0 min,  0.001 sec
 * total energy  :    -9.9978272 Eh     change       -0.9628671E-09 Eh
   gradient norm :     0.2123998 Eh/α   predicted     0.0000000E+00 (-100.00%)
   displ. norm   :     0.3238636 α      lambda       -0.6426928E-01
   maximum displ.:     0.2919205 α      in ANC's #4, #1, #6, ...

........................................................................
.............................. CYCLE    2 ..............................
........................................................................
   1    -10.0971723 -0.100972E+02  0.260E+00    0.76       0.0  T
   2    -10.0101910  0.869813E-01  0.481E+00    1.19       1.0  T
   3    -10.1228974 -0.112706E+00  0.888E-01    0.87       1.0  T
   4    -10.1213791  0.151835E-02  0.843E-01    0.81       1.0  T
   5    -10.1241702 -0.279113E-02  0.226E-01    0.82       1.0  T
   6    -10.1243478 -0.177593E-03  0.906E-02    0.83       1.0  T
   7    -10.1243657 -0.178947E-04  0.392E-02    0.83       1.3  T
   8    -10.1243748 -0.909908E-05  0.153E-02    0.83       3.3  T
   9    -10.1243762 -0.145284E-05  0.188E-03    0.83      26.6  T
  10    -10.1243762 -0.179628E-08  0.403E-04    0.83     124.0  T
  11    -10.1243762 -0.367240E-09  0.134E-04    0.83     373.7  T
     SCC iter.                  ...        0 min,  0.001 sec
     gradient                   ...        0 min,  0.001 sec
 * total energy  :   -10.0446869 Eh     change       -0.4685970E-01 Eh
   gradient norm :     0.0790260 Eh/α   predicted    -0.3550517E-01 ( -24.23%)
   displ. norm   :     0.3291998 α      lambda       -0.1864768E-01
   maximum displ.:     0.2573373 α      in ANC's #1, #4, #2, ...

........................................................................
.............................. CYCLE    3 ..............................
........................................................................
   1    -10.1503627 -0.101504E+02  0.266E+00    1.03       0.0  T
   2    -10.1064473  0.439154E-01  0.376E+00    1.24       1.0  T
   3    -10.1738487 -0.674014E-01  0.843E-01    1.08       1.0  T
   4    -10.1719626  0.188615E-02  0.644E-01    1.07       1.0  T
   5    -10.1738471 -0.188454E-02  0.109E-01    1.08       1.0  T
   6    -10.1738961 -0.489636E-04  0.352E-02    1.08       1.4  T
   7    -10.1738984 -0.230919E-05  0.395E-03    1.08      12.6  T
   8    -10.1738984 -0.628820E-07  0.125E-03    1.08      39.9  T
   9    -10.1738984  0.823582E-08  0.134E-03    1.08      37.2  T
  10    -10.1738984 -0.117768E-07  0.206E-04    1.08     242.2  T
  11    -10.1738984 -0.721485E-10  0.118E-04    1.08     423.7  T
     SCC iter.                  ...        0 min,  0.001 sec
     gradient                   ...        0 min,  0.001 sec
 * total energy  :   -10.0516300 Eh     change       -0.6943148E-02 Eh
   gradient norm :     0.0568855 Eh/α   predicted    -0.1033429E-01 (  48.84%)
   displ. norm   :     0.1880842 α      lambda       -0.5401275E-02
   maximum displ.:     0.1750118 α      in ANC's #1, #4, #2, ...

........................................................................
.............................. CYCLE    4 ..............................
........................................................................
   1    -10.1567108 -0.101567E+02  0.142E+00    1.18       0.0  T
   2    -10.1551515  0.155922E-02  0.103E+00    1.21       1.0  T
   3    -10.1525861  0.256546E-02  0.110E+00    1.17       1.0  T
   4    -10.1574045 -0.481846E-02  0.747E-02    1.20       1.0  T
   5    -10.1574273 -0.227459E-04  0.284E-02    1.20       1.8  T
   6    -10.1574264  0.849623E-06  0.196E-02    1.20       2.6  T
   7    -10.1574277 -0.125523E-05  0.325E-03    1.20      15.4  T
   8    -10.1574277 -0.364691E-08  0.968E-04    1.20      51.7  T
   9    -10.1574277 -0.149042E-08  0.764E-04    1.20      65.5  T
     SCC iter.                  ...        0 min,  0.001 sec
     gradient                   ...        0 min,  0.001 sec
 * total energy  :   -10.0550862 Eh     change       -0.3456210E-02 Eh
   gradient norm :     0.0088096 Eh/α   predicted    -0.2796173E-02 ( -19.10%)
   displ. norm   :     0.2292195 α      lambda       -0.1792216E-02
   maximum displ.:     0.2271583 α      in ANC's #1, #2, #4, ...

........................................................................
.............................. CYCLE    5 ..............................
........................................................................
   1    -10.1471512 -0.101472E+02  0.184E+00    1.20       0.0  T
   2    -10.1434922  0.365899E-02  0.145E+00    1.24       1.0  T
   3    -10.1449782 -0.148608E-02  0.114E+00    1.19       1.0  T
   4    -10.1492813 -0.430302E-02  0.521E-02    1.22       1.0  T
   5    -10.1492861 -0.484354E-05  0.253E-02    1.22       2.0  T
   6    -10.1492863 -0.143526E-06  0.169E-02    1.22       3.0  T
   7    -10.1492866 -0.328888E-06  0.600E-03    1.22       8.3  T
   8    -10.1492867 -0.124629E-06  0.374E-03    1.22      13.4  T
   9    -10.1492867 -0.274919E-07  0.464E-04    1.22     107.8  T
  10    -10.1492867 -0.542626E-09  0.118E-04    1.22     424.8  T
     SCC iter.                  ...        0 min,  0.001 sec
     gradient                   ...        0 min,  0.001 sec
 * total energy  :   -10.0558954 Eh     change       -0.8091610E-03 Eh
   gradient norm :     0.0272867 Eh/α   predicted    -0.9431937E-03 (  16.56%)
   displ. norm   :     0.0516166 α      lambda       -0.7470059E-03
   maximum displ.:     0.0470154 α      in ANC's #2, #4, #1, ...

........................................................................
.............................. CYCLE    6 ..............................
........................................................................
   1    -10.1545554 -0.101546E+02  0.405E-01    1.05       0.0  T
   2    -10.1545373  0.180991E-04  0.273E-01    1.06       1.0  T
   3    -10.1541765  0.360777E-03  0.271E-01    1.04       1.0  T
   4    -10.1545755 -0.399054E-03  0.401E-02    1.05       1.2  T
   5    -10.1545809 -0.536245E-05  0.720E-03    1.05       6.9  T
   6    -10.1545809 -0.163625E-07  0.151E-03    1.05      33.0  T
   7    -10.1545809 -0.105995E-08  0.100E-03    1.05      49.8  T
   8    -10.1545809 -0.430365E-08  0.529E-04    1.05      94.5  T
   9    -10.1545809 -0.647162E-09  0.789E-05    1.05     633.6  T
     SCC iter.                  ...        0 min,  0.001 sec
     gradient                   ...        0 min,  0.001 sec
 * total energy  :   -10.0565655 Eh     change       -0.6700644E-03 Eh
   gradient norm :     0.0152267 Eh/α   predicted    -0.3744971E-03 ( -44.11%)
   displ. norm   :     0.6616502 α      lambda       -0.6979270E-02
   maximum displ.:     0.5825650 α      in ANC's #2, #1, #4, ...

........................................................................
.............................. CYCLE    7 ..............................
........................................................................
   1    -10.2163755 -0.102164E+02  0.935E+00    1.01       0.0  T
   2    -10.2137496  0.262588E-02  0.611E+00    0.33       1.0  T
   3    -10.1726488  0.411008E-01  0.466E+00    0.98       1.0  T
   4    -10.2449506 -0.723018E-01  0.112E+00    0.60       1.0  T
   5    -10.2482867 -0.333613E-02  0.434E-01    0.61       1.0  T
   6    -10.2483002 -0.134935E-04  0.389E-01    0.61       1.0  T
   7    -10.2486842 -0.384010E-03  0.201E-01    0.61       1.0  T
   8    -10.2487240 -0.397414E-04  0.147E-02    0.60       3.4  T
   9    -10.2487240 -0.540544E-07  0.120E-02    0.60       4.2  T
  10    -10.2487242 -0.202590E-06  0.119E-03    0.60      41.9  T
  11    -10.2487242 -0.287071E-08  0.327E-04    0.60     152.8  T
  12    -10.2487242 -0.132331E-09  0.434E-05    0.60    1152.4  T
     SCC iter.                  ...        0 min,  0.001 sec
     gradient                   ...        0 min,  0.001 sec
 * total energy  :   -10.1266379 Eh     change       -0.7007245E-01 Eh
   gradient norm :     0.2129571 Eh/α   predicted    -0.5017315E-02 ( -92.84%)
   displ. norm   :     0.9750057 α      lambda       -0.2023186E+00
   maximum displ.:     0.8255684 α      in ANC's #2, #1, #4, ...

........................................................................
.............................. CYCLE    8 ..............................
........................................................................
   1    -10.3402163 -0.103402E+02  0.824E+00    0.90       0.0  T
   2     -9.8657398  0.474476E+00  0.113E+01    0.87       1.0  T
   3    -10.3362613 -0.470521E+00  0.556E+00    0.92       1.0  T
   4    -10.3745440 -0.382827E-01  0.336E+00    0.51       1.0  T
   5    -10.3885586 -0.140146E-01  0.254E+00    0.33       1.0  T
   6    -10.3769465  0.116121E-01  0.323E+00    0.50       1.0  T
   7    -10.1743158  0.202631E+00  0.875E+00    0.13       1.0  T
   8    -10.1447200  0.295958E-01  0.921E+00    0.16       1.0  T
   9    -10.1405710  0.414897E-02  0.928E+00    0.17       1.0  T
  10    -10.4080855 -0.267514E+00  0.136E-01    0.09       1.0  T
  11    -10.3946483  0.134372E-01  0.215E+00    0.25       1.0  T
  12    -10.3958761 -0.122776E-02  0.204E+00    0.23       1.0  T
  13    -10.4032922 -0.741615E-02  0.126E+00    0.15       1.0  T
  14    -10.4057322 -0.243994E-02  0.874E-01    0.13       1.0  T
  15    -10.4072490 -0.151687E-02  0.522E-01    0.11       1.0  T
  16    -10.4080911 -0.842099E-03  0.580E-02    0.09       1.0  T
  17    -10.4080607  0.303722E-04  0.114E-01    0.09       1.0  T
  18    -10.4080895 -0.287159E-04  0.604E-02    0.09       1.0  T
  19    -10.4080923 -0.282079E-05  0.513E-02    0.09       1.0  T
  20    -10.4081003 -0.805864E-05  0.194E-03    0.09      25.8  T
  21    -10.4080990  0.134696E-05  0.210E-02    0.09       2.4  T
  22    -10.4081003 -0.130010E-05  0.413E-03    0.09      12.1  T
  23    -10.4081003 -0.522535E-07  0.278E-04    0.09     180.1  T
  24    -10.4081003  0.457430E-09  0.470E-04    0.09     106.4  T
     SCC iter.                  ...        0 min,  0.002 sec
     gradient                   ...        0 min,  0.001 sec
 * total energy  :   -10.1292894 Eh     change       -0.2651451E-02 Eh
   gradient norm :     0.6475288 Eh/α   predicted    -0.1973250E+00 (7342.15%)
   displ. norm   :     0.5559838 α      lambda       -0.3089111E+00
   maximum displ.:     0.5257267 α      in ANC's #1, #2, #4, ...

........................................................................
.............................. CYCLE    9 ..............................
........................................................................
   1    -10.1939176 -0.101939E+02  0.682E+00    0.03       0.0  T
   2    -10.1501750  0.437426E-01  0.511E+00    1.48       1.0  T
   3    -10.2923708 -0.142196E+00  0.199E+00    0.33       1.0  T
   4    -10.2945055 -0.213475E-02  0.123E+00    0.39       1.0  T
   5    -10.2923160  0.218947E-02  0.777E-01    0.41       1.0  T
   6    -10.2871821  0.513395E-02  0.118E+00    0.40       1.0  T
   7    -10.2946977 -0.751565E-02  0.104E-01    0.39       1.0  T
   8    -10.2947067 -0.899366E-05  0.479E-02    0.39       1.0  T
   9    -10.2947081 -0.134145E-05  0.483E-03    0.39      10.3  T
  10    -10.2947081 -0.382350E-07  0.129E-03    0.39      38.9  T
  11    -10.2947081 -0.259495E-08  0.189E-04    0.39     264.9  T
  12    -10.2947081  0.866862E-12  0.173E-04    0.39     288.8  T
     SCC iter.                  ...        0 min,  0.001 sec
     gradient                   ...        0 min,  0.001 sec
 * total energy  :   -10.2043478 Eh     change       -0.7505843E-01 Eh
   gradient norm :     0.1677772 Eh/α   predicted    -0.2022005E+00 ( 169.39%)
   displ. norm   :     0.4507502 α      lambda       -0.2345858E-01
   maximum displ.:     0.4288931 α      in ANC's #2, #1, #6, ...

........................................................................
.............................. CYCLE   10 ..............................
........................................................................
   1    -10.3332783 -0.103333E+02  0.204E+00    0.62       0.0  T
   2    -10.3339691 -0.690806E-03  0.124E+00    0.48       1.0  T
   3    -10.3329330  0.103612E-02  0.816E-01    0.65       1.0  T
   4    -10.3347783 -0.184536E-02  0.148E-01    0.53       1.0  T
   5    -10.3348444 -0.660078E-04  0.444E-02    0.55       1.1  T
   6    -10.3348157  0.287043E-04  0.725E-02    0.54       1.0  T
   7    -10.3348452 -0.295035E-04  0.598E-03    0.54       8.4  T
   8    -10.3348453 -0.163403E-06  0.132E-03    0.54      37.9  T
   9    -10.3348453 -0.336341E-09  0.121E-04    0.54     413.7  T
  10    -10.3348453 -0.915001E-11  0.536E-05    0.54     933.2  T
     SCC iter.                  ...        0 min,  0.001 sec
     gradient                   ...        0 min,  0.001 sec
 * total energy  :   -10.2039571 Eh     change        0.3907232E-03 Eh
   gradient norm :     0.1197867 Eh/α   predicted    -0.1411240E-01 (*******%)
   displ. norm   :     0.2765187 α      lambda       -0.2503413E-01
   maximum displ.:     0.2636541 α      in ANC's #2, #4, #1, ...

........................................................................
.............................. CYCLE   11 ..............................
........................................................................
   1    -10.3549073 -0.103549E+02  0.150E+00    0.44       0.0  T
   2    -10.3549866 -0.793123E-04  0.838E-01    0.34       1.0  T
   3    -10.3539929  0.993649E-03  0.660E-01    0.48       1.0  T
   4    -10.3553380 -0.134508E-02  0.553E-02    0.38       1.0  T
   5    -10.3553379  0.971087E-07  0.488E-02    0.39       1.0  T
   6    -10.3553268  0.111425E-04  0.664E-02    0.39       1.0  T
   7    -10.3553438 -0.170153E-04  0.410E-03    0.38      12.2  T
   8    -10.3553438 -0.652176E-07  0.126E-03    0.39      39.7  T
   9    -10.3553438 -0.232719E-09  0.946E-05    0.39     528.5  T
  10    -10.3553438 -0.811795E-12  0.523E-05    0.39     956.6  T
     SCC iter.                  ...        0 min,  0.001 sec
     gradient                   ...        0 min,  0.001 sec
 * total energy  :   -10.2192756 Eh     change       -0.1531850E-01 Eh
   gradient norm :     0.0423895 Eh/α   predicted    -0.1347416E-01 ( -12.04%)
   displ. norm   :     0.1097870 α      lambda       -0.2617417E-02
   maximum displ.:     0.0952706 α      in ANC's #2, #4, #1, ...

........................................................................
.............................. CYCLE   12 ..............................
........................................................................
   1    -10.3573095 -0.103573E+02  0.531E-01    0.39       0.0  T
   2    -10.3573409 -0.313741E-04  0.325E-01    0.33       1.0  T
   3    -10.3573626 -0.217664E-04  0.251E-01    0.39       1.0  T
   4    -10.3574632 -0.100606E-03  0.913E-02    0.36       1.0  T
   5    -10.3574760 -0.127442E-04  0.727E-02    0.36       1.0  T
   6    -10.3574972 -0.212166E-04  0.941E-03    0.36       5.3  T
   7    -10.3574972 -0.448763E-08  0.204E-03    0.36      24.5  T
   8    -10.3574972 -0.142499E-07  0.375E-04    0.36     133.5  T
   9    -10.3574972 -0.135614E-09  0.712E-05    0.36     702.0  T
     SCC iter.                  ...        0 min,  0.001 sec
     gradient                   ...        0 min,  0.001 sec
 * total energy  :   -10.2209131 Eh     change       -0.1637503E-02 Eh
   gradient norm :     0.0429053 Eh/α   predicted    -0.1324483E-02 ( -19.12%)
   displ. norm   :     0.0695588 α      lambda       -0.1852689E-02
   maximum displ.:     0.0417383 α      in ANC's #4, #1, #2, ...

........................................................................
.............................. CYCLE   13 ..............................
........................................................................
   1    -10.3585755 -0.103586E+02  0.362E-01    0.32       0.0  T
   2    -10.3585882 -0.127000E-04  0.268E-01    0.39       1.0  T
   3    -10.3587265 -0.138377E-03  0.174E-01    0.34       1.0  T
   4    -10.3582676  0.458903E-03  0.359E-01    0.35       1.0  T
   5    -10.3587769 -0.509232E-03  0.234E-02    0.36       2.1  T
   6    -10.3587787 -0.187083E-05  0.761E-03    0.35       6.6  T
   7    -10.3587788 -0.244218E-07  0.106E-03    0.35      47.2  T
   8    -10.3587788 -0.137753E-08  0.369E-04    0.35     135.5  T
   9    -10.3587788 -0.252099E-09  0.324E-05    0.35    1544.7  T
     SCC iter.                  ...        0 min,  0.001 sec
     gradient                   ...        0 min,  0.001 sec
 * total energy  :   -10.2222833 Eh     change       -0.1370199E-02 Eh
   gradient norm :     0.0354382 Eh/α   predicted    -0.9308277E-03 ( -32.07%)
   displ. norm   :     0.1086347 α      lambda       -0.2865751E-02
   maximum displ.:     0.0772894 α      in ANC's #4, #1, #6, ...

........................................................................
.............................. CYCLE   14 ..............................
........................................................................
   1    -10.3676616 -0.103677E+02  0.463E-01    0.39       0.0  T
   2    -10.3675987  0.628244E-04  0.306E-01    0.40       1.0  T
   3    -10.3661068  0.149198E-02  0.646E-01    0.40       1.0  T
   4    -10.3676728 -0.156602E-02  0.106E-01    0.40       1.0  T
   5    -10.3677096 -0.367616E-04  0.254E-02    0.40       2.0  T
   6    -10.3677105 -0.907581E-06  0.169E-02    0.40       3.0  T
   7    -10.3677110 -0.504238E-06  0.460E-03    0.40      10.9  T
   8    -10.3677110 -0.401877E-07  0.217E-03    0.40      23.0  T
   9    -10.3677110 -0.120092E-07  0.177E-04    0.40     282.6  T
  10    -10.3677110 -0.703864E-10  0.229E-05    0.40    2180.2  T
     SCC iter.                  ...        0 min,  0.001 sec
     gradient                   ...        0 min,  0.001 sec
 * total energy  :   -10.2239640 Eh     change       -0.1680694E-02 Eh
   gradient norm :     0.0103114 Eh/α   predicted    -0.1449784E-02 ( -13.74%)
   displ. norm   :     0.0249068 α      lambda       -0.2380574E-03
   maximum displ.:     0.0154221 α      in ANC's #2, #4, #1, ...

........................................................................
.............................. CYCLE   15 ..............................
........................................................................
   1    -10.3713949 -0.103714E+02  0.276E-01    0.42       0.0  T
   2    -10.3708709  0.523980E-03  0.328E-01    0.42       1.0  T
   3    -10.3709793 -0.108445E-03  0.394E-01    0.42       1.0  T
   4    -10.3714211 -0.441827E-03  0.120E-01    0.42       1.0  T
   5    -10.3714570 -0.358284E-04  0.265E-02    0.42       1.9  T
   6    -10.3714577 -0.686861E-06  0.202E-02    0.42       2.5  T
   7    -10.3714587 -0.102423E-05  0.303E-03    0.42      16.5  T
   8    -10.3714587 -0.256511E-07  0.488E-04    0.42     102.5  T
   9    -10.3714587 -0.202165E-09  0.747E-05    0.42     669.3  T
     SCC iter.                  ...        0 min,  0.001 sec
     gradient                   ...        0 min,  0.001 sec
 * total energy  :   -10.2240993 Eh     change       -0.1353231E-03 Eh
   gradient norm :     0.0089009 Eh/α   predicted    -0.1191019E-03 ( -11.99%)
   displ. norm   :     0.0319395 α      lambda       -0.1475984E-03
   maximum displ.:     0.0261375 α      in ANC's #3, #5, #1, ...

........................................................................
.............................. CYCLE   16 ..............................
........................................................................
   1    -10.3728062 -0.103728E+02  0.783E-01    0.44       0.0  T
   2    -10.3685374  0.426878E-02  0.910E-01    0.45       1.0  T
   3    -10.3696445 -0.110708E-02  0.108E+00    0.46       1.0  T
   4    -10.3732709 -0.362638E-02  0.113E-01    0.46       1.0  T
   5    -10.3732910 -0.201517E-04  0.648E-02    0.45       1.0  T
   6    -10.3732928 -0.182534E-05  0.434E-02    0.45       1.2  T
   7    -10.3732957 -0.290536E-05  0.620E-03    0.45       8.1  T
   8    -10.3732959 -0.130934E-06  0.123E-03    0.45      40.7  T
   9    -10.3732959 -0.533008E-09  0.631E-04    0.45      79.3  T
  10    -10.3732959 -0.429512E-09  0.133E-04    0.45     377.2  T
     SCC iter.                  ...        0 min,  0.001 sec
     gradient                   ...        0 min,  0.001 sec
 * total energy  :   -10.2243551 Eh     change       -0.2557996E-03 Eh
   gradient norm :     0.0268845 Eh/α   predicted    -0.7387609E-04 ( -71.12%)
   displ. norm   :     0.0698695 α      lambda       -0.9249942E-03
   maximum displ.:     0.0604281 α      in ANC's #3, #5, #4, ...

........................................................................
.............................. CYCLE   17 ..............................
........................................................................
   1    -10.3769726 -0.103770E+02  0.152E+00    0.53       0.0  T
   2    -10.3662354  0.107372E-01  0.150E+00    0.59       1.0  T
   3    -10.3683972 -0.216177E-02  0.174E+00    0.59       1.0  T
   4    -10.3787168 -0.103196E-01  0.258E-01    0.56       1.0  T
   5    -10.3787715 -0.546838E-04  0.766E-02    0.58       1.0  T
   6    -10.3787717 -0.289888E-06  0.659E-02    0.57       1.0  T
   7    -10.3787718 -0.963360E-07  0.984E-03    0.58       5.1  T
   8    -10.3787721 -0.216153E-06  0.320E-03    0.57      15.6  T
   9    -10.3787721 -0.148449E-07  0.130E-03    0.58      38.4  T
  10    -10.3787721 -0.158447E-08  0.276E-04    0.58     181.0  T
  11    -10.3787721 -0.179485E-09  0.214E-05    0.58    2339.0  T
     SCC iter.                  ...        0 min,  0.001 sec
     gradient                   ...        0 min,  0.001 sec
 * total energy  :   -10.2257140 Eh     change       -0.1358951E-02 Eh
   gradient norm :     0.0564120 Eh/α   predicted    -0.4647558E-03 ( -65.80%)
   displ. norm   :     0.0913432 α      lambda       -0.2946299E-02
   maximum displ.:     0.0773002 α      in ANC's #3, #5, #4, ...

........................................................................
.............................. CYCLE   18 ..............................
........................................................................
   1    -10.3856208 -0.103856E+02  0.142E+00    0.75       0.0  T
   2    -10.3818988  0.372197E-02  0.104E+00    0.86       1.0  T
   3    -10.3811162  0.782614E-03  0.129E+00    0.84       1.0  T
   4    -10.3868908 -0.577462E-02  0.425E-01    0.78       1.0  T
   5    -10.3872031 -0.312238E-03  0.322E-02    0.83       1.6  T
   6    -10.3872033 -0.169199E-06  0.178E-02    0.83       2.8  T
   7    -10.3872033 -0.953484E-07  0.376E-03    0.83      13.3  T
   8    -10.3872034 -0.350041E-07  0.136E-03    0.83      36.9  T
   9    -10.3872034 -0.609303E-09  0.347E-04    0.83     143.9  T
  10    -10.3872034 -0.215033E-09  0.137E-04    0.83     366.3  T
     SCC iter.                  ...        0 min,  0.001 sec
     gradient                   ...        0 min,  0.001 sec
 * total energy  :   -10.2288036 Eh     change       -0.3089563E-02 Eh
   gradient norm :     0.0721269 Eh/α   predicted    -0.1485440E-02 ( -51.92%)
   displ. norm   :     0.9591890 α      lambda       -0.3478045E-01
   maximum displ.:     0.7675790 α      in ANC's #3, #5, #4, ...

........................................................................
.............................. CYCLE   19 ..............................
........................................................................
   1    -10.3122625 -0.103123E+02  0.727E+00    2.84       0.0  T
   2     -9.5128891  0.799373E+00  0.129E+01    1.90       1.0  T
   3    -10.3878139 -0.874925E+00  0.465E+00    2.80       1.0  T
   4    -10.4613537 -0.735398E-01  0.151E+00    2.63       1.0  T
   5    -10.4675461 -0.619238E-02  0.641E-01    2.56       1.0  T
   6    -10.4683112 -0.765116E-03  0.160E-01    2.55       1.0  T
   7    -10.4683581 -0.468988E-04  0.793E-02    2.54       1.0  T
   8    -10.4683912 -0.331276E-04  0.190E-02    2.53       2.6  T
   9    -10.4683912 -0.277470E-07  0.140E-02    2.53       3.6  T
  10    -10.4683918 -0.546590E-06  0.156E-03    2.53      32.1  T
  11    -10.4683918  0.463396E-08  0.117E-03    2.53      42.6  T
  12    -10.4683918 -0.676712E-08  0.114E-04    2.53     439.4  T
  13    -10.4683918 -0.149019E-10  0.809E-06    2.53    6178.6  T
     SCC iter.                  ...        0 min,  0.001 sec
     gradient                   ...        0 min,  0.001 sec
 * total energy  :   -10.0199106 Eh     change        0.2088930E+00 Eh
   gradient norm :     1.3031941 Eh/α   predicted    -0.3338990E-01 (-115.98%)
   displ. norm   :     0.4564518 α      lambda       -0.4568458E+00
   maximum displ.:     0.3578304 α      in ANC's #5, #3, #2, ...

........................................................................
.............................. CYCLE   20 ..............................
........................................................................
   1    -10.3548927 -0.103549E+02  0.406E+00    2.29       0.0  T
   2    -10.3180395  0.368532E-01  0.402E+00    2.11       1.0  T
   3    -10.3927227 -0.746832E-01  0.194E+00    2.35       1.0  T
   4    -10.4024375 -0.971480E-02  0.871E-01    2.30       1.0  T
   5    -10.4029402 -0.502657E-03  0.394E-01    2.29       1.0  T
   6    -10.4034971 -0.556898E-03  0.122E-01    2.29       1.0  T
   7    -10.4035398 -0.427187E-04  0.378E-02    2.29       1.3  T
   8    -10.4035405 -0.687238E-06  0.552E-03    2.29       9.1  T
   9    -10.4035406 -0.975693E-07  0.203E-03    2.29      24.7  T
  10    -10.4035406 -0.278699E-08  0.231E-04    2.29     216.8  T
  11    -10.4035406 -0.247429E-10  0.124E-04    2.29     403.0  T
     SCC iter.                  ...        0 min,  0.001 sec
     gradient                   ...        0 min,  0.001 sec
 * total energy  :   -10.2200924 Eh     change       -0.2001818E+00 Eh
   gradient norm :     0.1914927 Eh/α   predicted    -0.2760144E+00 (  37.88%)
   displ. norm   :     0.3214354 α      lambda       -0.3080457E-01
   maximum displ.:     0.2932526 α      in ANC's #3, #6, #1, ...
 * RMSD in coord.:     1.0434012 α      energy gain  -0.2222652E+00 Eh

generating ANC from model Hessian ...
Using Lindh-Hessian (1995)
 Shifting diagonal of input Hessian by    5.5944587891114048E-004
 Lowest  eigenvalues of input Hessian
   -0.000000   -0.000000   -0.000000   -0.000000    0.000000    0.000000
    0.010000    0.383323    0.775379    1.316600    1.759369    2.898420
 Highest eigenvalues
    0.010000    0.383323    0.775379    1.316600    1.759369    2.898420


........................................................................
.............................. CYCLE   21 ..............................
........................................................................
   1    -10.4175768 -0.104176E+02  0.196E+00    2.04       0.0  T
   2    -10.4037393  0.138376E-01  0.216E+00    1.83       1.0  T
   3    -10.4245310 -0.207918E-01  0.901E-01    1.98       1.0  T
   4    -10.4256872 -0.115617E-02  0.137E-01    1.94       1.0  T
   5    -10.4257219 -0.346915E-04  0.625E-02    1.93       1.0  T
   6    -10.4257236 -0.166167E-05  0.477E-02    1.93       1.0  T
   7    -10.4257271 -0.356392E-05  0.855E-03    1.93       5.8  T
   8    -10.4257274 -0.216768E-06  0.337E-03    1.93      14.8  T
   9    -10.4257274 -0.171838E-07  0.256E-04    1.93     195.0  T
  10    -10.4257274 -0.814460E-11  0.137E-04    1.93     366.2  T
     SCC iter.                  ...        0 min,  0.001 sec
     gradient                   ...        0 min,  0.001 sec
 * total energy  :   -10.2378263 Eh     change       -0.1773395E-01 Eh
   gradient norm :     0.1189679 Eh/α   predicted     0.0000000E+00 (-100.00%)
   displ. norm   :     0.2079142 α      lambda       -0.1417800E-01
   maximum displ.:     0.1628213 α      in ANC's #1, #3, #2, ...

........................................................................
.............................. CYCLE   22 ..............................
........................................................................
   1    -10.4044000 -0.104044E+02  0.829E-01    1.93       0.0  T
   2    -10.4044186 -0.186392E-04  0.560E-01    1.97       1.0  T
   3    -10.4039619  0.456713E-03  0.494E-01    1.92       1.0  T
   4    -10.4046335 -0.671591E-03  0.225E-01    1.96       1.0  T
   5    -10.4048340 -0.200515E-03  0.370E-02    1.95       1.4  T
   6    -10.4048376 -0.355753E-05  0.221E-02    1.95       2.3  T
   7    -10.4048383 -0.714578E-06  0.172E-03    1.95      29.1  T
   8    -10.4048383 -0.388184E-08  0.969E-04    1.95      51.6  T
   9    -10.4048383 -0.163347E-08  0.550E-05    1.95     909.1  T
     SCC iter.                  ...        0 min,  0.001 sec
     gradient                   ...        0 min,  0.001 sec
 * total energy  :   -10.2459870 Eh     change       -0.8160689E-02 Eh
   gradient norm :     0.0748177 Eh/α   predicted    -0.7395442E-02 (  -9.38%)
   displ. norm   :     0.6358599 α      lambda       -0.2042827E-01
   maximum displ.:     0.5833874 α      in ANC's #1, #3, #2, ...

........................................................................
.............................. CYCLE   23 ..............................
........................................................................
   1    -10.3510324 -0.103510E+02  0.267E+00    2.03       0.0  T
   2    -10.3500302  0.100223E-02  0.185E+00    2.10       1.0  T
   3    -10.3379684  0.120618E-01  0.170E+00    1.94       1.0  T
   4    -10.3523637 -0.143952E-01  0.397E-01    2.05       1.0  T
   5    -10.3529490 -0.585376E-03  0.126E-01    2.05       1.0  T
   6    -10.3529822 -0.331349E-04  0.901E-02    2.05       1.0  T
   7    -10.3530010 -0.188572E-04  0.156E-02    2.05       3.2  T
   8    -10.3530018 -0.749865E-06  0.292E-03    2.05      17.1  T
   9    -10.3530018 -0.830374E-09  0.218E-04    2.05     229.1  T
  10    -10.3530018 -0.830074E-10  0.102E-04    2.05     490.0  T
     SCC iter.                  ...        0 min,  0.001 sec
     gradient                   ...        0 min,  0.001 sec
 * total energy  :   -10.2319253 Eh     change        0.1406173E-01 Eh
   gradient norm :     0.1649897 Eh/α   predicted    -0.1434387E-01 (-202.01%)
   displ. norm   :     0.3981658 α      lambda       -0.4341916E-01
   maximum displ.:     0.3902783 α      in ANC's #1, #3, #4, ...

........................................................................
.............................. CYCLE   24 ..............................
........................................................................
   1    -10.4065117 -0.104065E+02  0.180E+00    2.44       0.0  T
   2    -10.4049560  0.155568E-02  0.140E+00    2.46       1.0  T
   3    -10.4090525 -0.409649E-02  0.920E-01    2.43       1.0  T
   4    -10.4085144  0.538037E-03  0.593E-01    2.47       1.0  T
   5    -10.4104886 -0.197413E-02  0.610E-02    2.44       1.0  T
   6    -10.4105007 -0.121461E-04  0.306E-02    2.44       1.6  T
   7    -10.4105009 -0.213216E-06  0.655E-03    2.44       7.6  T
   8    -10.4105011 -0.192407E-06  0.115E-03    2.44      43.6  T
   9    -10.4105011 -0.574412E-09  0.109E-04    2.44     456.8  T
  10    -10.4105011 -0.350546E-10  0.389E-05    2.44    1284.9  T
     SCC iter.                  ...        0 min,  0.001 sec
     gradient                   ...        0 min,  0.001 sec
 * total energy  :   -10.2554378 Eh     change       -0.2351248E-01 Eh
   gradient norm :     0.0973084 Eh/α   predicted    -0.2515132E-01 (   6.97%)
   displ. norm   :     0.1506725 α      lambda       -0.8015428E-02
   maximum displ.:     0.0990015 α      in ANC's #1, #2, #4, ...

........................................................................
.............................. CYCLE   25 ..............................
........................................................................
   1    -10.4215558 -0.104216E+02  0.809E-01    2.78       0.0  T
   2    -10.4199349  0.162096E-02  0.738E-01    2.80       1.0  T
   3    -10.4216097 -0.167484E-02  0.513E-01    2.78       1.0  T
   4    -10.4222355 -0.625806E-03  0.152E-01    2.80       1.0  T
   5    -10.4223417 -0.106199E-03  0.264E-02    2.80       1.9  T
   6    -10.4223422 -0.547164E-06  0.143E-02    2.80       3.5  T
   7    -10.4223426 -0.320983E-06  0.169E-03    2.80      29.6  T
   8    -10.4223426 -0.906467E-08  0.717E-04    2.80      69.7  T
   9    -10.4223426 -0.266345E-09  0.512E-05    2.80     977.4  T
     SCC iter.                  ...        0 min,  0.001 sec
     gradient                   ...        0 min,  0.001 sec
 * total energy  :   -10.2624057 Eh     change       -0.6967908E-02 Eh
   gradient norm :     0.0737237 Eh/α   predicted    -0.4098698E-02 ( -41.18%)
   displ. norm   :     0.5059199 α      lambda       -0.2357404E-01
   maximum displ.:     0.3056969 α      in ANC's #2, #4, #5, ...

........................................................................
.............................. CYCLE   26 ..............................
........................................................................
   1    -10.4412187 -0.104412E+02  0.256E+00    2.67       0.0  T
   2    -10.4285536  0.126650E-01  0.210E+00    2.69       1.0  T
   3    -10.4258379  0.271573E-02  0.204E+00    2.60       1.0  T
   4    -10.4443384 -0.185005E-01  0.514E-01    2.71       1.0  T
   5    -10.4451465 -0.808077E-03  0.121E-01    2.66       1.0  T
   6    -10.4452044 -0.578604E-04  0.544E-02    2.67       1.0  T
   7    -10.4452055 -0.115232E-05  0.287E-02    2.67       1.7  T
   8    -10.4452096 -0.410985E-05  0.246E-03    2.67      20.3  T
   9    -10.4452097 -0.138490E-07  0.260E-04    2.67     192.5  T
  10    -10.4452097 -0.280163E-09  0.550E-05    2.67     909.0  T
     SCC iter.                  ...        0 min,  0.001 sec
     gradient                   ...        0 min,  0.001 sec
 * total energy  :   -10.2799697 Eh     change       -0.1756397E-01 Eh
   gradient norm :     0.0888182 Eh/α   predicted    -0.1480396E-01 ( -15.71%)
   displ. norm   :     0.4286845 α      lambda       -0.1668153E-01
   maximum displ.:     0.2855840 α      in ANC's #2, #5, #4, ...

........................................................................
.............................. CYCLE   27 ..............................
........................................................................
   1    -10.4520925 -0.104521E+02  0.194E+00    2.76       0.0  T
   2    -10.4525024 -0.409924E-03  0.113E+00    2.63       1.0  T
   3    -10.4485126  0.398979E-02  0.110E+00    2.79       1.0  T
   4    -10.4481559  0.356709E-03  0.967E-01    2.68       1.0  T
   5    -10.4539029 -0.574698E-02  0.516E-02    2.70       1.0  T
   6    -10.4539119 -0.900732E-05  0.220E-02    2.70       2.3  T
   7    -10.4539117  0.161121E-06  0.116E-02    2.70       4.3  T
   8    -10.4539122 -0.454556E-06  0.713E-04    2.70      70.1  T
   9    -10.4539122  0.357462E-09  0.317E-04    2.70     157.5  T
     SCC iter.                  ...        0 min,  0.001 sec
     gradient                   ...        0 min,  0.001 sec
 * total energy  :   -10.2903282 Eh     change       -0.1035854E-01 Eh
   gradient norm :     0.1002137 Eh/α   predicted    -0.9873567E-02 (  -4.68%)
   displ. norm   :     0.1891776 α      lambda       -0.1160488E-01
   maximum displ.:     0.1273864 α      in ANC's #1, #5, #2, ...

........................................................................
.............................. CYCLE   28 ..............................
........................................................................
   1    -10.4854168 -0.104854E+02  0.114E+00    2.96       0.0  T
   2    -10.4726093  0.128076E-01  0.159E+00    2.71       1.0  T
   3    -10.4877992 -0.151899E-01  0.591E-01    2.89       1.0  T
   4    -10.4887476 -0.948392E-03  0.236E-01    2.87       1.0  T
   5    -10.4888668 -0.119214E-03  0.355E-02    2.85       1.4  T
   6    -10.4888681 -0.125686E-05  0.234E-02    2.85       2.1  T
   7    -10.4888693 -0.121105E-05  0.615E-03    2.85       8.1  T
   8    -10.4888694 -0.116615E-06  0.751E-04    2.85      66.6  T
   9    -10.4888694 -0.312264E-09  0.113E-04    2.85     443.8  T
     SCC iter.                  ...        0 min,  0.001 sec
     gradient                   ...        0 min,  0.001 sec
 * total energy  :   -10.2980492 Eh     change       -0.7720958E-02 Eh
   gradient norm :     0.0595092 Eh/α   predicted    -0.6010108E-02 ( -22.16%)
   displ. norm   :     0.1795490 α      lambda       -0.5240913E-02
   maximum displ.:     0.1148721 α      in ANC's #5, #2, #1, ...

........................................................................
.............................. CYCLE   29 ..............................
........................................................................
   1    -10.4927490 -0.104927E+02  0.810E-01    2.87       0.0  T
   2    -10.4888213  0.392773E-02  0.895E-01    2.73       1.0  T
   3    -10.4925999 -0.377861E-02  0.563E-01    2.87       1.0  T
   4    -10.4937382 -0.113832E-02  0.890E-02    2.81       1.0  T
   5    -10.4937624 -0.241962E-04  0.255E-02    2.82       2.0  T
   6    -10.4937633 -0.954991E-06  0.829E-03    2.81       6.0  T
   7    -10.4937635 -0.174964E-06  0.176E-03    2.81      28.4  T
   8    -10.4937635 -0.381426E-08  0.856E-04    2.81      58.4  T
   9    -10.4937635 -0.439179E-09  0.479E-05    2.81    1044.4  T
     SCC iter.                  ...        0 min,  0.001 sec
     gradient                   ...        0 min,  0.001 sec
 * total energy  :   -10.3007054 Eh     change       -0.2656245E-02 Eh
   gradient norm :     0.0376837 Eh/α   predicted    -0.2704934E-02 (   1.83%)
   displ. norm   :     0.1019628 α      lambda       -0.2129416E-02
   maximum displ.:     0.0757771 α      in ANC's #2, #1, #5, ...

........................................................................
.............................. CYCLE   30 ..............................
........................................................................
   1    -10.4986777 -0.104987E+02  0.427E-01    2.83       0.0  T
   2    -10.4981349  0.542821E-03  0.396E-01    2.88       1.0  T
   3    -10.4984024 -0.267490E-03  0.320E-01    2.81       1.0  T
   4    -10.4988168 -0.414350E-03  0.654E-02    2.85       1.0  T
   5    -10.4988355 -0.187204E-04  0.103E-02    2.84       4.9  T
   6    -10.4988355  0.133656E-07  0.604E-03    2.84       8.3  T
   7    -10.4988355 -0.477656E-07  0.899E-04    2.84      55.6  T
   8    -10.4988355 -0.193444E-08  0.320E-04    2.84     156.3  T
     SCC iter.                  ...        0 min,  0.001 sec
     gradient                   ...        0 min,  0.001 sec
 * total energy  :   -10.3023278 Eh     change       -0.1622405E-02 Eh
   gradient norm :     0.0243160 Eh/α   predicted    -0.1075777E-02 ( -33.69%)
   displ. norm   :     0.1734967 α      lambda       -0.2821550E-02
   maximum displ.:     0.1471951 α      in ANC's #2, #1, #4, ...

........................................................................
.............................. CYCLE   31 ..............................
........................................................................
   1    -10.5012339 -0.105012E+02  0.700E-01    2.80       0.0  T
   2    -10.4994345  0.179938E-02  0.710E-01    2.90       1.0  T
   3    -10.5008828 -0.144829E-02  0.477E-01    2.79       1.0  T
   4    -10.5016964 -0.813567E-03  0.761E-02    2.84       1.0  T
   5    -10.5017201 -0.237083E-04  0.162E-02    2.83       3.1  T
   6    -10.5017201 -0.470338E-07  0.388E-03    2.83      12.9  T
   7    -10.5017202 -0.391149E-07  0.102E-03    2.83      49.0  T
   8    -10.5017202 -0.219385E-08  0.464E-04    2.83     107.7  T
   9    -10.5017202 -0.557350E-10  0.226E-05    2.83    2213.9  T
     SCC iter.                  ...        0 min,  0.001 sec
     gradient                   ...        0 min,  0.001 sec
 * total energy  :   -10.3044029 Eh     change       -0.2075125E-02 Eh
   gradient norm :     0.0382891 Eh/α   predicted    -0.1453242E-02 ( -29.97%)
   displ. norm   :     0.2235153 α      lambda       -0.3079315E-02
   maximum displ.:     0.1961472 α      in ANC's #2, #4, #5, ...

........................................................................
.............................. CYCLE   32 ..............................
........................................................................
   1    -10.4973110 -0.104973E+02  0.894E-01    2.76       0.0  T
   2    -10.4944127  0.289827E-02  0.908E-01    2.89       1.0  T
   3    -10.4966655 -0.225285E-02  0.608E-01    2.75       1.0  T
   4    -10.4980263 -0.136080E-02  0.596E-02    2.80       1.0  T
   5    -10.4980367 -0.103493E-04  0.211E-02    2.80       2.4  T
   6    -10.4980371 -0.447468E-06  0.545E-03    2.80       9.2  T
   7    -10.4980372 -0.780605E-07  0.197E-03    2.80      25.3  T
   8    -10.4980372 -0.179079E-07  0.557E-04    2.80      89.7  T
   9    -10.4980372 -0.714611E-10  0.306E-05    2.80    1635.6  T
     SCC iter.                  ...        0 min,  0.001 sec
     gradient                   ...        0 min,  0.001 sec
 * total energy  :   -10.3065244 Eh     change       -0.2121494E-02 Eh
   gradient norm :     0.0662279 Eh/α   predicted    -0.1616578E-02 ( -23.80%)
   displ. norm   :     0.1737247 α      lambda       -0.3203897E-02
   maximum displ.:     0.1186970 α      in ANC's #4, #2, #3, ...

........................................................................
.............................. CYCLE   33 ..............................
........................................................................
   1    -10.5022110 -0.105022E+02  0.739E-01    2.73       0.0  T
   2    -10.5022293 -0.183262E-04  0.466E-01    2.74       1.0  T
   3    -10.5021775  0.517799E-04  0.121E-01    2.73       1.0  T
   4    -10.5022194 -0.418898E-04  0.596E-02    2.72       1.0  T
   5    -10.5022416 -0.221948E-04  0.190E-02    2.73       2.6  T
   6    -10.5022422 -0.545237E-06  0.253E-03    2.73      19.7  T
   7    -10.5022422 -0.214159E-07  0.825E-04    2.73      60.6  T
   8    -10.5022422 -0.151690E-08  0.408E-04    2.73     122.7  T
     SCC iter.                  ...        0 min,  0.001 sec
     gradient                   ...        0 min,  0.001 sec
 * total energy  :   -10.3084455 Eh     change       -0.1921045E-02 Eh
   gradient norm :     0.0720204 Eh/α   predicted    -0.1650293E-02 ( -14.09%)
   displ. norm   :     0.2821861 α      lambda       -0.4734589E-02
   maximum displ.:     0.2379756 α      in ANC's #2, #5, #1, ...

........................................................................
.............................. CYCLE   34 ..............................
........................................................................
   1    -10.4789054 -0.104789E+02  0.112E+00    2.81       0.0  T
   2    -10.4790919 -0.186498E-03  0.674E-01    2.78       1.0  T
   3    -10.4783650  0.726985E-03  0.502E-01    2.79       1.0  T
   4    -10.4780998  0.265181E-03  0.404E-01    2.86       1.0  T
   5    -10.4792611 -0.116131E-02  0.337E-02    2.80       1.5  T
   6    -10.4792650 -0.389201E-05  0.153E-02    2.81       3.3  T
   7    -10.4792652 -0.171155E-06  0.194E-03    2.81      25.8  T
   8    -10.4792652 -0.938303E-08  0.735E-04    2.81      68.0  T
   9    -10.4792652 -0.281691E-09  0.526E-05    2.81     950.8  T
     SCC iter.                  ...        0 min,  0.001 sec
     gradient                   ...        0 min,  0.001 sec
 * total energy  :   -10.3090732 Eh     change       -0.6277453E-03 Eh
   gradient norm :     0.0624158 Eh/α   predicted    -0.2555800E-02 ( 307.14%)
   displ. norm   :     0.1618844 α      lambda       -0.4682790E-02
   maximum displ.:     0.1502351 α      in ANC's #2, #5, #1, ...

........................................................................
.............................. CYCLE   35 ..............................
........................................................................
   1    -10.5016207 -0.105016E+02  0.103E+00    2.91       0.0  T
   2    -10.4842406  0.173801E-01  0.182E+00    2.46       1.0  T
   3    -10.5069623 -0.227217E-01  0.316E-01    2.75       1.0  T
   4    -10.5069757 -0.133887E-04  0.124E-01    2.72       1.0  T
   5    -10.5069988 -0.230823E-04  0.375E-02    2.73       1.3  T
   6    -10.5070042 -0.547131E-05  0.146E-02    2.72       3.4  T
   7    -10.5070046 -0.410865E-06  0.470E-03    2.72      10.6  T
   8    -10.5070047 -0.748555E-07  0.780E-04    2.72      64.1  T
   9    -10.5070047 -0.466320E-09  0.153E-04    2.72     326.6  T
     SCC iter.                  ...        0 min,  0.001 sec
     gradient                   ...        0 min,  0.001 sec
 * total energy  :   -10.3101819 Eh     change       -0.1108734E-02 Eh
   gradient norm :     0.0447826 Eh/α   predicted    -0.2402753E-02 ( 116.71%)
   displ. norm   :     0.0846736 α      lambda       -0.1653878E-02
   maximum displ.:     0.0584551 α      in ANC's #2, #1, #3, ...

........................................................................
.............................. CYCLE   36 ..............................
........................................................................
   1    -10.5027304 -0.105027E+02  0.547E-01    2.66       0.0  T
   2    -10.4978174  0.491303E-02  0.990E-01    2.89       1.0  T
   3    -10.5042166 -0.639917E-02  0.211E-01    2.74       1.0  T
   4    -10.5042421 -0.255070E-04  0.110E-01    2.74       1.0  T
   5    -10.5042531 -0.110425E-04  0.106E-02    2.74       4.7  T
   6    -10.5042531 -0.246650E-07  0.777E-03    2.74       6.4  T
   7    -10.5042533 -0.147094E-06  0.331E-03    2.74      15.1  T
   8    -10.5042533 -0.249344E-07  0.276E-04    2.74     181.1  T
   9    -10.5042533 -0.187139E-10  0.307E-05    2.74    1626.9  T
     SCC iter.                  ...        0 min,  0.001 sec
     gradient                   ...        0 min,  0.001 sec
 * total energy  :   -10.3111318 Eh     change       -0.9498971E-03 Eh
   gradient norm :     0.0146887 Eh/α   predicted    -0.8328695E-03 ( -12.32%)
   displ. norm   :     0.0810182 α      lambda       -0.4782190E-03
   maximum displ.:     0.0606158 α      in ANC's #2, #5, #4, ...

........................................................................
.............................. CYCLE   37 ..............................
........................................................................
   1    -10.5025153 -0.105025E+02  0.326E-01    2.75       0.0  T
   2    -10.5023850  0.130283E-03  0.249E-01    2.78       1.0  T
   3    -10.5021038  0.281218E-03  0.287E-01    2.72       1.0  T
   4    -10.5025517 -0.447922E-03  0.191E-02    2.76       2.6  T
   5    -10.5025533 -0.156065E-05  0.653E-03    2.76       7.7  T
   6    -10.5025533 -0.413345E-07  0.131E-03    2.76      38.2  T
   7    -10.5025533 -0.357040E-08  0.369E-04    2.76     135.5  T
   8    -10.5025533 -0.191784E-09  0.213E-04    2.76     234.8  T
     SCC iter.                  ...        0 min,  0.001 sec
     gradient                   ...        0 min,  0.001 sec
 * total energy  :   -10.3115002 Eh     change       -0.3683491E-03 Eh
   gradient norm :     0.0195784 Eh/α   predicted    -0.2406791E-03 ( -34.66%)
   displ. norm   :     0.1392893 α      lambda       -0.7153624E-03
   maximum displ.:     0.0908633 α      in ANC's #2, #5, #4, ...

........................................................................
.............................. CYCLE   38 ..............................
........................................................................
   1    -10.5025613 -0.105026E+02  0.554E-01    2.77       0.0  T
   2    -10.5025530  0.826628E-05  0.343E-01    2.78       1.0  T
   3    -10.5018706  0.682469E-03  0.331E-01    2.74       1.0  T
   4    -10.5025630 -0.692429E-03  0.466E-02    2.78       1.1  T
   5    -10.5025771 -0.141308E-04  0.102E-02    2.77       4.9  T
   6    -10.5025772 -0.327459E-07  0.197E-03    2.77      25.4  T
   7    -10.5025772 -0.140822E-07  0.550E-04    2.77      90.9  T
   8    -10.5025772 -0.369543E-09  0.308E-04    2.77     162.4  T
     SCC iter.                  ...        0 min,  0.001 sec
     gradient                   ...        0 min,  0.001 sec
 * total energy  :   -10.3119486 Eh     change       -0.4484161E-03 Eh
   gradient norm :     0.0229667 Eh/α   predicted    -0.3646220E-03 ( -18.69%)
   displ. norm   :     0.0572929 α      lambda       -0.4007386E-03
   maximum displ.:     0.0370454 α      in ANC's #5, #4, #3, ...

........................................................................
.............................. CYCLE   39 ..............................
........................................................................
   1    -10.5072202 -0.105072E+02  0.268E-01    2.79       0.0  T
   2    -10.5067581  0.462013E-03  0.324E-01    2.72       1.0  T
   3    -10.5073058 -0.547660E-03  0.147E-01    2.78       1.0  T
   4    -10.5073554 -0.495946E-04  0.372E-02    2.77       1.3  T
   5    -10.5073597 -0.427635E-05  0.620E-03    2.76       8.1  T
   6    -10.5073597 -0.707363E-09  0.373E-03    2.76      13.4  T
   7    -10.5073597 -0.445572E-07  0.428E-04    2.76     116.9  T
   8    -10.5073597 -0.188338E-09  0.158E-04    2.76     316.0  T
     SCC iter.                  ...        0 min,  0.001 sec
     gradient                   ...        0 min,  0.001 sec
 * total energy  :   -10.3122301 Eh     change       -0.2815334E-03 Eh
   gradient norm :     0.0105408 Eh/α   predicted    -0.2010271E-03 ( -28.60%)
   displ. norm   :     0.0781909 α      lambda       -0.1968390E-03
   maximum displ.:     0.0465064 α      in ANC's #4, #2, #5, ...

........................................................................
.............................. CYCLE   40 ..............................
........................................................................
   1    -10.5082581 -0.105083E+02  0.318E-01    2.75       0.0  T
   2    -10.5082466  0.115037E-04  0.204E-01    2.74       1.0  T
   3    -10.5078043  0.442355E-03  0.266E-01    2.78       1.0  T
   4    -10.5082641 -0.459805E-03  0.176E-02    2.74       2.8  T
   5    -10.5082657 -0.159102E-05  0.636E-03    2.75       7.9  T
   6    -10.5082657 -0.241611E-07  0.104E-03    2.75      48.1  T
   7    -10.5082657 -0.224087E-08  0.369E-04    2.75     135.5  T
   8    -10.5082657 -0.365329E-09  0.171E-04    2.75     293.2  T
     SCC iter.                  ...        0 min,  0.001 sec
     gradient                   ...        0 min,  0.001 sec
 * total energy  :   -10.3123433 Eh     change       -0.1131720E-03 Eh
   gradient norm :     0.0053816 Eh/α   predicted    -0.9901885E-04 ( -12.51%)
   displ. norm   :     0.0234279 α      lambda       -0.3757505E-04
   maximum displ.:     0.0185094 α      in ANC's #5, #4, #2, ...

........................................................................
.............................. CYCLE   41 ..............................
........................................................................
   1    -10.5095791 -0.105096E+02  0.109E-01    2.76       0.0  T
   2    -10.5094807  0.984412E-04  0.148E-01    2.72       1.0  T
   3    -10.5096073 -0.126686E-03  0.522E-02    2.75       1.0  T
   4    -10.5096109 -0.359320E-05  0.210E-02    2.75       2.4  T
   5    -10.5096119 -0.101294E-05  0.220E-03    2.75      22.7  T
   6    -10.5096119  0.133217E-08  0.154E-03    2.75      32.4  T
   7    -10.5096120 -0.645174E-08  0.211E-04    2.75     237.2  T
   8    -10.5096120 -0.422755E-10  0.588E-05    2.75     850.2  T
     SCC iter.                  ...        0 min,  0.001 sec
     gradient                   ...        0 min,  0.001 sec
 * total energy  :   -10.3123603 Eh     change       -0.1694240E-04 Eh
   gradient norm :     0.0027566 Eh/α   predicted    -0.1879875E-04 (  10.96%)
   displ. norm   :     0.0110683 α      lambda       -0.4030336E-05
   maximum displ.:     0.0062119 α      in ANC's #4, #2, #5, ...

........................................................................
.............................. CYCLE   42 ..............................
........................................................................
   1    -10.5093365 -0.105093E+02  0.477E-02    2.74       0.0  T
   2    -10.5093288  0.770209E-05  0.476E-02    2.75       1.1  T
   3    -10.5093359 -0.710567E-05  0.313E-02    2.74       1.6  T
   4    -10.5093390 -0.316793E-05  0.790E-03    2.74       6.3  T
   5    -10.5093392 -0.213794E-06  0.868E-04    2.75      57.6  T
   6    -10.5093392  0.356200E-09  0.556E-04    2.74      90.0  T
     SCC iter.                  ...        0 min,  0.000 sec
     gradient                   ...        0 min,  0.001 sec
 * total energy  :   -10.3123622 Eh     change       -0.1955956E-05 Eh
   gradient norm :     0.0006384 Eh/α   predicted    -0.2014218E-05 (   2.98%)
   displ. norm   :     0.0024706 α      lambda       -0.3783003E-06
   maximum displ.:     0.0020281 α      in ANC's #2, #5, #4, ...

   *** GEOMETRY OPTIMIZATION CONVERGED AFTER 42 ITERATIONS ***

------------------------------------------------------------------------
 total energy gain   :        -0.3145350 Eh     -197.3737 kcal/mol
 total RMSD          :         2.0532868 a0        1.0866 Å
 total power (kW/mol):       -19.6621812 (step)-6373.5720 (real)
------------------------------------------------------------------------

 ANCopt (total)                0 d,  0 h,  0 min,  0.130 sec
 optimizer setup                ...        0 min,  0.000 sec (  0.058%)
 model hessian                  ...        0 min,  0.000 sec (  0.082%)
 ANC generation                 ...        0 min,  0.000 sec (  0.089%)
 coordinate transformation      ...        0 min,  0.000 sec (  0.086%)
 single point calculation       ...        0 min,  0.126 sec ( 96.974%)
 optimization log               ...        0 min,  0.001 sec (  0.868%)
 hessian update                 ...        0 min,  0.000 sec (  0.074%)
 rational function              ...        0 min,  0.001 sec (  0.742%)

================
 final structure:
================
4
 xtb: 6.2.2 (9d81278992624c895f80dd42a50cac0aa55982e2)
C        -1.79509059730975    0.55748666156949   -0.07429840896786
C         0.64690082902348   -0.20031244691178    0.02663528388455
C        -0.59152390326424    0.18410244093961   -0.02443221420801
O         1.73971367155052   -0.54127665559732    0.07209533929132

 Bond Distances (Angstroems)
 ---------------------------
C1-C3=1.2611         C2-C3=1.2977         C2-O4=1.1457         C3-C1=1.2611         C3-C2=1.2977         O4-C2=1.1457         
 C  C  Rav=1.2794 sigma=0.0183  Rmin=1.2611  Rmax=1.2977     2
 O  C  Rav=1.1457 sigma=0.0000  Rmin=1.1457  Rmax=1.1457     1

 selected bond angles (degree)
 --------------------
O4-C2-C3=179.91                C2-C3-C1=179.99                

 selected dihedral angles (degree)
 ---------------------------------
C1-C3-C2-O4=297.44            
           -------------------------------------------------
          |                Final Singlepoint                |
           -------------------------------------------------

          ...................................................
          :                      SETUP                      :
          :.................................................:
          :  # basis functions                  16          :
          :  # atomic orbitals                  16          :
          :  # shells                            8          :
          :  # electrons                        18          :
          :  max. iterations                   250          :
          :  Hamiltonian                  GFN2-xTB          :
          :  restarted?                      false          :
          :  GBSA solvation                  false          :
          :  PC potential                    false          :
          :  electronic temp.          300.0000000     K    :
          :  accuracy                    1.0000000          :
          :  -> integral cutoff          0.2500000E+02      :
          :  -> integral neglect         0.1000000E-07      :
          :  -> SCF convergence          0.1000000E-05 Eh   :
          :  -> wf. convergence          0.1000000E-03 e    :
          :  Broyden damping             0.4000000          :
          ...................................................

 iter      E             dE          RMSdq      gap      omega  full diag
   1    -10.5093392 -0.105093E+02  0.114E-04    2.75       0.0  T
   2    -10.5093392  0.115463E-12  0.807E-05    2.75     619.5  T
   3    -10.5093392  0.349178E-10  0.728E-05    2.75     687.2  T

   *** convergence criteria satisfied after 3 iterations ***

         #    Occupation            Energy/Eh            Energy/eV
      -------------------------------------------------------------
         1        2.0000           -0.8087015             -22.0059
       ...           ...                  ...                  ...
         3        2.0000           -0.6493804             -17.6705
         4        2.0000           -0.6346030             -17.2684
         5        2.0000           -0.6346030             -17.2684
         6        2.0000           -0.6043236             -16.4445
         7        2.0000           -0.4672258             -12.7139
         8        2.0000           -0.4672258             -12.7139
         9        2.0000           -0.4338290             -11.8051 (HOMO)
        10                         -0.3329506              -9.0600 (LUMO)
        11                         -0.3329505              -9.0600
        12                         -0.1354519              -3.6858
        13                         -0.1354516              -3.6858
        14                          0.1549418               4.2162
       ...                                ...                  ...
        16                          1.3844664              37.6732
      -------------------------------------------------------------
                  HL-Gap            0.1008784 Eh            2.7450 eV
             Fermi-level           -0.3833898 Eh          -10.4326 eV

 SCC (total)                   0 d,  0 h,  0 min,  0.003 sec
 SCC setup                      ...        0 min,  0.000 sec (  1.960%)
 Dispersion                     ...        0 min,  0.000 sec (  0.330%)
 integral evaluation            ...        0 min,  0.001 sec ( 40.052%)
 zeroth order Hamiltonian       ...        0 min,  0.000 sec (  0.503%)
 iterations                     ...        0 min,  0.001 sec ( 18.491%)
 molecular gradient             ...        0 min,  0.001 sec ( 35.369%)
 printout                       ...        0 min,  0.000 sec (  2.871%)

         :::::::::::::::::::::::::::::::::::::::::::::::::::::
         ::                     SUMMARY                     ::
         :::::::::::::::::::::::::::::::::::::::::::::::::::::
         :: total energy             -10.312362209839 Eh    ::
         :: gradient norm              0.000664916849 Eh/a0 ::
         :: HOMO-LUMO gap              2.745040407636 eV    ::
         ::.................................................::
         :: SCC energy               -10.509339239539 Eh    ::
         :: -> isotropic ES            0.005069154096 Eh    ::
         :: -> anisotropic ES          0.000804295299 Eh    ::
         :: -> anisotropic XC          0.010299806060 Eh    ::
         :: -> dispersion             -0.001626870729 Eh    ::
         :: repulsion energy           0.196977112669 Eh    ::
         :: add. restraining           0.000000000000 Eh    ::
         :::::::::::::::::::::::::::::::::::::::::::::::::::::

           ------------------------------------------------- 
          |                Numerical Hessian                |
           ------------------------------------------------- 
step length          :   0.00500
SCC accuracy         :   0.30000
Hessian scale factor :   1.00000
frozen atoms in %    :   0.00000    0
RMS gradient         :   0.00066
estimated CPU  time      0.00 min
estimated wall time      0.00 min

writing file <hessian>.

 vibrational frequencies (cm-1)
eigval :        0.00     0.00     0.00     0.00     0.00   181.21
eigval :      181.35   552.25   552.45   994.37  1973.46  2318.18
           -------------------------------------------------
          |                Property Printout                |
           -------------------------------------------------

    * Orbital Energies and Occupations

         #    Occupation            Energy/Eh            Energy/eV
      -------------------------------------------------------------
         1        2.0000           -0.8087009             -22.0059
         2        2.0000           -0.6968648             -18.9627
         3        2.0000           -0.6493806             -17.6705
         4        2.0000           -0.6346024             -17.2684
         5        2.0000           -0.6346023             -17.2684
         6        2.0000           -0.6043234             -16.4445
         7        2.0000           -0.4672260             -12.7139
         8        2.0000           -0.4672260             -12.7139
         9        2.0000           -0.4338299             -11.8051 (HOMO)
        10                         -0.3329508              -9.0601 (LUMO)
        11                         -0.3329507              -9.0601
        12                         -0.1354520              -3.6858
        13                         -0.1354517              -3.6858
        14                          0.1549420               4.2162
        15                          0.7700486              20.9541
        16                          1.3844667              37.6733
      -------------------------------------------------------------
                  HL-Gap            0.1008791 Eh            2.7451 eV
             Fermi-level           -0.3833904 Eh          -10.4326 eV

     #   Z        covCN         q      C6AA      α(0)
     1   6 C      0.982    -0.121    39.832    10.601
     2   6 C      1.838     0.296    24.453     7.989
     3   6 C      1.962    -0.034    31.984     9.133
     4   8 O      0.856    -0.141    17.127     5.549

 Mol. C6AA /au·bohr⁶  :        440.470911
 Mol. C8AA /au·bohr⁸  :      11935.154817
 Mol. α(0) /au        :         33.271494


Wiberg/Mayer (AO) data.
largest (>0.10) Wiberg bond orders for each atom
          total WBO             WBO to atom ...
     1  C   2.718        C    3 2.238    O    4 0.258    C    2 0.222
     2  C   3.886        O    4 2.102    C    3 1.563    C    1 0.222
     3  C   3.953        C    1 2.238    C    2 1.563    O    4 0.153
     4  O   2.512        C    2 2.102    C    1 0.258    C    3 0.153

MOs/occ written to file <molden.input>


molecular dipole:
                 x           y           z       tot (Debye)
 q only:        0.350      -0.108       0.014
   full:        0.837      -0.259       0.034       2.229
molecular quadrupole (traceless):
                xx          xy          yy          xz          yz          zz
 q only:       -2.393       1.175       1.017      -0.157       0.049       1.376
  q+dip:       -3.326       1.632       1.414      -0.217       0.068       1.912
   full:       -6.397       3.137       2.720      -0.418       0.130       3.677

           -------------------------------------------------
          |                Geometry Summary                 |
           -------------------------------------------------

      molecular mass/u    :       52.0316126
   center of mass at/Å    :        0.1333638      -0.0414942       0.0055263
  moments of inertia/u·Å² :        0.1377981E-04   0.1048134E+03   0.1048134E+03
rotational constants/cm⁻¹ :        0.1223357E+07   0.1608347E+00   0.1608347E+00

 * 3 selected distances

     #   Z        #   Z                                     value/Å
     1   6 C      3   6 C                                 1.2611404
     2   6 C      3   6 C                                 1.2977205 (max)
     2   6 C      4   8 O                                 1.1456715 (min)

 * 2 distinct bonds (by element types)

   Z      Z             #   av. dist./Å        max./Å        min./Å
   6 C    6 C           2     1.2794305     1.2977205     1.2611404
   6 C    8 O           1     1.1456715     1.1456715     1.1456715

           -------------------------------------------------
          |               Frequency Printout                |
           -------------------------------------------------
 vibrational frequencies (cm-1)
eigval :        0.00     0.00     0.00     0.00     0.00   181.21
eigval :      181.35   552.25   552.45   994.37  1973.46  2318.18
 reduced masses (amu)
   1: 12.92   2: 13.10   3: 13.23   4: 13.89   5: 14.07   6: 12.70   7: 12.70   8: 12.34
   9: 12.34  10: 13.54  11: 12.50  12: 12.76
 IR intensities (amu)
   1:  0.05   2:  0.03   3:  0.12   4:  0.13   5:  0.13   6:  0.45   7:  0.45   8:  0.59
   9:  0.59  10:  0.15  11:  0.04  12:  3.84
 Raman intensities (amu)
   1:  0.00   2:  0.00   3:  0.00   4:  0.00   5:  0.00   6:  0.00   7:  0.00   8:  0.00
   9:  0.00  10:  0.00  11:  0.00  12:  0.00
 output can be read by thermo (or use thermo option).
 writing <g98.out> molden fake output.
Molecule has the following symmetry elements: (Cinf) (sigma) 
It seems to be the Cinfv point group
 recommended (thermochemical) frequency scaling factor: 1.0
           -------------------------------------------------
          |             Thermodynamic Functions             |
           -------------------------------------------------

cin symmetry found (for desy threshold:  0.10E+00) used in thermo

          ...................................................
          :                      SETUP                      :
          :.................................................:
          :  # frequencies                           7      :
          :  # imaginary freq.                       0      :
          :  linear?                              true      :
          :  only rotor calc.                    false      :
          :  symmetry                              cin      :
          :  rotational number                       1      :
          :  scaling factor                  1.0000000      :
          :  rotor cutoff                   50.0000000 cm⁻¹ :
          :  imag. cutoff                  -20.0000000 cm⁻¹ :
          :.................................................:

    mode    ω/cm⁻¹     T·S(HO)/kcal·mol⁻¹    T·S(FR)/kcal·mol⁻¹   T·S(vib)
   ------------------------------------------------------------------------
       1    181.21    -0.00000 ( 99.42%)     0.01110 (  0.58%)     0.00006
       2    181.35    -0.00000 ( 99.43%)     0.01111 (  0.57%)     0.00006
   ------------------------------------------------------------------------

   temp. (K)  partition function   enthalpy   heat capacity  entropy
                                   cal/mol     cal/K/mol   cal/K/mol   J/K/mol
 298.15  VIB   3.43                 1001.608      6.400      5.806
         ROT  0.129E+04              592.502      1.987     16.218
         INT  0.441E+04             1594.110      8.387     22.025
         TR   0.363E+27             1481.254      4.968     37.753
         TOT                        3075.3638    13.3551    59.7781   250.1117

   temp. (K)  partition function   enthalpy   heat capacity  entropy
                                   cal/mol     cal/K/mol   cal/K/mol   J/K/mol
 120.00  VIB   1.28                  137.317      2.954      1.636
         ROT   519.                  238.471      1.987     14.410
         INT   662.                  375.788      4.942     16.046
         TR   0.927E+26              596.178      4.968     33.234
         TOT                         971.9663     9.9098    49.2801   206.1880

   temp. (K)  partition function   enthalpy   heat capacity  entropy
                                   cal/mol     cal/K/mol   cal/K/mol   J/K/mol
 100.00  VIB   1.17                   83.560      2.410      1.148
         ROT   432.                  198.726      1.987     14.047
         INT   504.                  282.286      4.398     15.196
         TR   0.705E+26              496.815      4.968     32.329
         TOT                         779.1007     9.3657    47.5244   198.8422

   temp. (K)  partition function   enthalpy   heat capacity  entropy
                                   cal/mol     cal/K/mol   cal/K/mol   J/K/mol
  80.00  VIB   1.08                   41.527      1.772      0.682
         ROT   346.                  158.981      1.987     13.604
         INT   374.                  200.508      3.760     14.286
         TR   0.505E+26              397.452      4.968     31.221
         TOT                         597.9597     8.7278    45.5066   190.3998

   temp. (K)  partition function   enthalpy   heat capacity  entropy
                                   cal/mol     cal/K/mol   cal/K/mol   J/K/mol
  60.00  VIB   1.03                   13.602      0.999      0.285
         ROT   259.                  119.236      1.987     13.032
         INT   266.                  132.838      2.986     13.317
         TR   0.328E+26              298.089      4.968     29.792
         TOT                         430.9265     7.9546    43.1090   180.3681

   temp. (K)  partition function   enthalpy   heat capacity  entropy
                                   cal/mol     cal/K/mol   cal/K/mol   J/K/mol
  40.00  VIB   1.00                    1.529      0.250      0.047
         ROT   173.                   79.490      1.987     12.227
         INT   173.                   81.020      2.237     12.273
         TR   0.178E+26              198.726      4.968     27.779
         TOT                         279.7456     7.2051    40.0521   167.5778

   temp. (K)  partition function   enthalpy   heat capacity  entropy
                                   cal/mol     cal/K/mol   cal/K/mol   J/K/mol
  20.00  VIB   1.00                    0.002      0.001     -0.005
         ROT   86.4                   39.745      1.987     10.849
         INT   86.4                   39.747      1.989     10.844
         TR   0.631E+25               99.363      4.968     24.337
         TOT                         139.1104     6.9569    35.1809   147.1968

   temp. (K)  partition function   enthalpy   heat capacity  entropy
                                   cal/mol     cal/K/mol   cal/K/mol   J/K/mol
  10.00  VIB   1.00                    0.000      0.000     -0.013
         ROT   43.2                   19.873      1.987      9.472
         INT   43.2                   19.873      1.987      9.459
         TR   0.223E+25               49.681      4.968     20.895
         TOT                          69.5541     6.9554    30.3533   126.9982

       T/K    H(0)-H(T)+PV         H(T)/Eh          T*S/Eh         G(T)/Eh
   ------------------------------------------------------------------------
    298.15    0.490090E-02    0.202860E-01    0.284025E-01   -0.811657E-02
    120.00    0.154893E-02    0.169340E-01    0.942395E-02    0.751003E-02
    100.00    0.124158E-02    0.166266E-01    0.757350E-02    0.905312E-02
     80.00    0.952909E-03    0.163380E-01    0.580156E-02    0.105364E-01
     60.00    0.686725E-03    0.160718E-01    0.412191E-02    0.119499E-01
     40.00    0.445803E-03    0.158309E-01    0.255308E-02    0.132778E-01
     20.00    0.221687E-03    0.156067E-01    0.112129E-02    0.144854E-01
     10.00    0.110842E-03    0.154959E-01    0.483711E-03    0.150122E-01 (used)
   ------------------------------------------------------------------------

         :::::::::::::::::::::::::::::::::::::::::::::::::::::
         ::                  THERMODYNAMIC                  ::
         :::::::::::::::::::::::::::::::::::::::::::::::::::::
         :: total free energy         -10.297350030638 Eh   ::
         ::.................................................::
         :: total energy              -10.312362209293 Eh   ::
         :: zero point energy           0.015385047663 Eh   ::
         :: G(RRHO) w/o ZPVE           -0.000372869008 Eh   ::
         :: G(RRHO) contrib.            0.015012178655 Eh   ::
         :::::::::::::::::::::::::::::::::::::::::::::::::::::

optimized geometry written to: xtbopt.xyz


           -------------------------------------------------
          | TOTAL ENERGY              -10.312362209293 Eh   |
          | TOTAL ENTHALPY            -10.296866320117 Eh   |
          | TOTAL FREE ENERGY         -10.297350030638 Eh   |
          | GRADIENT NORM               0.000664537855 Eh/α |
          | HOMO-LUMO GAP               2.745060808243 eV   |
           -------------------------------------------------

------------------------------------------------------------------------
 * finished run on 2020/05/12 at 11:45:17.336     
------------------------------------------------------------------------
 total:
 * wall-time:     0 d,  0 h,  0 min,  0.221 sec
 *  cpu-time:     0 d,  0 h,  0 min,  0.220 sec
 * ratio c/w:     0.998 speedup
 SCF:
 * wall-time:     0 d,  0 h,  0 min,  0.005 sec
 *  cpu-time:     0 d,  0 h,  0 min,  0.005 sec
 * ratio c/w:     1.000 speedup
 ANC optimizer:
 * wall-time:     0 d,  0 h,  0 min,  0.133 sec
 *  cpu-time:     0 d,  0 h,  0 min,  0.133 sec
 * ratio c/w:     0.997 speedup
 numerical hessian:
 * wall-time:     0 d,  0 h,  0 min,  0.064 sec
 *  cpu-time:     0 d,  0 h,  0 min,  0.064 sec
 * ratio c/w:     0.998 speedup

