 Entering Gaussian System
 *********************************************
 Gaussian 98:
 frequency output generated by the xtb code
 *********************************************
                         Standard orientation:
 --------------------------------------------------------------------
  Center     Atomic     Atomic              Coordinates (Angstroms)
  Number     Number      Type              X           Y           Z
 --------------------------------------------------------------------
    1          6             0        0.099592    0.083960   -0.405924
    2          8             0        0.934740   -0.342054    0.552461
    3          8             0       -1.109968    0.194330    0.161742
    4          1             0        1.822603   -0.436318    0.186912
    5          1             0       -1.746968    0.500081   -0.495190
 --------------------------------------------------------------------
     1 basis functions        1 primitive gaussians
     1 alpha electrons        1 beta electrons

 Harmonic frequencies (cm**-1), IR intensities (KM/Mole),
 Raman scattering activities (A**4/amu), Raman depolarization ratios,
 reduced masses (AMU), force constants (mDyne/A) and normal coordinates:
                      1                      2                      3
                        a                      a                      a 
 Frequencies --   538.7076               600.5595               665.4349
 Red. masses --    13.2972                 3.4227                 1.8690
 Frc consts  --     0.0000                 0.0000                 0.0000
 IR Inten    --     0.1215                 0.0010                 0.5287
 Raman Activ --     0.0000                 0.0000                 0.0000
 Depolar     --     0.0000                 0.0000                 0.0000
 Atom AN      X      Y      Z        X      Y      Z        X      Y      Z
   1   6    -0.10  -0.09   0.42     0.00  -0.00   0.00    -0.05  -0.25  -0.06
   2   8     0.57  -0.12  -0.02    -0.06  -0.27  -0.07    -0.01  -0.05  -0.01
   3   8    -0.51   0.17  -0.22     0.06   0.27   0.07    -0.01  -0.05  -0.01
   4   1     0.05   0.05  -0.24     0.13   0.61   0.16     0.14   0.64   0.17
   5   1     0.06   0.05  -0.24    -0.13  -0.61  -0.16     0.14   0.64   0.17
                      4                      5                      6
                        a                      a                      a 
 Frequencies --  1082.7065              1117.3554              1240.2124
 Red. masses --     8.3765                 5.5301                 7.9889
 Frc consts  --     0.0000                 0.0000                 0.0000
 IR Inten    --     2.1424                 0.1342                 1.7154
 Raman Activ --     0.0000                 0.0000                 0.0000
 Depolar     --     0.0000                 0.0000                 0.0000
 Atom AN      X      Y      Z        X      Y      Z        X      Y      Z
   1   6     0.40  -0.10   0.07     0.07   0.06  -0.31    -0.66   0.17  -0.13
   2   8    -0.15   0.13  -0.37     0.31  -0.09   0.09     0.21  -0.06   0.07
   3   8    -0.32  -0.01   0.28    -0.32   0.08  -0.04     0.23  -0.05   0.01
   4   1     0.16  -0.15   0.43     0.24  -0.18   0.49     0.18  -0.14   0.39
   5   1     0.34   0.01  -0.33    -0.46   0.00   0.36     0.34   0.00  -0.29
                      7                      8                      9
                        a                      a                      a 
 Frequencies --  1399.8178              3521.9844              3525.2467
 Red. masses --    11.0336                 1.8591                 1.8629
 Frc consts  --     0.0000                 0.0000                 0.0000
 IR Inten    --     0.6809                 0.3213                 0.1738
 Raman Activ --     0.0000                 0.0000                 0.0000
 Depolar     --     0.0000                 0.0000                 0.0000
 Atom AN      X      Y      Z        X      Y      Z        X      Y      Z
   1   6    -0.16  -0.13   0.63    -0.01   0.00  -0.00    -0.00   0.00  -0.00
   2   8    -0.12   0.12  -0.38    -0.17   0.02   0.07     0.14  -0.02  -0.05
   3   8     0.28   0.02  -0.30    -0.10   0.05  -0.10    -0.12   0.06  -0.13
   4   1     0.11  -0.10   0.29     0.70  -0.08  -0.28    -0.56   0.06   0.22
   5   1    -0.24  -0.01   0.23     0.41  -0.19   0.41     0.51  -0.24   0.51
