$hessian                                                                        
        0.4192180562  -0.0782163477  -0.0309364325  -0.1124995553   0.0434817449
       -0.0725615904  -0.2440365093   0.0203751818   0.1246582296  -0.0307748319
        0.0108060671  -0.0250555697  -0.0319071596   0.0035533540   0.0038953630
       -0.0782163477   0.0582031463  -0.1063065186   0.0586141585  -0.0327444978
        0.0915643058   0.0052668968  -0.0036394032   0.0230531691   0.0038743067
       -0.0110371589  -0.0009537361   0.0104609857  -0.0107820864  -0.0073572202
       -0.0309364325  -0.1063065186   0.4497006426  -0.1309276138   0.1039750777
       -0.2903684939   0.1829089220   0.0106501470  -0.1879597443   0.0017004498
       -0.0066390151   0.0138406440  -0.0227453255  -0.0016796910   0.0147869515
       -0.1124995553   0.0586141585  -0.1309276138   0.5682881885  -0.1115961021
       -0.0209846124  -0.0930084523   0.0208265714  -0.0176599006  -0.3558918831
        0.0301715096   0.1654989404  -0.0068882978   0.0019838626   0.0040731864
        0.0434817449  -0.0327444978   0.1039750777  -0.1115961021   0.0627895718
       -0.0795143474   0.0290590282  -0.0191620211  -0.0145399945   0.0373377058
       -0.0178382527  -0.0106383670   0.0017176233   0.0069551998   0.0007176313
       -0.0725615904   0.0915643058  -0.2903684939  -0.0209846124  -0.0795143474
        0.3425975294  -0.0494520385  -0.0078038859   0.0540491424   0.1378825708
       -0.0047625977  -0.1075455301   0.0051156705   0.0005165253   0.0012673522
       -0.2440365093   0.0052668968   0.1829089220  -0.0930084523   0.0290590282
       -0.0494520385   0.5274345003  -0.1234616926   0.0583157666  -0.0018675717
        0.0031799743  -0.0045645369  -0.1885219671   0.0859557934  -0.1872081132
        0.0203751818  -0.0036394032   0.0106501470   0.0208265714  -0.0191620211
       -0.0078038859  -0.1234616926   0.0718643153  -0.1047470243   0.0034490442
        0.0058358024   0.0036054587   0.0788108952  -0.0548986934   0.0982953045
        0.1246582296   0.0230531691  -0.1879597443  -0.0176599006  -0.0145399945
        0.0540491424   0.0583157666  -0.1047470243   0.3747176024  -0.0056581128
        0.0038138935  -0.0026568481  -0.1596559827   0.0924199562  -0.2381501524
       -0.0307748319   0.0038743067   0.0017004498  -0.3558918831   0.0373377058
        0.1378825708  -0.0018675717   0.0034490442  -0.0056581128   0.3901449437
       -0.0453066234  -0.1344706168  -0.0016106570   0.0006455667   0.0005457090
        0.0108060671  -0.0110371589  -0.0066390151   0.0301715096  -0.0178382527
       -0.0047625977   0.0031799743   0.0058358024   0.0038138935  -0.0453066234
        0.0213045278   0.0073848936   0.0011490725   0.0017350815   0.0002028257
       -0.0250555697  -0.0009537361   0.0138406440   0.1654989404  -0.0106383670
       -0.1075455301  -0.0045645369   0.0036054587  -0.0026568481  -0.1344706168
        0.0073848936   0.0955206625  -0.0014082171   0.0006017507   0.0008410716
       -0.0319071596   0.0104609857  -0.0227453255  -0.0068882978   0.0017176233
        0.0051156705  -0.1885219671   0.0788108952  -0.1596559827  -0.0016106570
        0.0011490725  -0.0014082171   0.2289280815  -0.0921385767   0.1786938548
        0.0035533540  -0.0107820864  -0.0016796910   0.0019838626   0.0069551998
        0.0005165253   0.0859557934  -0.0548986934   0.0924199562   0.0006455667
        0.0017350815   0.0006017507  -0.0921385767   0.0569904985  -0.0918585412
        0.0038953630  -0.0073572202   0.0147869515   0.0040731864   0.0007176313
        0.0012673522  -0.1872081132   0.0982953045  -0.2381501524   0.0005457090
        0.0002028257   0.0008410716   0.1786938548  -0.0918585412   0.2212547770
