5
 energy: -11.190939547171 gnorm: 0.082224721547 xtb: 6.2.2 (9d81278992624c895f80dd42a50cac0aa55982e2)
C         0.09063400000000    0.07640900000000   -0.36940800000000
O         0.98518600000000   -0.36605700000000    0.60368700000000
O        -1.17990700000000    0.20189900000000    0.18995800000000
H         1.85373200000000   -0.42875000000000    0.13216800000000
H        -1.74964600000000    0.51649800000000   -0.55640500000000
5
 energy: -11.196682543883 gnorm: 0.034974214989 xtb: 6.2.2 (9d81278992624c895f80dd42a50cac0aa55982e2)
C         0.09505828168092    0.08013823771078   -0.38744088420741
O         0.94681138166812   -0.35130711979840    0.57827911772109
O        -1.13306022184683    0.19429132822952    0.18083467951716
H         1.81979365531027   -0.42697501613118    0.15319678767720
H        -1.72860409681247    0.50385156998929   -0.52486970070804
5
 energy: -11.197656753635 gnorm: 0.006195714685 xtb: 6.2.2 (9d81278992624c895f80dd42a50cac0aa55982e2)
C         0.09639356127022    0.08126413182963   -0.39288252750079
O         0.93408869375275   -0.34358346477643    0.55891415194976
O        -1.11240033564675    0.19325914289150    0.16784904314725
H         1.81453541042661   -0.43072016504498    0.17197411075237
H        -1.73261832980283    0.49977935510028   -0.50585477834858
5
 energy: -11.197741974854 gnorm: 0.002780035693 xtb: 6.2.2 (9d81278992624c895f80dd42a50cac0aa55982e2)
C         0.09844401540685    0.08299230791278   -0.40124034886834
O         0.93430986434485   -0.34268286045418    0.55525912307060
O        -1.11088846028569    0.19381944743994    0.16444029906608
H         1.82012585448359   -0.43427797241861    0.18111457826992
H        -1.74199227394960    0.50014807752007   -0.49957365153826
5
 energy: -11.197756466351 gnorm: 0.000462454109 xtb: 6.2.2 (9d81278992624c895f80dd42a50cac0aa55982e2)
C         0.09948253123053    0.08386820098194   -0.40547258372782
O         0.93482628025858   -0.34212818282465    0.55269213455285
O        -1.11015543064196    0.19431820059192    0.16191488755388
H         1.82284153749010   -0.43625484159825    0.18651449647201
H        -1.74699591833724    0.50019562284903   -0.49564893485092
5
 energy: -11.197756610088 gnorm: 0.000124845808 xtb: 6.2.2 (9d81278992624c895f80dd42a50cac0aa55982e2)
C         0.09959301378097    0.08396084286948   -0.40592358285181
O         0.93473948714103   -0.34205001007856    0.55246342812939
O        -1.10996920102132    0.19432372448482    0.16173813907478
H         1.82260423722022   -0.43630860393452    0.18691737040278
H        -1.74696853712090    0.50007304665878   -0.49519535475513
