      -----------------------------------------------------------      
     |                   =====================                   |     
     |                           x T B                           |     
     |                   =====================                   |     
     |                         S. Grimme                         |     
     |          Mulliken Center for Theoretical Chemistry        |     
     |                    University of Bonn                     |     
      -----------------------------------------------------------      

   * xtb version 6.2.2 (9d81278992624c895f80dd42a50cac0aa55982e2) compiled by '@Darwin' on 04/03/2020

   xtb is free software: you can redistribute it and/or modify it under
   the terms of the GNU Lesser General Public License as published by
   the Free Software Foundation, either version 3 of the License, or
   (at your option) any later version.
   
   xtb is distributed in the hope that it will be useful,
   but WITHOUT ANY WARRANTY; without even the implied warranty of
   MERCHANTABILITY or FITNESS FOR A PARTICULAR PURPOSE.  See the
   GNU Lesser General Public License for more details.
   
   Cite this work as:
   * S. Grimme, C. Bannwarth, P. Shushkov, J. Chem. Theory Comput., 2017,
     13, 1989-2009. DOI: 10.1021/acs.jctc.7b00118
   * C. Bannwarth, S. Ehlert and S. Grimme., J. Chem. Theory Comput., 2019,
     15, 1652-1671. DOI: 10.1021/acs.jctc.8b01176
   * P. Pracht, E. Caldeweyher, S. Ehlert, S. Grimme, ChemRxiv, 2019, preprint.
     DOI: 10.26434/chemrxiv.8326202.v1
   
   for DFT-D4:
   * E. Caldeweyher, C. Bannwarth and S. Grimme, J. Chem. Phys., 2017,
     147, 034112. DOI: 10.1063/1.4993215
   * E. Caldeweyher, S. Ehlert, A. Hansen, H. Neugebauer, S. Spicher,
     C. Bannwarth and S. Grimme, J. Chem. Phys., 2019, 150, 154122.
     DOI: 10.1063/1.5090222
   
   for sTDA-xTB:
   * S. Grimme and C. Bannwarth, J. Chem. Phys., 2016, 145, 054103.
     DOI: 10.1063/1.4959605
   
   in the mass-spec context:
   * V. Asgeirsson, C. Bauer and S. Grimme, Chem. Sci., 2017, 8, 4879.
     DOI: 10.1039/c7sc00601b
   
   for metadynamics refer to:
   * S. Grimme, J. Chem. Theory Comput., 2019, 155, 2847-2862
     DOI: 10.1021/acs.jctc.9b00143
   
   with help from (in alphabetical order)
   C. Bannwarth, F. Bohle, G. Brandenburg, E. Caldeweyher, M. Checinski,
   S. Dohm, S. Ehlert, S. Ehrlich, F. März, H. Neugebauer, J. Pisarek,
   P. Pracht, P. Shushkov, and S. Spicher.
   
 * started run on 2020/05/12 at 11:43:52.456     

           -------------------------------------------------
          |                Calculation Setup                |
           -------------------------------------------------

          program call               : xtb --input H2C1O2_2_S_0.input H2C1O2_2_S_0.xyz --ohess --molden --namespace H2C1O2_2_S_0 output.out
          calculation namespace      : H2C1O2_2_S_0
          coordinate file            : H2C1O2_2_S_0.xyz
          number of atoms            :                     5
          number of electrons        :                    18
          charge                     :                     0
          spin                       :                   0.0
          first test random number   :      0.80749492107909

   ID    Z sym.   atoms
    1    6 C      1
    2    8 O      2, 3
    3    1 H      4, 5

           -------------------------------------------------
          |                 G F N 2 - x T B                 |
           -------------------------------------------------

        Reference                      10.1021/acs.jctc.8b01176
      * Hamiltonian:
        H0-scaling (s, p, d)           1.850000    2.230000    2.230000
        zeta-weighting                 0.500000
      * Dispersion:
        s8                             2.700000
        a1                             0.520000
        a2                             5.000000
        s9                             5.000000
      * Repulsion:
        kExp                           1.500000    1.000000
        rExp                           1.000000
      * Coulomb:
        alpha                          2.000000
        third order                    shell-resolved
        anisotropic                    true
        a3                             3.000000
        a5                             4.000000
        cn-shift                       1.200000
        cn-exp                         4.000000
        max-rad                        5.000000


          ...................................................
          :                      SETUP                      :
          :.................................................:
          :  # basis functions                  14          :
          :  # atomic orbitals                  14          :
          :  # shells                            8          :
          :  # electrons                        18          :
          :  max. iterations                   250          :
          :  Hamiltonian                  GFN2-xTB          :
          :  restarted?                      false          :
          :  GBSA solvation                  false          :
          :  PC potential                    false          :
          :  electronic temp.          300.0000000     K    :
          :  accuracy                    1.0000000          :
          :  -> integral cutoff          0.2500000E+02      :
          :  -> integral neglect         0.1000000E-07      :
          :  -> SCF convergence          0.1000000E-05 Eh   :
          :  -> wf. convergence          0.1000000E-03 e    :
          :  Broyden damping             0.4000000          :
          ...................................................

 iter      E             dE          RMSdq      gap      omega  full diag
   1    -11.2298466 -0.112298E+02  0.673E+00    2.81       0.0  T
   2    -11.2316882 -0.184156E-02  0.392E+00    2.81       1.0  T
   3    -11.2323135 -0.625351E-03  0.408E-01    2.91       1.0  T
   4    -11.2321808  0.132710E-03  0.371E-01    2.94       1.0  T
   5    -11.2325971 -0.416318E-03  0.117E-01    2.94       1.0  T
   6    -11.2325796  0.175382E-04  0.715E-02    2.95       1.0  T
   7    -11.2326002 -0.206430E-04  0.574E-03    2.95       7.8  T
   8    -11.2326002 -0.116363E-07  0.485E-03    2.95       9.2  T
   9    -11.2326003 -0.839356E-07  0.401E-04    2.95     111.5  T
  10    -11.2326003 -0.519821E-09  0.147E-04    2.95     304.7  T

   *** convergence criteria satisfied after 10 iterations ***

         #    Occupation            Energy/Eh            Energy/eV
      -------------------------------------------------------------
         1        2.0000           -0.7202314             -19.5985
       ...           ...                  ...                  ...
         3        2.0000           -0.6374568             -17.3461
         4        2.0000           -0.5796377             -15.7727
         5        2.0000           -0.5576316             -15.1739
         6        2.0000           -0.5519539             -15.0194
         7        2.0000           -0.5373012             -14.6207
         8        2.0000           -0.4791213             -13.0376
         9        2.0000           -0.3835097             -10.4358 (HOMO)
        10                         -0.2749702              -7.4823 (LUMO)
        11                          0.0266871               0.7262
        12                          0.0977192               2.6591
        13                          0.1263173               3.4373
        14                          0.1759879               4.7889
      -------------------------------------------------------------
                  HL-Gap            0.1085395 Eh            2.9535 eV
             Fermi-level           -0.3292399 Eh           -8.9591 eV

 SCC (total)                   0 d,  0 h,  0 min,  0.002 sec
 SCC setup                      ...        0 min,  0.000 sec (  4.424%)
 Dispersion                     ...        0 min,  0.000 sec (  0.711%)
 integral evaluation            ...        0 min,  0.001 sec ( 32.560%)
 zeroth order Hamiltonian       ...        0 min,  0.000 sec (  0.573%)
 iterations                     ...        0 min,  0.001 sec ( 35.789%)
 molecular gradient             ...        0 min,  0.001 sec ( 23.711%)
 printout                       ...        0 min,  0.000 sec (  1.738%)

         :::::::::::::::::::::::::::::::::::::::::::::::::::::
         ::                     SUMMARY                     ::
         :::::::::::::::::::::::::::::::::::::::::::::::::::::
         :: total energy             -11.190939546945 Eh    ::
         :: gradient norm              0.082227183755 Eh/a0 ::
         :: HOMO-LUMO gap              2.953509267779 eV    ::
         ::.................................................::
         :: SCC energy               -11.232600327099 Eh    ::
         :: -> isotropic ES            0.029823058242 Eh    ::
         :: -> anisotropic ES         -0.001878809188 Eh    ::
         :: -> anisotropic XC         -0.000771716502 Eh    ::
         :: -> dispersion             -0.001117516935 Eh    ::
         :: repulsion energy           0.041660830044 Eh    ::
         :: add. restraining           0.000000000000 Eh    ::
         :::::::::::::::::::::::::::::::::::::::::::::::::::::

      ----------------------------------------------------------- 
     |                   =====================                   |
     |                        A N C O P T                        |
     |                   =====================                   |
     |               Approximate Normal Coordinate               |
     |                Rational Function Optimizer                |
      ----------------------------------------------------------- 

          ...................................................
          :                      SETUP                      :
          :.................................................:
          :   optimization level            normal          :
          :   max. optcycles                   200          :
          :   ANC micro-cycles                  20          :
          :   degrees of freedom                 9          :
          :.................................................:
          :   RF solver                   davidson          :
          :   write xtbopt.log                true          :
          :   linear?                        false          :
          :   energy convergence         0.5000000E-05 Eh   :
          :   grad. convergence          0.1000000E-02 Eh/α :
          :   maximium RF displ.         1.0000000          :
          :   Hlow (freq-cutoff)         0.1000000E-01      :
          :   Hmax (freq-cutoff)         5.0000000          :
          :   S6 in model hess.         20.0000000          :
          ...................................................

generating ANC from model Hessian ...
Using Lindh-Hessian (1995)
 Shifting diagonal of input Hessian by    0.0000000000000000     
 Lowest  eigenvalues of input Hessian
   -0.000000   -0.000000    0.000000    0.000000    0.000000    0.000000
    0.019520    0.033997    0.082413    0.130667    0.252716    1.115629
    1.165154    1.261073    1.432134
 Highest eigenvalues
    0.130667    0.252716    1.115629    1.165154    1.261073    1.432134


........................................................................
.............................. CYCLE    1 ..............................
........................................................................
   1    -11.2326003 -0.112326E+02  0.231E-05    2.95       0.0  T
   2    -11.2326003 -0.180478E-11  0.150E-05    2.95    2987.8  T
   3    -11.2326003 -0.520473E-12  0.702E-06    2.95    6370.1  T
     SCC iter.                  ...        0 min,  0.001 sec
     gradient                   ...        0 min,  0.001 sec
 * total energy  :   -11.1909395 Eh     change       -0.2258993E-09 Eh
   gradient norm :     0.0822247 Eh/α   predicted     0.0000000E+00 (-100.00%)
   displ. norm   :     0.1713771 α      lambda       -0.8444657E-02
   maximum displ.:     0.1259004 α      in ANC's #4, #3, #7, ...

........................................................................
.............................. CYCLE    2 ..............................
........................................................................
   1    -11.2481737 -0.112482E+02  0.400E-01    3.12       0.0  T
   2    -11.2482197 -0.459901E-04  0.237E-01    3.12       1.0  T
   3    -11.2482165  0.318009E-05  0.986E-02    3.11       1.0  T
   4    -11.2482310 -0.145253E-04  0.151E-02    3.11       3.0  T
   5    -11.2482311 -0.948746E-07  0.281E-03    3.11      15.9  T
   6    -11.2482311 -0.477088E-08  0.850E-04    3.11      52.6  T
   7    -11.2482312 -0.194908E-08  0.214E-04    3.11     208.7  T
     SCC iter.                  ...        0 min,  0.000 sec
     gradient                   ...        0 min,  0.001 sec
 * total energy  :   -11.1966825 Eh     change       -0.5742997E-02 Eh
   gradient norm :     0.0349742 Eh/α   predicted    -0.4346341E-02 ( -24.32%)
   displ. norm   :     0.0848114 α      lambda       -0.1977180E-02
   maximum displ.:     0.0657042 α      in ANC's #3, #7, #4, ...

........................................................................
.............................. CYCLE    3 ..............................
........................................................................
   1    -11.2556810 -0.112557E+02  0.278E-01    3.18       0.0  T
   2    -11.2556909 -0.990702E-05  0.167E-01    3.18       1.0  T
   3    -11.2556904  0.505473E-06  0.413E-02    3.17       1.1  T
   4    -11.2556937 -0.336551E-05  0.109E-02    3.17       4.1  T
   5    -11.2556938 -0.491008E-07  0.222E-03    3.17      20.1  T
   6    -11.2556938 -0.219621E-08  0.405E-04    3.17     110.4  T
   7    -11.2556938 -0.462135E-09  0.110E-04    3.17     408.3  T
     SCC iter.                  ...        0 min,  0.000 sec
     gradient                   ...        0 min,  0.001 sec
 * total energy  :   -11.1976568 Eh     change       -0.9742098E-03 Eh
   gradient norm :     0.0061957 Eh/α   predicted    -0.9957003E-03 (   2.21%)
   displ. norm   :     0.0358750 α      lambda       -0.1271630E-03
   maximum displ.:     0.0328139 α      in ANC's #3, #4, #8, ...

........................................................................
.............................. CYCLE    4 ..............................
........................................................................
   1    -11.2551617 -0.112552E+02  0.995E-02    3.17       0.0  T
   2    -11.2551667 -0.493874E-05  0.579E-02    3.17       1.0  T
   3    -11.2551669 -0.185672E-06  0.270E-02    3.17       1.7  T
   4    -11.2551674 -0.531995E-06  0.247E-03    3.17      18.1  T
   5    -11.2551674 -0.837415E-09  0.256E-04    3.17     175.0  T
   6    -11.2551674 -0.249880E-10  0.125E-04    3.17     356.7  T
     SCC iter.                  ...        0 min,  0.001 sec
     gradient                   ...        0 min,  0.001 sec
 * total energy  :   -11.1977420 Eh     change       -0.8522122E-04 Eh
   gradient norm :     0.0027800 Eh/α   predicted    -0.6366300E-04 ( -25.30%)
   displ. norm   :     0.0202623 α      lambda       -0.2782959E-04
   maximum displ.:     0.0182824 α      in ANC's #3, #4, #8, ...

........................................................................
.............................. CYCLE    5 ..............................
........................................................................
   1    -11.2552126 -0.112552E+02  0.519E-02    3.17       0.0  T
   2    -11.2552143 -0.169005E-05  0.297E-02    3.17       1.5  T
   3    -11.2552144 -0.127996E-06  0.152E-02    3.17       2.9  T
   4    -11.2552145 -0.136079E-06  0.179E-03    3.17      25.0  T
   5    -11.2552145 -0.884102E-09  0.320E-04    3.17     139.6  T
   6    -11.2552145 -0.508660E-10  0.607E-05    3.17     736.9  T
     SCC iter.                  ...        0 min,  0.000 sec
     gradient                   ...        0 min,  0.001 sec
 * total energy  :   -11.1977565 Eh     change       -0.1449150E-04 Eh
   gradient norm :     0.0004625 Eh/α   predicted    -0.1392002E-04 (  -3.94%)
   displ. norm   :     0.0016893 α      lambda       -0.2683443E-06
   maximum displ.:     0.0014021 α      in ANC's #3, #8, #4, ...

........................................................................
.............................. CYCLE    6 ..............................
........................................................................
   1    -11.2553160 -0.112553E+02  0.525E-03    3.17       0.0  T
   2    -11.2553160 -0.185809E-07  0.297E-03    3.17      15.1  T
   3    -11.2553160 -0.200979E-08  0.159E-03    3.17      28.2  T
   4    -11.2553160 -0.150505E-08  0.296E-04    3.17     151.1  T
   5    -11.2553160 -0.487379E-10  0.658E-05    3.17     679.9  T
     SCC iter.                  ...        0 min,  0.000 sec
     gradient                   ...        0 min,  0.001 sec
 * total energy  :   -11.1977566 Eh     change       -0.1437368E-06 Eh
   gradient norm :     0.0001248 Eh/α   predicted    -0.1333376E-06 (  -7.23%)
   displ. norm   :     0.0005319 α      lambda       -0.1625450E-07
   maximum displ.:     0.0005043 α      in ANC's #3, #8, #7, ...

   *** GEOMETRY OPTIMIZATION CONVERGED AFTER 6 ITERATIONS ***

------------------------------------------------------------------------
 total energy gain   :        -0.0068171 Eh       -4.2778 kcal/mol
 total RMSD          :         0.1224913 a0        0.0648 Å
 total power (kW/mol):        -2.9830328 (step)-1394.7140 (real)
------------------------------------------------------------------------

 ANCopt (total)                0 d,  0 h,  0 min,  0.013 sec
 optimizer setup                ...        0 min,  0.000 sec (  0.412%)
 model hessian                  ...        0 min,  0.000 sec (  0.553%)
 ANC generation                 ...        0 min,  0.000 sec (  0.344%)
 coordinate transformation      ...        0 min,  0.000 sec (  0.078%)
 single point calculation       ...        0 min,  0.012 sec ( 95.190%)
 optimization log               ...        0 min,  0.000 sec (  0.851%)
 hessian update                 ...        0 min,  0.000 sec (  0.102%)
 rational function              ...        0 min,  0.000 sec (  0.934%)

================
 final structure:
================
5
 xtb: 6.2.2 (9d81278992624c895f80dd42a50cac0aa55982e2)
C         0.09959301378097    0.08396084286948   -0.40592358285181
O         0.93473948714103   -0.34205001007856    0.55246342812939
O        -1.10996920102132    0.19432372448482    0.16173813907478
H         1.82260423722022   -0.43630860393452    0.18691737040278
H        -1.74696853712090    0.50007304665878   -0.49519535475513

 Bond Distances (Angstroems)
 ---------------------------
C1-O2=1.3407         C1-O3=1.3407         O2-C1=1.3407         O2-H4=0.9648         O3-C1=1.3407         O3-H5=0.9648         
H4-O2=0.9648         H5-O3=0.9648         
 O  H  Rav=0.9648 sigma=0.0000  Rmin=0.9648  Rmax=0.9648     2
 O  C  Rav=1.3407 sigma=0.0000  Rmin=1.3407  Rmax=1.3407     2

 selected bond angles (degree)
 --------------------
O3-C1-O2=106.59                H4-O2-C1=109.48                H5-O3-C1=109.48                

 selected dihedral angles (degree)
 ---------------------------------
H4-O2-C1-O3=180.00            H5-O3-C1-O2=180.00            
           -------------------------------------------------
          |                Final Singlepoint                |
           -------------------------------------------------

          ...................................................
          :                      SETUP                      :
          :.................................................:
          :  # basis functions                  14          :
          :  # atomic orbitals                  14          :
          :  # shells                            8          :
          :  # electrons                        18          :
          :  max. iterations                   250          :
          :  Hamiltonian                  GFN2-xTB          :
          :  restarted?                      false          :
          :  GBSA solvation                  false          :
          :  PC potential                    false          :
          :  electronic temp.          300.0000000     K    :
          :  accuracy                    1.0000000          :
          :  -> integral cutoff          0.2500000E+02      :
          :  -> integral neglect         0.1000000E-07      :
          :  -> SCF convergence          0.1000000E-05 Eh   :
          :  -> wf. convergence          0.1000000E-03 e    :
          :  Broyden damping             0.4000000          :
          ...................................................

 iter      E             dE          RMSdq      gap      omega  full diag
   1    -11.2553160 -0.112553E+02  0.694E-06    3.17       0.0  T
   2    -11.2553160 -0.319744E-13  0.466E-06    3.17    9597.3  T
   3    -11.2553160 -0.177636E-14  0.113E-06    3.17   39435.9  T

   *** convergence criteria satisfied after 3 iterations ***

         #    Occupation            Energy/Eh            Energy/eV
      -------------------------------------------------------------
         1        2.0000           -0.7254152             -19.7396
       ...           ...                  ...                  ...
         3        2.0000           -0.6449433             -17.5498
         4        2.0000           -0.5792046             -15.7610
         5        2.0000           -0.5583449             -15.1933
         6        2.0000           -0.5450544             -14.8317
         7        2.0000           -0.5439003             -14.8003
         8        2.0000           -0.4771346             -12.9835
         9        2.0000           -0.3661599              -9.9637 (HOMO)
        10                         -0.2496728              -6.7939 (LUMO)
        11                          0.0657488               1.7891
        12                          0.1514886               4.1222
        13                          0.2016145               5.4862
        14                          0.3074888               8.3672
      -------------------------------------------------------------
                  HL-Gap            0.1164871 Eh            3.1698 eV
             Fermi-level           -0.3079163 Eh           -8.3788 eV

 SCC (total)                   0 d,  0 h,  0 min,  0.001 sec
 SCC setup                      ...        0 min,  0.000 sec (  3.690%)
 Dispersion                     ...        0 min,  0.000 sec (  0.438%)
 integral evaluation            ...        0 min,  0.001 sec ( 37.944%)
 zeroth order Hamiltonian       ...        0 min,  0.000 sec (  0.573%)
 iterations                     ...        0 min,  0.000 sec ( 17.523%)
 molecular gradient             ...        0 min,  0.001 sec ( 36.950%)
 printout                       ...        0 min,  0.000 sec (  2.409%)

         :::::::::::::::::::::::::::::::::::::::::::::::::::::
         ::                     SUMMARY                     ::
         :::::::::::::::::::::::::::::::::::::::::::::::::::::
         :: total energy             -11.197756609987 Eh    ::
         :: gradient norm              0.000124359461 Eh/a0 ::
         :: HOMO-LUMO gap              3.169775034761 eV    ::
         ::.................................................::
         :: SCC energy               -11.255316020069 Eh    ::
         :: -> isotropic ES            0.029516973206 Eh    ::
         :: -> anisotropic ES         -0.001249210568 Eh    ::
         :: -> anisotropic XC         -0.001740374469 Eh    ::
         :: -> dispersion             -0.001123653928 Eh    ::
         :: repulsion energy           0.057559458434 Eh    ::
         :: add. restraining           0.000000000000 Eh    ::
         :::::::::::::::::::::::::::::::::::::::::::::::::::::

           ------------------------------------------------- 
          |                Numerical Hessian                |
           ------------------------------------------------- 
step length          :   0.00500
SCC accuracy         :   0.30000
Hessian scale factor :   1.00000
frozen atoms in %    :   0.00000    0
RMS gradient         :   0.00012
estimated CPU  time      0.00 min
estimated wall time      0.00 min

writing file <hessian>.

 projected vibrational frequencies (cm-1)
eigval :       -0.00    -0.00     0.00     0.00     0.00     0.00
eigval :      538.71   600.56   665.43  1082.71  1117.36  1240.21
eigval :     1399.82  3521.98  3525.25
           -------------------------------------------------
          |                Property Printout                |
           -------------------------------------------------

    * Orbital Energies and Occupations

         #    Occupation            Energy/Eh            Energy/eV
      -------------------------------------------------------------
         1        2.0000           -0.7254152             -19.7396
         2        2.0000           -0.7119122             -19.3721
         3        2.0000           -0.6449433             -17.5498
         4        2.0000           -0.5792046             -15.7610
         5        2.0000           -0.5583450             -15.1933
         6        2.0000           -0.5450544             -14.8317
         7        2.0000           -0.5439003             -14.8003
         8        2.0000           -0.4771346             -12.9835
         9        2.0000           -0.3661599              -9.9637 (HOMO)
        10                         -0.2496728              -6.7939 (LUMO)
        11                          0.0657488               1.7891
        12                          0.1514886               4.1222
        13                          0.2016145               5.4862
        14                          0.3074887               8.3672
      -------------------------------------------------------------
                  HL-Gap            0.1164871 Eh            3.1698 eV
             Fermi-level           -0.3079163 Eh           -8.3788 eV

     #   Z        covCN         q      C6AA      α(0)
     1   6 C      1.708     0.021    30.850     8.993
     2   8 O      1.660    -0.317    19.314     5.933
     3   8 O      1.660    -0.317    19.314     5.933
     4   1 H      0.805     0.307     0.701     1.315
     5   1 H      0.805     0.307     0.701     1.315

 Mol. C6AA /au·bohr⁶  :        254.436401
 Mol. C8AA /au·bohr⁸  :       5604.427110
 Mol. α(0) /au        :         23.488356


Wiberg/Mayer (AO) data.
largest (>0.10) Wiberg bond orders for each atom
          total WBO             WBO to atom ...
     1  C   2.626        O    3 1.313    O    2 1.313
     2  O   2.298        C    1 1.313    H    4 0.891
     3  O   2.298        C    1 1.313    H    5 0.891
     4  H   0.906        O    2 0.891
     5  H   0.906        O    3 0.891

MOs/occ written to file <molden.input>


molecular dipole:
                 x           y           z       tot (Debye)
 q only:        0.153       0.129      -0.623
   full:        0.108       0.091      -0.441       1.177
molecular quadrupole (traceless):
                xx          xy          yy          xz          yz          zz
 q only:        4.471      -1.831      -1.963       1.404      -0.277      -2.508
  q+dip:        5.669      -2.183      -1.636       2.056       0.068      -4.034
   full:        5.867      -2.176      -1.189       2.291       0.318      -4.678

           -------------------------------------------------
          |                Geometry Summary                 |
           -------------------------------------------------

      molecular mass/u    :       46.0254272
   center of mass at/Å    :       -0.0332671      -0.0280456       0.1355912
  moments of inertia/u·Å² :        0.5803102E+01   0.4406609E+02   0.4986919E+02
rotational constants/cm⁻¹ :        0.2904935E+01   0.3825534E+00   0.3380370E+00

 * 4 selected distances

     #   Z        #   Z                                     value/Å
     1   6 C      2   8 O                                 1.3406941
     1   6 C      3   8 O                                 1.3406941 (max)
     2   8 O      4   1 H                                 0.9647862 (min)
     3   8 O      5   1 H                                 0.9647862

 * 2 distinct bonds (by element types)

   Z      Z             #   av. dist./Å        max./Å        min./Å
   1 H    8 O           2     0.9647862     0.9647862     0.9647862
   6 C    8 O           2     1.3406941     1.3406941     1.3406941

           -------------------------------------------------
          |               Frequency Printout                |
Molecule has the following symmetry elements: (C2) 2*(sigma) 
It seems to be the C2v point group
           -------------------------------------------------
 projected vibrational frequencies (cm-1)
eigval :       -0.00    -0.00     0.00     0.00     0.00     0.00
eigval :      538.71   600.56   665.43  1082.71  1117.36  1240.21
eigval :     1399.82  3521.98  3525.25
 reduced masses (amu)
   1: 12.72   2: 12.39   3: 15.43   4: 14.29   5: 14.40   6: 13.60   7: 13.30   8:  3.42
   9:  1.87  10:  8.38  11:  5.53  12:  7.99  13: 11.03  14:  1.86  15:  1.86
 IR intensities (amu)
   1:  0.12   2:  0.09   3:  0.31   4:  0.22   5:  0.22   6:  0.34   7:  0.12   8:  0.00
   9:  0.53  10:  2.14  11:  0.13  12:  1.72  13:  0.68  14:  0.32  15:  0.17
 Raman intensities (amu)
   1:  0.00   2:  0.00   3:  0.00   4:  0.00   5:  0.00   6:  0.00   7:  0.00   8:  0.00
   9:  0.00  10:  0.00  11:  0.00  12:  0.00  13:  0.00  14:  0.00  15:  0.00
 output can be read by thermo (or use thermo option).
 writing <g98.out> molden fake output.
 recommended (thermochemical) frequency scaling factor: 1.0
           -------------------------------------------------
          |             Thermodynamic Functions             |
           -------------------------------------------------

c2v symmetry found (for desy threshold:  0.10E+00) used in thermo

          ...................................................
          :                      SETUP                      :
          :.................................................:
          :  # frequencies                           9      :
          :  # imaginary freq.                       0      :
          :  linear?                             false      :
          :  only rotor calc.                    false      :
          :  symmetry                              c2v      :
          :  rotational number                       2      :
          :  scaling factor                  1.0000000      :
          :  rotor cutoff                   50.0000000 cm⁻¹ :
          :  imag. cutoff                  -20.0000000 cm⁻¹ :
          :.................................................:

    mode    ω/cm⁻¹     T·S(HO)/kcal·mol⁻¹    T·S(FR)/kcal·mol⁻¹   T·S(vib)
   ------------------------------------------------------------------------
   ------------------------------------------------------------------------

   temp. (K)  partition function   enthalpy   heat capacity  entropy
                                   cal/mol     cal/K/mol   cal/K/mol   J/K/mol
 298.15  VIB   1.21                  348.705      3.939      1.545
         ROT  0.431E+04              888.752      2.981     19.613
         INT  0.521E+04             1237.457      6.919     21.158
         TR   0.302E+27             1481.254      4.968     37.388
         TOT                        2718.7112    11.8875    58.5459   244.9558

   temp. (K)  partition function   enthalpy   heat capacity  entropy
                                   cal/mol     cal/K/mol   cal/K/mol   J/K/mol
 120.00  VIB   1.00                    4.364      0.252      0.042
         ROT  0.110E+04              357.707      2.981     16.900
         INT  0.110E+04              362.071      3.233     16.942
         TR   0.771E+26              596.178      4.968     32.869
         TOT                         958.2492     8.2012    49.8106   208.4077

   temp. (K)  partition function   enthalpy   heat capacity  entropy
                                   cal/mol     cal/K/mol   cal/K/mol   J/K/mol
 100.00  VIB   1.00                    1.100      0.090      0.012
         ROT   838.                  298.089      2.981     16.357
         INT   838.                  299.189      3.071     16.369
         TR   0.587E+26              496.815      4.968     31.963
         TOT                         796.0040     8.0395    48.3324   202.2229

   temp. (K)  partition function   enthalpy   heat capacity  entropy
                                   cal/mol     cal/K/mol   cal/K/mol   J/K/mol
  80.00  VIB   1.00                    0.143      0.018      0.002
         ROT   600.                  238.471      2.981     15.692
         INT   600.                  238.614      2.999     15.694
         TR   0.420E+26              397.452      4.968     30.855
         TOT                         636.0658     7.9671    46.5488   194.7601

   temp. (K)  partition function   enthalpy   heat capacity  entropy
                                   cal/mol     cal/K/mol   cal/K/mol   J/K/mol
  60.00  VIB   1.00                    0.005      0.001     -0.000
         ROT   389.                  178.853      2.981     14.834
         INT   389.                  178.858      2.982     14.834
         TR   0.273E+26              298.089      4.968     29.427
         TOT                         476.9474     7.9501    44.2608   185.1871

   temp. (K)  partition function   enthalpy   heat capacity  entropy
                                   cal/mol     cal/K/mol   cal/K/mol   J/K/mol
  40.00  VIB   1.00                    0.000      0.000     -0.000
         ROT   212.                  119.236      2.981     13.625
         INT   212.                  119.236      2.981     13.625
         TR   0.148E+26              198.726      4.968     27.413
         TOT                         317.9616     7.9490    41.0385   171.7052

   temp. (K)  partition function   enthalpy   heat capacity  entropy
                                   cal/mol     cal/K/mol   cal/K/mol   J/K/mol
  20.00  VIB   1.00                    0.000      0.000     -0.000
         ROT   74.9                   59.618      2.981     11.559
         INT   74.9                   59.618      2.981     11.559
         TR   0.525E+25               99.363      4.968     23.971
         TOT                         158.9808     7.9490    35.5303   148.6586

   temp. (K)  partition function   enthalpy   heat capacity  entropy
                                   cal/mol     cal/K/mol   cal/K/mol   J/K/mol
  10.00  VIB   1.00                    0.000      0.000     -0.000
         ROT   26.5                   29.809      2.981      9.493
         INT   26.5                   29.809      2.981      9.493
         TR   0.186E+25               49.681      4.968     20.529
         TOT                          79.4904     7.9490    30.0220   125.6119

       T/K    H(0)-H(T)+PV         H(T)/Eh          T*S/Eh         G(T)/Eh
   ------------------------------------------------------------------------
    298.15    0.433254E-02    0.355253E-01    0.278170E-01    0.770825E-02
    120.00    0.152707E-02    0.327198E-01    0.952539E-02    0.231944E-01
    100.00    0.126851E-02    0.324612E-01    0.770227E-02    0.247590E-01
     80.00    0.101364E-02    0.322064E-01    0.593442E-02    0.262719E-01
     60.00    0.760064E-03    0.319528E-01    0.423204E-02    0.277208E-01
     40.00    0.506704E-03    0.316994E-01    0.261596E-02    0.290835E-01
     20.00    0.253352E-03    0.314461E-01    0.113242E-02    0.303137E-01
     10.00    0.126676E-03    0.313194E-01    0.478430E-03    0.308410E-01 (used)
   ------------------------------------------------------------------------

         :::::::::::::::::::::::::::::::::::::::::::::::::::::
         ::                  THERMODYNAMIC                  ::
         :::::::::::::::::::::::::::::::::::::::::::::::::::::
         :: total free energy         -11.166915636006 Eh   ::
         ::.................................................::
         :: total energy              -11.197756609992 Eh   ::
         :: zero point energy           0.031192728424 Eh   ::
         :: G(RRHO) w/o ZPVE           -0.000351754438 Eh   ::
         :: G(RRHO) contrib.            0.030840973986 Eh   ::
         :::::::::::::::::::::::::::::::::::::::::::::::::::::

optimized geometry written to: xtbopt.xyz


           -------------------------------------------------
          | TOTAL ENERGY              -11.197756609992 Eh   |
          | TOTAL ENTHALPY            -11.166437205552 Eh   |
          | TOTAL FREE ENERGY         -11.166915636006 Eh   |
          | GRADIENT NORM               0.000124353213 Eh/α |
          | HOMO-LUMO GAP               3.169775009839 eV   |
           -------------------------------------------------

------------------------------------------------------------------------
 * finished run on 2020/05/12 at 11:43:52.546     
------------------------------------------------------------------------
 total:
 * wall-time:     0 d,  0 h,  0 min,  0.089 sec
 *  cpu-time:     0 d,  0 h,  0 min,  0.086 sec
 * ratio c/w:     0.972 speedup
 SCF:
 * wall-time:     0 d,  0 h,  0 min,  0.003 sec
 *  cpu-time:     0 d,  0 h,  0 min,  0.003 sec
 * ratio c/w:     1.000 speedup
 ANC optimizer:
 * wall-time:     0 d,  0 h,  0 min,  0.015 sec
 *  cpu-time:     0 d,  0 h,  0 min,  0.015 sec
 * ratio c/w:     0.999 speedup
 numerical hessian:
 * wall-time:     0 d,  0 h,  0 min,  0.051 sec
 *  cpu-time:     0 d,  0 h,  0 min,  0.051 sec
 * ratio c/w:     0.998 speedup

