[Molden Format]
[Title]
[Atoms] AU
C      1     6  0.18820165562691E+00  0.15866065926097E+00 -0.76708526181423E+00
O      2     8  0.17664017244829E+01 -0.64638820673696E+00  0.10439994384088E+01
O      3     8 -0.20975346124091E+01  0.36723010083683E+00  0.30564743926845E+00
H      4     1  0.34442194382024E+01 -0.82452110816781E+00  0.35321202164762E+00
H      5     1 -0.33012900956390E+01  0.94501666509092E+00 -0.93577363750079E+00
[GTO]
           1 0
 s           4   1.0000000000000000     
   51.049363095579913      -0.16312063210127389     
   8.7911227406887544      -0.19911024581000730     
  0.70640422258929825       0.31882047753655751     
  0.26922813413411617       0.12706504184240380     
 p           4   1.0000000000000000     
   5.8263656140800002       0.73716451545209605     
   1.5106896018720002       0.68216371614850257     
  0.53256483288000001       0.35783053929253711     
  0.21202323690600003        5.3983030275847881E-002

           2 0
 s           4   1.0000000000000000     
   69.137961906196551      -0.20478756370077797     
   11.906129132707308      -0.24997023136827334     
  0.95670827744340703       0.40025880240639616     
  0.36462520496073686       0.15952206667693555     
 p           4   1.0000000000000000     
   8.2124193257781641        1.1321556799186829     
   2.1293576997098116        1.0476840782254817     
  0.75066448202360914       0.54956508217158984     
  0.29885246543283073        8.2908486592766617E-002

           3 0
 s           4   1.0000000000000000     
   69.137961906196551      -0.20478756370077797     
   11.906129132707308      -0.24997023136827334     
  0.95670827744340703       0.40025880240639616     
  0.36462520496073686       0.15952206667693555     
 p           4   1.0000000000000000     
   8.2124193257781641        1.1321556799186829     
   2.1293576997098116        1.0476840782254817     
  0.75066448202360914       0.54956508217158984     
  0.29885246543283073        8.2908486592766617E-002

           4 0
 s           3   1.0000000000000000     
   3.3702276975336001       0.27359110588908298     
  0.61389118221497996       0.26460540653860526     
  0.16614291148415999        8.2465947534082318E-002

           5 0
 s           3   1.0000000000000000     
   3.3702276975336001       0.27359110588908298     
  0.61389118221497996       0.26460540653860526     
  0.16614291148415999        8.2465947534082318E-002

[MO]
Sym=     1a
Ene=  -0.72541523360210414     
Spin= Alpha
Occup=     2.00000000
           1  0.31672120813719673     
           2  -3.0719688200360869E-002
           3  -2.5897849326592250E-002
           4  0.12520916037963500     
           5  0.49509399471452714     
           6  -9.6961544576080277E-002
           7   4.4606106446661950E-002
           8  -9.2530016224421835E-002
           9  0.49509393371856136     
          10  0.13164762232060470     
          11  -1.5364433311924846E-002
          12  -4.8845528248159978E-002
          13   7.1398959580157906E-002
          14   7.1398946902719307E-002
Sym=     2a
Ene=  -0.71191215536851671     
Spin= Alpha
Occup=     2.00000000
           1  -1.6322110095784740E-008
           2  0.20038031120600258     
           3  -5.2565360307778614E-002
           4   3.8290270695430451E-002
           5  0.54863947410076630     
           6   6.0571891764357635E-002
           7   5.0657228168622609E-003
           8  -6.9317914234360387E-002
           9 -0.54863952961416529     
          10   2.2656012418805833E-002
          11  -2.6898811391166559E-002
          12   8.5221764213245968E-002
          13  0.13783763888382486     
          14 -0.13783764836443185     
Sym=     3a
Ene=  -0.64494331097759305     
Spin= Alpha
Occup=     2.00000000
           1 -0.28294742635150300     
           2   2.8974519986372366E-002
           3   2.4426643798533879E-002
           4 -0.11809598313930902     
           5  0.22091573066486866     
           6  0.41601419464987188     
           7 -0.11063316875642720     
           8   8.5289667497600002E-002
           9  0.22091572744474675     
          10 -0.41873005104950478     
          11  0.10834379175822087     
          12  -7.4219916496712710E-002
          13  0.24061106247155736     
          14  0.24061105580704170     
Sym=     4a
Ene=  -0.57920456912752094     
Spin= Alpha
Occup=     2.00000000
           1 -0.38918343756816148     
           2  -5.1976579722929420E-002
           3  -4.3818348783565803E-002
           4  0.21184893467595065     
           5  0.27883825541644230     
           6 -0.17933837777381861     
           7  -7.9485254577468703E-002
           8  0.45416562925102039     
           9  0.27883823187296197     
          10  -4.9600670477934310E-002
          11 -0.11351937311228714     
          12  0.47895684700838387     
          13 -0.13657336180310728     
          14 -0.13657334855782949     
Sym=     5a
Ene=  -0.55834495185200672     
Spin= Alpha
Occup=     2.00000000
           1   8.4084919809467809E-009
           2 -0.38517939889963576     
           3  0.10104249109286798     
           4  -7.3603344198946111E-002
           5   5.8262710466621487E-002
           6  0.36451725122183448     
           7 -0.16687484414881307     
           8  0.34469821377829180     
           9  -5.8262714823601805E-002
          10  0.49343537441211244     
          11  -5.8192369685481249E-002
          12 -0.18075421903016356     
          13  0.19401812210521877     
          14 -0.19401811986131209     
Sym=     6a
Ene=  -0.54505443169430290     
Spin= Alpha
Occup=     2.00000000
           1   1.7173562343487347E-007
           2  -8.6615146591964551E-002
           3 -0.40699179934548357     
           4 -0.10543184700023830     
           5  -1.1639354881260132E-005
           6 -0.11467471583570366     
           7 -0.53886877602128025     
           8 -0.13961072752823386     
           9   1.1629000518279081E-005
          10 -0.11468285471028998     
          11 -0.53887519045274213     
          12 -0.13957918779187642     
          13   7.7425071678969734E-006
          14  -7.6873134029695963E-006
Sym=     7a
Ene=  -0.54390032841227243     
Spin= Alpha
Occup=     2.00000000
           1   1.2061520858737015E-008
           2  -7.0631297687273609E-002
           3   1.8514448762835728E-002
           4  -1.3499725574340435E-002
           5  0.34926793122740396     
           6 -0.35129671760354769     
           7  -3.5212112112370138E-002
           8  0.42445842727669841     
           9 -0.34926795388198362     
          10 -0.12087843121097931     
          11  0.15903967639481936     
          12 -0.51469316764621087     
          13 -0.24550846669693144     
          14  0.24550847780436055     
Sym=     8a
Ene=  -0.47713459151972104     
Spin= Alpha
Occup=     2.00000000
           1   1.1990071174221682E-007
           2   1.1333276231946246E-007
           3   1.6807173202181151E-008
           4  -1.8839175781009509E-007
           5   2.1375469383869480E-007
           6  0.14368365629606022     
           7  0.67512359046257342     
           8  0.17489283155686308     
           9   7.1818712914258952E-008
          10 -0.14368434137446207     
          11 -0.67512334375963212     
          12 -0.17489329373101539     
          13  -1.8542369358543956E-007
          14  -3.8984869066121902E-008
Sym=     9a
Ene=  -0.36615988839511443     
Spin= Alpha
Occup=     2.00000000
           1  0.58433050859276725     
           2  0.16215489523362389     
           3  0.13670272189252902     
           4 -0.66092027665693287     
           5   8.1879385458693402E-002
           6  -2.4237089515186053E-002
           7  -9.1432653784414841E-002
           8  0.37286117014891568     
           9   8.1879386462631334E-002
          10 -0.15270096888124329     
          11  -5.7732730979765431E-002
          12  0.34831331669024801     
          13  -8.9264204552731402E-002
          14  -8.9264204550279266E-002
Sym=    10a
Ene=  -0.24967280021439092     
Spin= Alpha
Occup=     0.00000000
           1   7.1361944590162393E-008
           2 -0.18846225430039876     
           3 -0.88552285643786799     
           4 -0.22939737975699642     
           5  -3.2093738557252433E-008
           6   8.9797922794529583E-002
           7  0.42193087655844819     
           8  0.10930250798945895     
           9  -1.7114375951040325E-007
          10   8.9798068389339972E-002
          11  0.42193078985090854     
          12  0.10930272329737832     
          13   7.0377271198432404E-009
          14   2.7817838188606091E-007
Sym=    11a
Ene=    6.5748785807169002E-002
Spin= Alpha
Occup=     0.00000000
           1  0.31000194695708705     
           2  -7.7358404273024428E-002
           3  -6.5215927149927161E-002
           4  0.31530199727899294     
           5 -0.58674320763952792     
           6 -0.26209238343787605     
           7  -3.6848388298770809E-002
           8  0.35756587604424395     
           9 -0.58674320177019368     
          10   7.1019494142591982E-002
          11 -0.12423367204115260     
          12  0.42121941512886274     
          13  0.74672522767952598     
          14  0.74672520782152241     
Sym=    12a
Ene=   0.15148859663333666     
Spin= Alpha
Occup=     0.00000000
           1   7.1756229802952349E-009
           2 -0.37104777512450132     
           3   9.7336285864735972E-002
           4  -7.0902760719162072E-002
           5  0.52076435982733393     
           6  0.44784938683151543     
           7   3.3885447170333934E-004
           8 -0.36924078045580655     
           9 -0.52076436996894382     
          10  0.23466664402957035     
          11 -0.17938258550135081     
          12  0.49966128449387059     
          13 -0.74628825158615197     
          14  0.74628825972039103     
Sym=    13a
Ene=   0.20161450330973643     
Spin= Alpha
Occup=     0.00000000
           1  -4.5476313292543950E-009
           2  0.99735343880145677     
           3 -0.26163358156157956     
           4  0.19058231383625471     
           5 -0.21775882610093852     
           6  0.46288521475994632     
           7 -0.19549401029270058     
           8  0.37436345681501665     
           9  0.21775881724444454     
          10  0.59689747209644073     
          11  -8.2516897266255176E-002
          12 -0.17185172867693632     
          13 -0.36185502873266473     
          14  0.36185505375739097     
Sym=    14a
Ene=   0.30748874813750632     
Spin= Alpha
Occup=     0.00000000
           1  0.79908174286643618     
           2 -0.18114389902255182     
           3 -0.15271111384683730     
           4  0.73831692330831400     
           5 -0.17914567862856634     
           6  0.62261942077443833     
           7 -0.19043930764594391     
           8  0.22362102166940204     
           9 -0.17914566575802990     
          10 -0.67166890609289920     
          11  0.14908895441149494     
          12  -2.3701938703875228E-002
          13 -0.37722772728318243     
          14 -0.37722772792689935     
