 Entering Gaussian System
 *********************************************
 Gaussian 98:
 frequency output generated by the xtb code
 *********************************************
                         Standard orientation:
 --------------------------------------------------------------------
  Center     Atomic     Atomic              Coordinates (Angstroms)
  Number     Number      Type              X           Y           Z
 --------------------------------------------------------------------
    1          6             0        1.257790   -0.000859   -0.007261
    2          6             0        0.191876    0.902871    0.028386
    3          6             0       -0.823426    0.180492   -0.710806
    4          6             0       -0.816653   -0.179390    0.719227
    5          6             0        0.190414   -0.903114   -0.029546
 --------------------------------------------------------------------
     1 basis functions        1 primitive gaussians
     1 alpha electrons        1 beta electrons

 Harmonic frequencies (cm**-1), IR intensities (KM/Mole),
 Raman scattering activities (A**4/amu), Raman depolarization ratios,
 reduced masses (AMU), force constants (mDyne/A) and normal coordinates:
                      1                      2                      3
                        a                      a                      a 
 Frequencies --  -218.5914               488.1314               574.8655
 Red. masses --    12.0107                12.0107                12.0107
 Frc consts  --     0.0000                 0.0000                 0.0000
 IR Inten    --     0.4945                 0.1966                 0.9487
 Raman Activ --     0.0000                 0.0000                 0.0000
 Depolar     --     0.0000                 0.0000                 0.0000
 Atom AN      X      Y      Z        X      Y      Z        X      Y      Z
   1   6    -0.00  -0.02  -0.62    -0.20   0.00   0.00     0.00   0.03   0.10
   2   6    -0.06   0.01   0.47    -0.24   0.04   0.34    -0.23  -0.31   0.18
   3   6     0.24   0.01  -0.16     0.35  -0.38  -0.20    -0.41   0.30  -0.23
   4   6    -0.24   0.00  -0.15     0.34   0.38   0.19     0.41   0.30  -0.23
   5   6     0.07   0.01   0.47    -0.25  -0.04  -0.34     0.23  -0.31   0.17
                      4                      5                      6
                        a                      a                      a 
 Frequencies --   734.5248               859.8182               953.4127
 Red. masses --    12.0107                12.0107                12.0107
 Frc consts  --     0.0000                 0.0000                 0.0000
 IR Inten    --     0.0013                 0.2074                 1.0878
 Raman Activ --     0.0000                 0.0000                 0.0000
 Depolar     --     0.0000                 0.0000                 0.0000
 Atom AN      X      Y      Z        X      Y      Z        X      Y      Z
   1   6     0.49  -0.00  -0.00    -0.00   0.00  -0.00    -0.00   0.66  -0.03
   2   6    -0.04  -0.53   0.14     0.25   0.15   0.22     0.44  -0.28   0.05
   3   6    -0.20  -0.16  -0.11    -0.24  -0.37   0.41    -0.00  -0.05  -0.03
   4   6    -0.20   0.16   0.12    -0.25   0.37  -0.41     0.00  -0.05  -0.03
   5   6    -0.04   0.53  -0.13     0.24  -0.16  -0.22    -0.44  -0.28   0.05
                      7                      8                      9
                        a                      a                      a 
 Frequencies --  1047.6395              1360.8396              1407.1099
 Red. masses --    12.0107                12.0107                12.0107
 Frc consts  --     0.0000                 0.0000                 0.0000
 IR Inten    --     1.5594                 0.8927                 0.4036
 Raman Activ --     0.0000                 0.0000                 0.0000
 Depolar     --     0.0000                 0.0000                 0.0000
 Atom AN      X      Y      Z        X      Y      Z        X      Y      Z
   1   6     0.00  -0.16   0.07     0.31   0.00  -0.00    -0.65   0.00   0.00
   2   6     0.27   0.34   0.20    -0.39  -0.05  -0.12     0.16  -0.44  -0.06
   3   6    -0.38  -0.26  -0.23     0.24   0.03   0.48     0.16   0.01   0.20
   4   6     0.37  -0.26  -0.24     0.23  -0.03  -0.48     0.16  -0.01  -0.20
   5   6    -0.27   0.34   0.20    -0.39   0.05   0.12     0.16   0.44   0.06
