5
 energy: -10.118575870496 gnorm: 0.146747087237 xtb: 6.2.2 (9d81278992624c895f80dd42a50cac0aa55982e2)
C         1.46811800000000   -0.00099000000000   -0.00779200000000
C         0.16415500000000    0.75589500000000    0.09662900000000
C        -0.90112500000000    0.09785000000000   -0.74922000000000
C        -0.89324800000000   -0.09664600000000    0.75874900000000
C         0.16210000000000   -0.75610900000000   -0.09836600000000
5
 energy: -10.137649953925 gnorm: 0.097997012141 xtb: 6.2.2 (9d81278992624c895f80dd42a50cac0aa55982e2)
C         1.40785870911708   -0.00094916272847   -0.00747264441150
C         0.18601885828693    0.78464702537253    0.10021938464622
C        -0.89271196678131    0.09516921623089   -0.72848782826266
C        -0.88505223536632   -0.09397560003082    0.73792840298014
C         0.18388663474362   -0.78489147884413   -0.10218731495220
5
 energy: -10.159331566239 gnorm: 0.115997760341 xtb: 6.2.2 (9d81278992624c895f80dd42a50cac0aa55982e2)
C         1.24053292237089   -0.00083559215224   -0.00658490953912
C         0.21703966356326    0.86854215169359    0.11082676137172
C        -0.83978057511812    0.09082334438185   -0.69493957413453
C        -0.83247382510605   -0.08969841947968    0.70381944664494
C         0.21468181429001   -0.86883148444352   -0.11312172434300
5
 energy: -10.165967404853 gnorm: 0.060698975707 xtb: 6.2.2 (9d81278992624c895f80dd42a50cac0aa55982e2)
C         1.24178859969232   -0.00083595803595   -0.00659156647532
C         0.20133862691350    0.88836566410666    0.11337789489496
C        -0.82474677028218    0.09252641062371   -0.70761796879146
C        -0.81730828035084   -0.09142108092138    0.71633723480927
C         0.19892782402721   -0.88863503577304   -0.11550559443745
5
 energy: -10.169445015514 gnorm: 0.019489888562 xtb: 6.2.2 (9d81278992624c895f80dd42a50cac0aa55982e2)
C         1.23344772280557   -0.00082474179151   -0.00654453406070
C         0.17868323642290    0.90978761875699    0.11593740181175
C        -0.79798025976792    0.09493271224699   -0.72403387311814
C        -0.79036591496473   -0.09385759409916    0.73246653454993
C         0.17621521550418   -0.91003799511331   -0.11782552918283
5
 energy: -10.169831312591 gnorm: 0.011686989925 xtb: 6.2.2 (9d81278992624c895f80dd42a50cac0aa55982e2)
C         1.24362859328597   -0.00082940590830   -0.00660015596998
C         0.16916048734716    0.90518994505088    0.11503385342403
C        -0.79358704142449    0.09613137556681   -0.73056267435788
C        -0.78591053680615   -0.09506014328756    0.73895010515026
C         0.16670849759751   -0.90543177142182   -0.11682112824643
5
 energy: -10.169929585244 gnorm: 0.005151543845 xtb: 6.2.2 (9d81278992624c895f80dd42a50cac0aa55982e2)
C         1.23846950370292   -0.00082845883973   -0.00657376340551
C         0.16551548791910    0.90515763568907    0.11450346068918
C        -0.78737709694843    0.09698139727465   -0.73298919283343
C        -0.77967856166931   -0.09592091011505    0.74131103082532
C         0.16307066699573   -0.90538966400894   -0.11625153527555
5
 energy: -10.169951459232 gnorm: 0.002272748071 xtb: 6.2.2 (9d81278992624c895f80dd42a50cac0aa55982e2)
C         1.23858953698892   -0.00083419099917   -0.00657512766347
C         0.16526144335067    0.90270558975102    0.11343700710019
C        -0.78719188815898    0.09776030864405   -0.73321062619328
C        -0.77949234103134   -0.09670564902867    0.74152997005823
C         0.16283324885073   -0.90292605836723   -0.11518122330167
5
 energy: -10.169966862162 gnorm: 0.003807395748 xtb: 6.2.2 (9d81278992624c895f80dd42a50cac0aa55982e2)
C         1.23859397990277   -0.00083507374768   -0.00657533798078
C         0.16546921605431    0.90130592092912    0.11164797439226
C        -0.78740981199418    0.09934151615117   -0.73297685829477
C        -0.77971511173514   -0.09828779026290    0.74129847054037
C         0.16306172777224   -0.90152457306971   -0.11339424865708
5
 energy: -10.127463630533 gnorm: 0.314032558226 xtb: 6.2.2 (9d81278992624c895f80dd42a50cac0aa55982e2)
C         1.23890489848238   -0.00091320435573   -0.00659122164291
C         0.18126620433954    0.79167210140356   -0.04343282211569
C        -0.80404785269928    0.23799041160933   -0.71319588588943
C        -0.79676444266620   -0.23701984057137    0.72168858573900
C         0.18064119254356   -0.79172946808579    0.04153134390903
5
 energy: -10.169967071526 gnorm: 0.058252641810 xtb: 6.2.2 (9d81278992624c895f80dd42a50cac0aa55982e2)
C         1.25746147526436   -0.00086086000312   -0.00670217977769
C         0.18123274510265    0.86396229167788    0.06624342289472
C        -0.81277681749406    0.13888683115065   -0.72443234839374
C        -0.80526741740941   -0.13782406304760    0.73302123217534
C         0.17935001453646   -0.86416419977780   -0.06813012689863
5
 energy: -10.170545214102 gnorm: 0.049068657402 xtb: 6.2.2 (9d81278992624c895f80dd42a50cac0aa55982e2)
C         1.24761886235796   -0.00085184167294   -0.00665533458648
C         0.17674533357311    0.87499610316096    0.07282493726491
C        -0.80333136388108    0.13386864607923   -0.72550379804893
C        -0.79581222705396   -0.13281541918320    0.73399136823615
C         0.17477939500397   -0.87519748838406   -0.07465717286565
5
 energy: -10.171007935849 gnorm: 0.036571389018 xtb: 6.2.2 (9d81278992624c895f80dd42a50cac0aa55982e2)
C         1.24156163617056   -0.00083286144878   -0.00663971522055
C         0.17270823886033    0.88651930218164    0.07822056274955
C        -0.79622060874943    0.12999764423754   -0.72563889037288
C        -0.78871507134351   -0.12894026177609    0.73404438014452
C         0.17066580506206   -0.88674382319432   -0.07998633730064
5
 energy: -10.171432508672 gnorm: 0.028651414061 xtb: 6.2.2 (9d81278992624c895f80dd42a50cac0aa55982e2)
C         1.24036136126265   -0.00082702285434   -0.00665613173306
C         0.17260454482506    0.89364378468485    0.07769002546023
C        -0.79549640693954    0.13125993005602   -0.72399836214272
C        -0.78802718424261   -0.13019934056212    0.73238038274055
C         0.17055768509444   -0.89387735132441   -0.07941591432500
5
 energy: -10.172698913811 gnorm: 0.017378225603 xtb: 6.2.2 (9d81278992624c895f80dd42a50cac0aa55982e2)
C         1.24341707816033   -0.00083010878410   -0.00677488913412
C         0.17764115814573    0.90703281149250    0.06392383568685
C        -0.80203664035878    0.14594922171003   -0.71699807048770
C        -0.79475150591288   -0.14488436843143    0.72538896668775
C         0.17572990996561   -0.90726755598701   -0.06553984275279
5
 energy: -10.173739155073 gnorm: 0.015848971676 xtb: 6.2.2 (9d81278992624c895f80dd42a50cac0aa55982e2)
C         1.25360210467690   -0.00082248447984   -0.00703245369901
C         0.18952784696685    0.91567797976865    0.03155730152094
C        -0.81900391779596    0.17826718034077   -0.70643508852325
C        -0.81209293275632   -0.17716924290392    0.71491498987314
C         0.18796689890853   -0.91595343272566   -0.03300474917182
5
 energy: -10.173940151723 gnorm: 0.007626817759 xtb: 6.2.2 (9d81278992624c895f80dd42a50cac0aa55982e2)
C         1.25554599902069   -0.00084002742120   -0.00705105711413
C         0.19063354415148    0.90903255234957    0.03040299769394
C        -0.82111362650966    0.17885916848156   -0.70871148974886
C        -0.81417522472678   -0.17776703169709    0.71720204383261
C         0.18910930806427   -0.90928466171284   -0.03184249466357
5
 energy: -10.174003445565 gnorm: 0.000178997031 xtb: 6.2.2 (9d81278992624c895f80dd42a50cac0aa55982e2)
C         1.25786105725086   -0.00085415741354   -0.00714732158064
C         0.19208092524119    0.90285125053028    0.02799619356638
C        -0.82371856207402    0.18077040935695   -0.71059176563399
C        -0.81684136556182   -0.17967834126427    0.71906524689905
C         0.19061794514378   -0.90308916120942   -0.02932235325080
5
 energy: -10.174003495869 gnorm: 0.000102210957 xtb: 6.2.2 (9d81278992624c895f80dd42a50cac0aa55982e2)
C         1.25778988204378   -0.00085234701198   -0.00725690576698
C         0.19187078810145    0.90287203875260    0.02838866697446
C        -0.82342430480362    0.18048896715653   -0.71080835587850
C        -0.81665477608675   -0.17939522615149    0.71922347335518
C         0.19041841074514   -0.90311343274566   -0.02954687868416
