[Molden Format]
[Title]
[Atoms] AU
C      1     6  0.23768781225114E+01 -0.16231715057867E-02 -0.13721857198177E-01
C      2     6  0.36259232797435E+00  0.17061789156488E+01  0.53642557145901E-01
C      3     6 -0.15560491789578E+01  0.34108048787232E+00 -0.13432281587321E+01
C      4     6 -0.15432507527073E+01 -0.33899736146207E+00  0.13591412395846E+01
C      5     6  0.35982948117927E+00 -0.17066388705533E+01 -0.55833780800188E-01
[GTO]
           1 0
 s           4   1.0000000000000000     
   51.049363095579913      -0.16312063210127389     
   8.7911227406887544      -0.19911024581000730     
  0.70640422258929825       0.31882047753655751     
  0.26922813413411617       0.12706504184240380     
 p           4   1.0000000000000000     
   5.8263656140800002       0.73716451545209605     
   1.5106896018720002       0.68216371614850257     
  0.53256483288000001       0.35783053929253711     
  0.21202323690600003        5.3983030275847881E-002

           2 0
 s           4   1.0000000000000000     
   51.049363095579913      -0.16312063210127389     
   8.7911227406887544      -0.19911024581000730     
  0.70640422258929825       0.31882047753655751     
  0.26922813413411617       0.12706504184240380     
 p           4   1.0000000000000000     
   5.8263656140800002       0.73716451545209605     
   1.5106896018720002       0.68216371614850257     
  0.53256483288000001       0.35783053929253711     
  0.21202323690600003        5.3983030275847881E-002

           3 0
 s           4   1.0000000000000000     
   51.049363095579913      -0.16312063210127389     
   8.7911227406887544      -0.19911024581000730     
  0.70640422258929825       0.31882047753655751     
  0.26922813413411617       0.12706504184240380     
 p           4   1.0000000000000000     
   5.8263656140800002       0.73716451545209605     
   1.5106896018720002       0.68216371614850257     
  0.53256483288000001       0.35783053929253711     
  0.21202323690600003        5.3983030275847881E-002

           4 0
 s           4   1.0000000000000000     
   51.049363095579913      -0.16312063210127389     
   8.7911227406887544      -0.19911024581000730     
  0.70640422258929825       0.31882047753655751     
  0.26922813413411617       0.12706504184240380     
 p           4   1.0000000000000000     
   5.8263656140800002       0.73716451545209605     
   1.5106896018720002       0.68216371614850257     
  0.53256483288000001       0.35783053929253711     
  0.21202323690600003        5.3983030275847881E-002

           5 0
 s           4   1.0000000000000000     
   51.049363095579913      -0.16312063210127389     
   8.7911227406887544      -0.19911024581000730     
  0.70640422258929825       0.31882047753655751     
  0.26922813413411617       0.12706504184240380     
 p           4   1.0000000000000000     
   5.8263656140800002       0.73716451545209605     
   1.5106896018720002       0.68216371614850257     
  0.53256483288000001       0.35783053929253711     
  0.21202323690600003        5.3983030275847881E-002

[MO]
Sym=     1a
Ene=  -0.75584598178041296     
Spin= Alpha
Occup=     2.00000000
           1  0.23106592704926798     
           2 -0.12837251603243646     
           3   7.8768978390419600E-005
           4   7.5592745950843986E-004
           5  0.28595038211778828     
           6  -2.5907264438639006E-002
           7 -0.14115887887857495     
           8  -9.9845812740460647E-003
           9  0.25331299802900686     
          10   8.7216405758227117E-002
          11  -1.7795965258021209E-002
          12   9.8008120952753588E-002
          13  0.25327522142329045     
          14   8.6275558199358421E-002
          15   1.7671050521095556E-002
          16  -9.8883128442771959E-002
          17  0.28600548381620750     
          18  -2.5625823823191521E-002
          19  0.14122438972896525     
          20   1.0114833186065597E-002
Sym=     2a
Ene=  -0.67017271571462655     
Spin= Alpha
Occup=     2.00000000
           1  0.47270897830159192     
           2  -7.4163077405340547E-002
           3   3.9573632065606403E-006
           4   5.2252271143545979E-004
           5   8.9830286018692612E-002
           6  0.27397976957012948     
           7  -4.5951483409415177E-002
           8   3.3584744459099996E-003
           9 -0.29563329893963552     
          10   6.8633765975629035E-002
          11   1.7823581308202906E-002
          12 -0.11707327106060388     
          13 -0.29592281677246579     
          14   6.9602276779596545E-002
          15  -1.7886630920756659E-002
          16  0.11630840157054936     
          17   8.9862001413238343E-002
          18  0.27410796923658970     
          19   4.5613656433816527E-002
          20  -6.4883043557571801E-003
Sym=     3a
Ene=  -0.63270416265318075     
Spin= Alpha
Occup=     2.00000000
           1   1.5661389865734630E-005
           2  -1.8122480732532339E-004
           3  0.24908220644726720     
           4  -5.9663791921769224E-002
           5  0.44049138387915437     
           6  -3.3202952712649010E-002
           7   8.0254399752270236E-002
           8 -0.11258842702601465     
           9  0.19005165722749809     
          10   6.6315491785941136E-002
          11  0.23752589889229039     
          12  -1.3797993490255761E-002
          13 -0.18987748802306181     
          14  -6.6234778848851664E-002
          15  0.23766316342783025     
          16  -1.3217806833150150E-002
          17 -0.44069021717855578     
          18   3.2100556779256419E-002
          19   8.0196099212315700E-002
          20 -0.11276620817582340     
Sym=     4a
Ene=  -0.60157019102803699     
Spin= Alpha
Occup=     2.00000000
           1   1.3284874299915442E-004
           2  -1.4378314009299746E-003
           3 -0.15954894099183733     
           4 -0.23201411669915259     
           5 -0.19437675965965401     
           6  -4.7049387134866553E-002
           7  -3.1259450581114449E-002
           8 -0.31979432721675438     
           9  0.35478693647537868     
          10   9.3282009713691438E-002
          11  -7.7369230954708074E-002
          12 -0.17019923150542224     
          13 -0.35435259397851948     
          14  -9.5464625837748868E-002
          15  -7.7140598106613764E-002
          16 -0.16947799534506508     
          17  0.19383342542729670     
          18   4.3537730327959927E-002
          19  -3.1540613904470355E-002
          20 -0.32050120123981640     
Sym=     5a
Ene=  -0.55325358380588463     
Spin= Alpha
Occup=     2.00000000
           1  -7.9022549822256545E-007
           2  -8.4615959526854350E-005
           3  0.44053247979095406     
           4  -5.6493281735226615E-002
           5   5.5449189237639321E-002
           6  0.38581259415733310     
           7   7.6098800951722211E-003
           8  -6.4702872410746695E-002
           9  -1.2634522481764249E-002
          10   2.9605478604066534E-002
          11 -0.28023059653006505     
          12  -7.1512068149411898E-002
          13   1.2549239197817462E-002
          14  -3.0414073694578873E-002
          15 -0.28064830579450689     
          16  -7.1047549675169588E-002
          17  -5.5431127006354497E-002
          18 -0.38652161621300141     
          19   8.0397626865575614E-003
          20  -6.0180323618754687E-002
Sym=     6a
Ene=  -0.52400748051999013     
Spin= Alpha
Occup=     2.00000000
           1  0.48874151934880145     
           2  0.28876601194357016     
           3  -8.8391861833736766E-006
           4  -1.4026330787791259E-003
           5 -0.21359046185680075     
           6  0.11310215691464652     
           7  -7.3385312238514480E-002
           8   8.4282872549751697E-002
           9  0.22336452176875093     
          10 -0.36441134877388986     
          11 -0.11617345937194473     
          12  0.11263764243282258     
          13  0.22405764764848476     
          14 -0.36543424322332496     
          15  0.11640135771689603     
          16 -0.10877450825404684     
          17 -0.21379001102445633     
          18  0.11198639844499018     
          19   7.3298672277655380E-002
          20  -8.5319942286144104E-002
Sym=     7a
Ene=  -0.48144074408453358     
Spin= Alpha
Occup=     2.00000000
           1 -0.19841921804109824     
           2 -0.21180510593868115     
           3   1.6908014674600790E-004
           4   1.1338070780059163E-003
           5 -0.26850881450830971     
           6  -1.1441020221568692E-002
           7 -0.37894573669145648     
           8  0.26090037533859883     
           9 -0.15571119829618058     
          10  0.10846470725260346     
          11 -0.28651446550704646     
          12   7.4299781933611808E-002
          13 -0.15561386270809888     
          14  0.10804296369116535     
          15  0.28601273448194303     
          16  -7.5441457327256739E-002
          17 -0.26885141730074258     
          18  -1.3953027409401670E-002
          19  0.37920831931046017     
          20 -0.26080732682095631     
Sym=     8a
Ene=  -0.46940771926024782     
Spin= Alpha
Occup=     2.00000000
           1  -5.3062703088667168E-004
           2   2.5154962536965376E-003
           3   2.1485683610235978E-002
           4  0.49845981356060021     
           5  -3.6163758847333068E-003
           6   2.4779444204682605E-002
           7  -1.0782543605283351E-003
           8  0.20422597583634994     
           9  0.42841207265677034     
          10 -0.25685789956790894     
          11  -1.3588575294745244E-002
          12 -0.26592708405190757     
          13 -0.42833676869799542     
          14  0.25338357231549236     
          15  -1.3670679800278269E-002
          16 -0.26889398187137992     
          17   4.1281207474476445E-003
          18  -2.1970964968164704E-002
          19  -1.2095280362078031E-003
          20  0.20424325128531928     
Sym=     9a
Ene=  -0.46159816866104264     
Spin= Alpha
Occup=     1.99999999
           1   6.7500870665809926E-002
           2   3.4236688064890053E-002
           3  -5.5865914578764596E-006
           4  -3.5567496513855421E-005
           5 -0.32609803708367013     
           6  -2.9216591484393081E-002
           7 -0.32716065676480782     
           8 -0.32559108920848207     
           9  0.19938897253126317     
          10   7.9447161440154582E-002
          11  0.19944775161951489     
          12 -0.27662767072989597     
          13  0.19873720206945450     
          14   8.2389655964847902E-002
          15 -0.19916692118728119     
          16  0.27555469780642022     
          17 -0.32552853849848429     
          18  -2.5059606663619238E-002
          19  0.32693226379471513     
          20  0.32624560837554262     
Sym=    10a
Ene=  -0.42563552485252160     
Spin= Alpha
Occup=     1.00000001
           1 -0.26201945689719408     
           2 -0.47715825331068379     
           3   2.2338626076347232E-004
           4   2.7016788231770876E-003
           5   9.9688041469347677E-002
           6  0.16706969392803267     
           7   6.1657420205628151E-002
           8  0.15713606337015837     
           9  0.28128412463965302     
          10 -0.24140345344361971     
          11  -8.3773354736916869E-002
          12 -0.38692480873506663     
          13  0.28186787332479041     
          14 -0.23821596613169801     
          15   8.3830884896139768E-002
          16  0.38964259277705193     
          17   9.9381422498107982E-002
          18  0.16522937410175248     
          19  -6.1644159620160018E-002
          20 -0.15909292621616589     
Sym=    11a
Ene=  -0.40415990531120488     
Spin= Alpha
Occup=     1.00000000
           1  0.22578495360527012     
           2  0.49204674876364429     
           3  -4.5955955556851687E-004
           4  -3.6059754734179971E-003
           5   5.2091624955853413E-002
           6 -0.17903009925601676     
           7   7.8394098457434919E-002
           8  0.27282813824406715     
           9  0.14582018712233377     
          10  0.27651126644720425     
          11 -0.17569590616321940     
          12 -0.35179051642398801     
          13  0.14498604931007869     
          14  0.28160633022864917     
          15  0.17510276085258783     
          16  0.34829372707497480     
          17   5.1553041674794464E-002
          18 -0.18215830069398170     
          19  -7.7582598636638453E-002
          20 -0.27004280462388636     
Sym=    12a
Ene=  -0.34279786118671035     
Spin= Alpha
Occup=     0.00000000
           1   2.7049497021928613E-005
           2   9.6246166740214084E-005
           3 -0.38484157767616473     
           4   5.8326629619594034E-002
           5  0.23769775892530831     
           6  -3.5772855088583411E-002
           7  0.60453269604416882     
           8   1.9170249210893196E-002
           9  -3.4984889122227365E-002
          10   7.8339170045969006E-002
          11 -0.28291059163963966     
          12  -5.3723251529863611E-002
          13   3.4908176199196339E-002
          14  -7.9270174117989672E-002
          15 -0.28385345689101904     
          16  -5.3239890666312427E-002
          17 -0.23791502004658269     
          18   3.6670489972630012E-002
          19  0.60470790590614643     
          20   1.9276050825464301E-002
Sym=    13a
Ene=  -0.33521992752457314     
Spin= Alpha
Occup=     0.00000000
           1   7.8130907290207976E-006
           2  -5.5324124569680905E-003
           3   9.4241712602713794E-003
           4 -0.79171603979335248     
           5   1.4508657437348469E-002
           6   1.8828885579092909E-002
           7  0.10511045111840024     
           8  0.20137867386794109     
           9   5.8144411384555159E-002
          10 -0.45708078244452727     
          11   3.6848624444611018E-002
          12  -6.4409266026257558E-002
          13  -5.8577745641966328E-002
          14  0.45507121948700469     
          15   3.5791067115894214E-002
          16  -6.9747051423588530E-002
          17  -1.4392028091733735E-002
          18  -1.5818323955135209E-002
          19  0.10532238712338209     
          20  0.20206309433439681     
Sym=    14a
Ene=  -0.16467639122457761     
Spin= Alpha
Occup=     0.00000000
           1  0.12026145561195832     
           2  -5.5685246980483889E-002
           3  -2.9970617433620395E-004
           4   8.8849960313817174E-004
           5   1.5227330646649139E-002
           6 -0.19253381544039405     
           7 -0.16726394753220422     
           8  0.51126733816847347     
           9  -8.4345405795227008E-002
          10 -0.12648719295059441     
          11  0.64124155752025835     
          12  -5.1095170701851433E-003
          13  -8.4126850840485767E-002
          14 -0.12613910268691397     
          15 -0.64000030429877086     
          16   6.8221604373507510E-003
          17   1.5232538501870558E-002
          18 -0.19886771159527059     
          19  0.16724938454396487     
          20 -0.51048699271822739     
Sym=    15a
Ene=  -0.12628527258841052     
Spin= Alpha
Occup=     0.00000000
           1  -1.3563866976067435E-004
           2   1.9075712954508884E-003
           3   7.9632189899318823E-003
           4  0.33614774138012748     
           5 -0.18969344176046884     
           6  0.18089181148441902     
           7  0.24894694307861470     
           8 -0.51203387228914687     
           9  -6.8325751263262596E-002
          10 -0.48443560124118246     
          11  0.17923530265058249     
          12  0.31358798438130853     
          13   6.8465727625640113E-002
          14  0.48812694896049491     
          15  0.18035974411723296     
          16  0.30915430578448722     
          17  0.18948671763814001     
          18 -0.18577325714146281     
          19  0.24856520014368266     
          20 -0.50905606466976838     
Sym=    16a
Ene=    1.6610335232306907E-002
Spin= Alpha
Occup=     0.00000000
           1  -1.4014593122226311E-004
           2  -1.1080803852265431E-004
           3  -1.1000061904912446E-002
           4  -3.6979532886471420E-002
           5 -0.40765295570615417     
           6  0.36123355021833142     
           7  0.32504475381536302     
           8  0.11316703764747504     
           9 -0.21260042736829918     
          10  0.24075135616934140     
          11  0.54564333635889262     
          12 -0.43239246355758693     
          13  0.21287481953242765     
          14 -0.24399761275596990     
          15  0.54625598769819361     
          16 -0.43019954368133395     
          17  0.40755126513166462     
          18 -0.35911362894289589     
          19  0.32535278084000946     
          20  0.11683188093516512     
Sym=    17a
Ene=   0.14948004048144317     
Spin= Alpha
Occup=     0.00000000
           1  -6.5835933581930685E-003
           2   3.2468556079566185E-003
           3 -0.95841361197398067     
           4  -1.1391945338164289E-002
           5  0.46534928268002063     
           6  0.57027260117663470     
           7 -0.36802433104692911     
           8  -6.5859448498093803E-002
           9  -5.8423920615963423E-002
          10  -6.3275558213274352E-002
          11  0.10255118982671257     
          12  -6.3192332246426439E-002
          13   7.1145995561887512E-002
          14   7.4803520847386756E-002
          15   9.6276185808766609E-002
          16  -7.1039040552161370E-002
          17 -0.47210883708986329     
          18 -0.55109240412901817     
          19 -0.37095811448991844     
          20  -6.5214805803350678E-002
Sym=    18a
Ene=   0.16011751234032087     
Spin= Alpha
Occup=     0.00000000
           1  0.43569604801337997     
           2 -0.25800926304550142     
           3  -1.3832594010924881E-002
           4   1.7979961795067632E-003
           5  0.24105227731220685     
           6 -0.67302557493189996     
           7 -0.13136639063004335     
           8 -0.22300527833218228     
           9 -0.43506824803478289     
          10 -0.41217165161430325     
          11 -0.23667660068780566     
          12 -0.24448521552195329     
          13 -0.43121000487497113     
          14 -0.40702864658966603     
          15  0.24005083655170131     
          16  0.24387132908623899     
          17  0.22670790771760882     
          18 -0.68620772211788172     
          19  0.12108620797088419     
          20  0.22737980212872094     
Sym=    19a
Ene=   0.27935478720952100     
Spin= Alpha
Occup=     0.00000000
           1  -5.7402469182935814E-004
           2   9.9807114389219558E-004
           3  0.13813201577923778     
           4  0.13726978858909261     
           5  0.23322093947087466     
           6 -0.34565867882888968     
           7 -0.14941395255985268     
           8 -0.34024203438192124     
           9 -0.66611743900154086     
          10 -0.28086154677731140     
          11 -0.10208726963873427     
          12 -0.68875639778463227     
          13  0.66770690042175385     
          14  0.27551658729080003     
          15 -0.10330395614067911     
          16 -0.69223589520628792     
          17 -0.23445532182601994     
          18  0.34408030206662849     
          19 -0.15069566910539284     
          20 -0.34450264166513944     
Sym=    20a
Ene=   0.45667351917568738     
Spin= Alpha
Occup=     0.00000000
           1  0.81432141337406194     
           2 -0.85686364856845099     
           3   3.1049475378597220E-004
           4   5.3408413734319015E-003
           5 -0.63678748469381108     
           6 -0.24408263085582571     
           7  0.53021729498788939     
           8   6.8733496671400288E-002
           9  0.19526671941276122     
          10  0.29264419163274441     
          11   2.8476413206891633E-003
          12  0.11284087585552620     
          13  0.19486991395024039     
          14  0.29153316717738309     
          15  -3.0961358023397670E-003
          16 -0.11540640187566635     
          17 -0.63700031197882012     
          18 -0.24590973735410718     
          19 -0.53009373116891501     
          20  -6.4981037708450373E-002
