5
 energy: -11.183185604874 gnorm: 0.000813374593 xtb: 6.2.2 (9d81278992624c895f80dd42a50cac0aa55982e2)
C        -1.32991580364734   -0.07026989796950    0.00765053610554
C        -0.00124618525489   -0.00547984424288    0.00091476186174
C         1.26346426556359    0.06686369897187   -0.00744683201544
N        -2.49123822955923   -0.12487170631853    0.01100199148407
C         2.55893595289785    0.13375774955899   -0.01212045743591
