[Molden Format]
[Title]
[Atoms] AU
C      1     6  0.18895032678573E+01 -0.49384167244794E+00 -0.46571370879070E+00
C      2     6 -0.73759296979816E+00 -0.81618736789369E+00 -0.32105588908285E+00
C      3     6 -0.67086289253051E+00  0.18285055661944E+01 -0.48735738394152E+00
C      4     6  0.15529043026496E+01  0.17213143536684E+01  0.99353344036081E+00
H      5     1 -0.20339498184457E+01 -0.22397908795278E+01  0.28059543117361E+00
[GTO]
           1 0
 s           4   1.0000000000000000     
   51.049363095579913      -0.16312063210127389     
   8.7911227406887544      -0.19911024581000730     
  0.70640422258929825       0.31882047753655751     
  0.26922813413411617       0.12706504184240380     
 p           4   1.0000000000000000     
   5.8263656140800002       0.73716451545209605     
   1.5106896018720002       0.68216371614850257     
  0.53256483288000001       0.35783053929253711     
  0.21202323690600003        5.3983030275847881E-002

           2 0
 s           4   1.0000000000000000     
   51.049363095579913      -0.16312063210127389     
   8.7911227406887544      -0.19911024581000730     
  0.70640422258929825       0.31882047753655751     
  0.26922813413411617       0.12706504184240380     
 p           4   1.0000000000000000     
   5.8263656140800002       0.73716451545209605     
   1.5106896018720002       0.68216371614850257     
  0.53256483288000001       0.35783053929253711     
  0.21202323690600003        5.3983030275847881E-002

           3 0
 s           4   1.0000000000000000     
   51.049363095579913      -0.16312063210127389     
   8.7911227406887544      -0.19911024581000730     
  0.70640422258929825       0.31882047753655751     
  0.26922813413411617       0.12706504184240380     
 p           4   1.0000000000000000     
   5.8263656140800002       0.73716451545209605     
   1.5106896018720002       0.68216371614850257     
  0.53256483288000001       0.35783053929253711     
  0.21202323690600003        5.3983030275847881E-002

           4 0
 s           4   1.0000000000000000     
   51.049363095579913      -0.16312063210127389     
   8.7911227406887544      -0.19911024581000730     
  0.70640422258929825       0.31882047753655751     
  0.26922813413411617       0.12706504184240380     
 p           4   1.0000000000000000     
   5.8263656140800002       0.73716451545209605     
   1.5106896018720002       0.68216371614850257     
  0.53256483288000001       0.35783053929253711     
  0.21202323690600003        5.3983030275847881E-002

           5 0
 s           3   1.0000000000000000     
   3.3702276975336001       0.27359110588908298     
  0.61389118221497996       0.26460540653860526     
  0.16614291148415999        8.2465947534082318E-002

[MO]
Sym=     1a
Ene=  -0.71808290190363389     
Spin= Alpha
Occup=     2.00000000
           1 -0.31066896231108615     
           2  0.12058324943349991     
           3  -7.5304195258177442E-002
           4  -3.9139711104277143E-002
           5 -0.32699911256917735     
           6 -0.11234996606364621     
           7 -0.12396521166208861     
           8  -1.0854115356203106E-002
           9 -0.31066600035631220     
          10  -8.6303840240600477E-002
          11  0.11234953414496190     
          12  -4.0887776178132350E-002
          13 -0.28831329132350586     
          14   7.3565961060108348E-002
          15   8.1841277568604751E-002
          16   7.8861256078327571E-002
          17  -4.4002435387938008E-002
Sym=     2a
Ene=  -0.62325144353098627     
Spin= Alpha
Occup=     2.00000000
           1   4.8704312052461105E-002
           2  0.14701090541196032     
           3  0.18803233952978959     
           4   7.5063133655307507E-002
           5 -0.48790958788165156     
           6   9.9636820361478695E-002
           7  0.11019328461574121     
           8   3.6926542020771926E-002
           9   4.8701984917996481E-002
          10  0.17214216723126818     
          11  0.16523183275991782     
          12   7.5273851440054010E-002
          13  0.39340486099830124     
          14   1.7108260734192093E-002
          15   1.8318261628760428E-002
          16  -5.8052325742994362E-002
          17 -0.27884837462144058     
Sym=     3a
Ene=  -0.60349374414125867     
Spin= Alpha
Occup=     2.00000000
           1  0.48500455134986836     
           2   1.6228968584316536E-002
           3  -8.7212905614207789E-002
           4   5.7212167273006306E-002
           5   6.6988596701690048E-007
           6  0.28313939378129760     
           7 -0.25681812075949911     
           8   2.3936095050637769E-003
           9 -0.48500656562296490     
          10   8.8900266774571385E-002
          11  -8.1455482928132830E-003
          12  -5.6322971367417388E-002
          13  -1.2177639333173463E-006
          14  0.20242047359818410     
          15 -0.18360346244101211     
          16   1.7114846587786613E-003
          17  -2.4249428743110450E-007
Sym=     4a
Ene=  -0.56283052973689962     
Spin= Alpha
Occup=     2.00000000
           1 -0.13536057407463029     
           2   9.5873657191605843E-002
           3   5.3334406415827387E-002
           4  0.25272723286948551     
           5   7.8820132191240982E-002
           6 -0.22152699980445603     
           7 -0.24128805106774606     
           8  0.31541253350881548     
           9 -0.13536083292235196     
          10   4.1411443950178803E-002
          11  0.10272680135422724     
          12  0.25226192221363747     
          13  0.38966883720239243     
          14   7.0387666942410840E-003
          15   8.9336583193779639E-003
          16  0.12635729543346874     
          17  0.34338425125296307     
Sym=     5a
Ene=  -0.50996979570630308     
Spin= Alpha
Occup=     2.00000000
           1 -0.10285520753233782     
           2 -0.15791144088542777     
           3 -0.19060664914892908     
           4  0.26926895195253275     
           5  -4.7834812670850116E-002
           6  0.20742191386466191     
           7  0.23154852433913048     
           8  0.31446514569744305     
           9 -0.10283673194937305     
          10 -0.17679135318756134     
          11 -0.17337246189534902     
          12  0.26913349895770350     
          13 -0.14923339751090275     
          14 -0.20214071934487879     
          15 -0.22018294046579670     
          16  0.27991143267577268     
          17 -0.26276723824165554     
Sym=     6a
Ene=  -0.50733647539664184     
Spin= Alpha
Occup=     2.00000000
           1  -7.1478206680195167E-002
           2 -0.27845019471171795     
           3 -0.26984624325438727     
           4 -0.14503113485859956     
           5   4.1874327452702539E-006
           6  0.31079232737108814     
           7 -0.28194548887679527     
           8   2.5972388925020063E-003
           9   7.1496575897254819E-002
          10  0.24017910269921972     
          11  0.30463232616804159     
          12  0.14465645157060053     
          13   2.1439323099299302E-005
          14 -0.32601748959444210     
          15  0.29575383170934094     
          16  -2.7826981467135039E-003
          17   2.7554073027716626E-005
Sym=     7a
Ene=  -0.44625049858246213     
Spin= Alpha
Occup=     2.00000000
           1 -0.45954127065817457     
           2 -0.38123814634123726     
           3  0.27969199235419739     
           4  -4.1154515846647366E-002
           5  0.11744105999872108     
           6   3.5834997820326640E-002
           7   3.7729983783976545E-002
           8 -0.19101811111147343     
           9 -0.45954758616562308     
          10  0.31579908199852008     
          11 -0.35254955658524390     
          12  -3.5261241895012084E-002
          13  0.22891378407599464     
          14   8.5956592965868758E-002
          15   9.5734696649823939E-002
          16  0.10389346047347579     
          17  -6.7962725078268060E-002
Sym=     8a
Ene=  -0.42040120930219566     
Spin= Alpha
Occup=     1.99999985
           1  0.10163828311931100     
           2   4.2593823668149219E-002
           3 -0.28057505275778760     
           4  -1.3267691038703773E-002
           5  0.10768092953653244     
           6   2.5748378913342161E-002
           7   2.4877009145307705E-002
           8 -0.37675973348355346     
           9  0.10164191835105828     
          10 -0.28325215985485630     
          11   1.4978277008577904E-002
          12  -1.6025085681504694E-002
          13  0.48282730766970366     
          14  0.21807541651872375     
          15  0.24545041466289860     
          16  0.53940965023753662     
          17 -0.11468135105973649     
Sym=     9a
Ene=  -0.39053301298319981     
Spin= Alpha
Occup=     1.00000015
           1  0.29339919152684224     
           2  0.32823980012312359     
           3  -6.7095543534383517E-002
           4 -0.50831894192675819     
           5  -3.6129822045925575E-007
           6 -0.16650734971049733     
           7  0.15103031378682241     
           8  -1.4055571260327454E-003
           9 -0.29339709589368873     
          10   9.3966291349149120E-002
          11 -0.31586487939982227     
          12  0.51189185500142254     
          13   8.7631781865815850E-007
          14 -0.18787297244567489     
          15  0.17040733983082629     
          16  -1.5857053184588031E-003
          17  -1.6018715339098054E-007
Sym=    10a
Ene=  -0.30650195814926834     
Spin= Alpha
Occup=     0.00000000
           1   1.2609359931981853E-003
           2   9.3133580039847605E-002
           3  0.12363202492301088     
           4   9.4685624964273171E-002
           5 -0.10595528541745541     
           6 -0.17613894702548427     
           7 -0.20011491304823542     
           8 -0.63560439879585662     
           9   1.2603182351241596E-003
          10  0.11310950764532898     
          11  0.10551415279609483     
          12   9.4855012468218342E-002
          13  -4.4866601562497367E-002
          14 -0.50741336062428666     
          15 -0.55718702535840725     
          16  0.23929843325386477     
          17   6.9446728422407844E-002
Sym=    11a
Ene=  -0.26880641677453165     
Spin= Alpha
Occup=     0.00000000
           1   2.1108457268098974E-002
           2  0.32910644433141167     
           3 -0.53080969673772893     
           4  0.41230311711012596     
           5  -2.2414192213105007E-006
           6 -0.18694175497715232     
           7  0.16956473423162732     
           8  -1.5744636561736234E-003
           9  -2.1105299627581536E-002
          10  0.56409719249723511     
          11 -0.27935341797232788     
          12 -0.40476776281209231     
          13   5.0601819611398104E-007
          14 -0.19177694222463848     
          15  0.17394532167424009     
          16  -1.6145514818790227E-003
          17   2.0624329254439031E-006
Sym=    12a
Ene=  -0.24589532094858749     
Spin= Alpha
Occup=     0.00000000
           1  -8.2935064529260888E-002
           2  -1.8129838250679070E-002
           3 -0.16741713234757519     
           4  0.52387037657328228     
           5  0.16812650856259412     
           6  -5.0396728398979067E-002
           7  -5.9979234171783941E-002
           8 -0.47449880842276349     
           9  -8.2933208565923927E-002
          10 -0.16969748627506123     
          11  -2.9933289570004951E-002
          12  0.52257735126272609     
          13  -7.6501623322099380E-002
          14  0.18021438062615280     
          15  0.19326591069212531     
          16 -0.58199109302728158     
          17 -0.18432362251369103     
Sym=    13a
Ene=   0.10296132003110015     
Spin= Alpha
Occup=     0.00000000
           1   9.0087668399541951E-002
           2 -0.37938762779611940     
           3 -0.26687385166456190     
           4   1.0357379623883053E-002
           5  -1.0741190312835227     
           6  0.14622302331300085     
           7  0.15951115698326992     
           8 -0.17349094282179725     
           9   9.0080558738195315E-002
          10 -0.22888600491098765     
          11 -0.40352962022309941     
          12   1.1583917432355140E-002
          13  0.18732486327652470     
          14   2.1827681346746910E-003
          15   7.7841391477915904E-004
          16 -0.18465352642495236     
          17  0.86498764506773618     
Sym=    14a
Ene=   0.11880007257211797     
Spin= Alpha
Occup=     0.00000000
           1  -2.6437159103304967E-002
           2 -0.44025342882847351     
           3 -0.51999148661502703     
           4 -0.27530069007010621     
           5  -8.9100349418514329E-005
           6 -0.49853938519891350     
           7  0.45224133686728973     
           8  -4.2340121901511167E-003
           9   2.6457419028085481E-002
          10  0.47213422812524891     
          11  0.49100700986795776     
          12  0.27558822117314957     
          13  -4.4057216856250511E-007
          14  0.56134626173280011     
          15 -0.50914633871842152     
          16   4.7414951688444775E-003
          17   8.5919804741069953E-005
Sym=    15a
Ene=   0.17994859404746788     
Spin= Alpha
Occup=     0.00000000
           1  0.65618121650466865     
           2 -0.47792408893932631     
           3  0.22967789619315465     
           4  0.25448225979977118     
           5   4.9025802096212969E-006
           6 -0.50973773749885554     
           7  0.46235648764669462     
           8  -4.3091817458490514E-003
           9 -0.65619281275727959     
          10 -0.27269790306045549     
          11  0.45116185771615025     
          12 -0.26083459255425900     
          13   7.9241064619878180E-006
          14 -0.45065887214192107     
          15  0.40875735135674102     
          16  -3.8160024702193155E-003
          17  -1.1086964963961777E-006
Sym=    16a
Ene=   0.27020615744408272     
Spin= Alpha
Occup=     0.00000000
           1  0.14833429612833970     
           2  0.20773099586619043     
           3  0.44786638317221983     
           4  0.32510899274498489     
           5  -1.3700837934298762E-002
           6  0.45544644790491695     
           7  0.49995326036852644     
           8 -0.23073385721786352     
           9  0.14832215520647596     
          10  0.42248347701865502     
          11  0.25302855095307425     
          12  0.32690427833259483     
          13 -0.72857750794685538     
          14  0.31584386475276416     
          15  0.35304854405542024     
          16  0.51478246160889019     
          17  0.60441401067167944     
Sym=    17a
Ene=   0.64320357018320284     
Spin= Alpha
Occup=     0.00000000
           1 -0.62790880607183108     
           2  0.52188466426718350     
           3 -0.23833326029786983     
           4 -0.19314492998116578     
           5  0.40662177127726284     
           6  0.68598210643546498     
           7  0.75493420549014445     
           8 -0.14389973433298162     
           9 -0.62788763538701897     
          10 -0.28613457393940395     
          11  0.49456225858013791     
          12 -0.19996917691175051     
          13  0.48325233189214811     
          14 -0.25190769847090783     
          15 -0.28122646274201929     
          16 -0.37478213256458653     
          17  0.52816345142221743     
