 Entering Gaussian System
 *********************************************
 Gaussian 98:
 frequency output generated by the xtb code
 *********************************************
                         Standard orientation:
 --------------------------------------------------------------------
  Center     Atomic     Atomic              Coordinates (Angstroms)
  Number     Number      Type              X           Y           Z
 --------------------------------------------------------------------
    1          6             0        0.999882   -0.261330   -0.246445
    2          6             0       -0.390317   -0.431908   -0.169895
    3          6             0       -0.355005    0.967604   -0.257898
    4          6             0        0.821762    0.910880    0.525755
    5          1             0       -1.076320   -1.185246    0.148485
 --------------------------------------------------------------------
     1 basis functions        1 primitive gaussians
     1 alpha electrons        1 beta electrons

 Harmonic frequencies (cm**-1), IR intensities (KM/Mole),
 Raman scattering activities (A**4/amu), Raman depolarization ratios,
 reduced masses (AMU), force constants (mDyne/A) and normal coordinates:
                      1                      2                      3
                        a                      a                      a 
 Frequencies --   523.1869               625.3043               744.6756
 Red. masses --     9.9573                 9.7439                11.7797
 Frc consts  --     0.0000                 0.0000                 0.0000
 IR Inten    --     0.0645                 0.3771                 0.7606
 Raman Activ --     0.0000                 0.0000                 0.0000
 Depolar     --     0.0000                 0.0000                 0.0000
 Atom AN      X      Y      Z        X      Y      Z        X      Y      Z
   1   6    -0.14  -0.09   0.33    -0.29   0.31  -0.27     0.19   0.39   0.24
   2   6    -0.14  -0.16  -0.32    -0.13  -0.14   0.35    -0.29   0.26  -0.00
   3   6    -0.08  -0.14   0.33     0.34  -0.26  -0.27    -0.37  -0.23  -0.24
   4   6     0.39   0.43  -0.23     0.12   0.14   0.31     0.43  -0.39   0.00
   5   1    -0.10  -0.12  -0.40    -0.13  -0.15  -0.41     0.11  -0.10   0.00
                      4                      5                      6
                        a                      a                      a 
 Frequencies --   749.7852               914.3018              1055.8029
 Red. masses --     7.2141                 3.7814                10.7620
 Frc consts  --     0.0000                 0.0000                 0.0000
 IR Inten    --     0.2377                 0.6219                 1.6077
 Raman Activ --     0.0000                 0.0000                 0.0000
 Depolar     --     0.0000                 0.0000                 0.0000
 Atom AN      X      Y      Z        X      Y      Z        X      Y      Z
   1   6     0.20  -0.28  -0.02    -0.33  -0.09   0.09    -0.38   0.21   0.14
   2   6     0.24   0.27   0.38     0.04  -0.03   0.00     0.45  -0.40   0.00
   3   6    -0.30   0.16  -0.03     0.05   0.33  -0.09    -0.24   0.36  -0.15
   4   6    -0.11  -0.13  -0.14     0.05  -0.05   0.00     0.25  -0.22   0.00
   5   1    -0.08  -0.10  -0.65     0.64  -0.58   0.01    -0.25   0.23  -0.00
                      7                      8                      9
                        a                      a                      a 
 Frequencies --  1273.7753              1462.4715              3183.8537
 Red. masses --    11.4948                11.6173                 1.9627
 Frc consts  --     0.0000                 0.0000                 0.0000
 IR Inten    --     0.7511                 0.2084                 0.0828
 Raman Activ --     0.0000                 0.0000                 0.0000
 Depolar     --     0.0000                 0.0000                 0.0000
 Atom AN      X      Y      Z        X      Y      Z        X      Y      Z
   1   6    -0.20  -0.38  -0.19     0.45  -0.16  -0.16    -0.02   0.00   0.00
   2   6     0.25   0.28  -0.11    -0.38  -0.42   0.05     0.19   0.21  -0.08
   3   6    -0.36  -0.23  -0.19    -0.20   0.43  -0.17     0.01  -0.01   0.00
   4   6     0.27   0.30   0.45     0.17   0.19   0.28    -0.00  -0.00  -0.00
   5   1     0.11   0.12   0.14    -0.12  -0.14   0.04    -0.62  -0.68   0.28
