5
 energy: -8.716496242516 gnorm: 0.000149799739 xtb: 6.2.2 (9d81278992624c895f80dd42a50cac0aa55982e2)
C         0.99988216204579   -0.26132978309982   -0.24644510436230
C        -0.39031742675305   -0.43190779498859   -0.16989547569173
C        -0.35500538730497    0.96760356541349   -0.25789844507494
C         0.82176164391833    0.91088041327294    0.52575530368851
H        -1.07631999190261   -1.18524640060151    0.14848472143697
