5
 energy: -8.641658177907 gnorm: 0.151560629168 xtb: 6.2.2 (9d81278992624c895f80dd42a50cac0aa55982e2)
C         1.21990200000000   -0.50164200000000   -0.25053600000000
C        -0.27910600000000   -0.31106500000000   -0.35973900000000
C        -0.61551400000000    1.16317400000000   -0.26605600000000
C         0.53546100000000    0.59535300000000    0.53638600000000
H        -0.86074200000000   -0.94582000000000    0.33994600000000
5
 energy: -8.681652095405 gnorm: 0.090373871969 xtb: 6.2.2 (9d81278992624c895f80dd42a50cac0aa55982e2)
C         1.18305158727965   -0.42782318752011   -0.24297459456979
C        -0.30794167901951   -0.34212834874152   -0.28148730478437
C        -0.53853950729264    1.13373783903013   -0.25753091276190
C         0.60333836265910    0.66982156322074    0.49719781901071
H        -0.93990776362660   -1.03360786598924    0.28479599310535
5
 energy: -8.697267655129 gnorm: 0.049811312810 xtb: 6.2.2 (9d81278992624c895f80dd42a50cac0aa55982e2)
C         1.13344181799939   -0.31271395213532   -0.26693967893983
C        -0.34569007043103   -0.38290931530645   -0.19162534122157
C        -0.41894022588480    1.09535384858667   -0.28006386268778
C         0.63599677831613    0.70577697555442    0.49201608016507
H        -1.00480729999969   -1.10550755669932    0.24661380268412
5
 energy: -8.700880977157 gnorm: 0.024682768180 xtb: 6.2.2 (9d81278992624c895f80dd42a50cac0aa55982e2)
C         1.12147575895772   -0.33486958417605   -0.26030278751942
C        -0.33647748706907   -0.37249922676727   -0.16431245539279
C        -0.43988982891239    1.08134351081128   -0.27350316113392
C         0.67328328366725    0.74681246189059    0.48437812553772
H        -1.01839072664352   -1.12078716175855    0.21374127850841
5
 energy: -8.703559456416 gnorm: 0.026256312076 xtb: 6.2.2 (9d81278992624c895f80dd42a50cac0aa55982e2)
C         1.08930996930994   -0.33201579317406   -0.26826356514520
C        -0.33539201032238   -0.37081110652570   -0.11151622552977
C        -0.43384979380443    1.04954031816053   -0.28114109163376
C         0.71767312815419    0.79582535039971    0.49227231167773
H        -1.03774029333732   -1.14253876886048    0.16864957063100
5
 energy: -8.706302911302 gnorm: 0.047360230575 xtb: 6.2.2 (9d81278992624c895f80dd42a50cac0aa55982e2)
C         1.04155676213191   -0.31536291807097   -0.27292937104755
C        -0.34268041056870   -0.37843405192202   -0.06721912315734
C        -0.41259128130546    1.00359526486780   -0.28522369625337
C         0.76522671319624    0.84835151772953    0.50280085183097
H        -1.05151078345399   -1.15814981260434    0.12257233862729
5
 energy: -8.686677245338 gnorm: 0.179633594886 xtb: 6.2.2 (9d81278992624c895f80dd42a50cac0aa55982e2)
C         0.89219758316162   -0.24335577154854   -0.28430044403578
C        -0.38036982140429   -0.41890332987376    0.04911276277995
C        -0.32630393030009    0.86185769420974   -0.29460327765457
C         0.91220421961049    1.01072535536392    0.53821336289036
H        -1.09772705106773   -1.21032394815135   -0.00842140397995
5
 energy: -8.710124498122 gnorm: 0.041512426181 xtb: 6.2.2 (9d81278992624c895f80dd42a50cac0aa55982e2)
C         0.99109948050265   -0.27267209350854   -0.27684161022140
C        -0.37134771357168   -0.40949903689369   -0.00915735046874
C        -0.36516320551639    0.95750002613110   -0.28830882179270
C         0.82626918414192    0.91570687781062    0.50869368517309
H        -1.08085674555650   -1.19103577353950    0.06561509730975
5
 energy: -8.711294964179 gnorm: 0.042992830415 xtb: 6.2.2 (9d81278992624c895f80dd42a50cac0aa55982e2)
C         0.99560266338799   -0.29465312500362   -0.24871890143277
C        -0.36687481984642   -0.40497067689980   -0.05226458775269
C        -0.38773890093052    0.96007656296369   -0.26041406895901
C         0.82071454355414    0.90935804692978    0.48471429192212
H        -1.06170248616520   -1.16981080799005    0.07668426622235
5
 energy: -8.712927884179 gnorm: 0.034309939619 xtb: 6.2.2 (9d81278992624c895f80dd42a50cac0aa55982e2)
C         0.99730893347488   -0.28262732983310   -0.24994090720784
C        -0.37203919571213   -0.41072971105141   -0.05927616906883
C        -0.37592551230460    0.96293379313346   -0.26155040516640
C         0.82397813683555    0.91297606808645    0.48685401389234
H        -1.07332136229370   -1.18255282033540    0.08391446755073
5
 energy: -8.715560755717 gnorm: 0.021544498606 xtb: 6.2.2 (9d81278992624c895f80dd42a50cac0aa55982e2)
C         0.99679647902262   -0.25778530408129   -0.24690194469732
C        -0.38943259487510   -0.43033486670899   -0.10556904505972
C        -0.35117905821937    0.96486518178559   -0.25829726208704
C         0.83384324931184    0.92398293600563    0.50061908959017
H        -1.09002707523998   -1.20072794700094    0.11015016225390
5
 energy: -8.716169717779 gnorm: 0.011489380700 xtb: 6.2.2 (9d81278992624c895f80dd42a50cac0aa55982e2)
C         0.99931586615024   -0.25853481365720   -0.24155102730001
C        -0.39189368545983   -0.43335192515200   -0.13816058863072
C        -0.35221994171629    0.96734523704381   -0.25297671397418
C         0.83765907492100    0.92824349879561    0.50644417889745
H        -1.09286031389512   -1.20370199703024    0.12624515100746
5
 energy: -8.716420823609 gnorm: 0.005328236491 xtb: 6.2.2 (9d81278992624c895f80dd42a50cac0aa55982e2)
C         0.99797310534624   -0.25871029751748   -0.24335800364624
C        -0.39344651706411   -0.43525916251989   -0.15909069195864
C        -0.35224767694508    0.96597825418648   -0.25477317958578
C         0.83230551641412    0.92245516725475    0.51877651407958
H        -1.08458342775117   -1.19446396140386    0.13844636111108
5
 energy: -8.716488954238 gnorm: 0.001572629375 xtb: 6.2.2 (9d81278992624c895f80dd42a50cac0aa55982e2)
C         0.99905025466748   -0.26153162281311   -0.24479242699422
C        -0.39122169356805   -0.43289422696826   -0.16827465263317
C        -0.35514902424349    0.96676868657049   -0.25624302937804
C         0.82552201612922    0.91501928442240    0.52373256514407
H        -1.07820055298516   -1.18736212121152    0.14557854386136
5
 energy: -8.716495360866 gnorm: 0.000632636490 xtb: 6.2.2 (9d81278992624c895f80dd42a50cac0aa55982e2)
C         0.99982847290587   -0.26153362788440   -0.24670490136258
C        -0.39012418266868   -0.43170962783816   -0.17073581945117
C        -0.35521158725504    0.96752783189918   -0.25816322239887
C         0.82078043596594    0.90981358028046    0.52642601886430
H        -1.07527213894809   -1.18409815645708    0.14917892434833
5
 energy: -8.716496240873 gnorm: 0.000149358023 xtb: 6.2.2 (9d81278992624c895f80dd42a50cac0aa55982e2)
C         0.99988439060123   -0.26132411760332   -0.24644207020586
C        -0.39031457223431   -0.43190954215336   -0.16989759197226
C        -0.35500955342296    0.96760215671476   -0.25789799550967
C         0.82175503931115    0.91088379837185    0.52575976195087
H        -1.07631430425511   -1.18525229532993    0.14847889573692
