$hessian                                                                        
        0.3729370173  -0.0552350358  -0.0635620043  -0.2958071254  -0.1172865893
        0.0466611078  -0.0465420589   0.1235485662  -0.0108800125  -0.0165010173
        0.0489726574   0.0355040488  -0.0140868157   0.0000004015  -0.0077231398
       -0.0552350358   0.2334179963   0.0977724199  -0.0117940393  -0.0476767235
        0.0165277804   0.1111808556  -0.0234356138   0.0274961510  -0.0262455455
       -0.1636325323  -0.1389200167  -0.0179062350   0.0013268733  -0.0028763346
       -0.0635620043   0.0977724199   0.1077406683   0.0414616533   0.0123102226
       -0.0249324845   0.0265862199  -0.0063866351   0.0523742607  -0.0084723254
       -0.1026550333  -0.1298492979   0.0039864565  -0.0010409741  -0.0053331465
       -0.2958071254  -0.0117940393   0.0414616533   0.4939347911   0.2989563415
       -0.0842540433  -0.0377106161  -0.0924219255   0.0088634602  -0.0070786151
       -0.0585626383  -0.0329064986  -0.1533384344  -0.1361777384   0.0668354283
       -0.1172865893  -0.0476767235   0.0123102226   0.2989563415   0.5507701122
       -0.0939992879   0.0131403215  -0.3051734361   0.0449616226  -0.0585392680
       -0.0191147740  -0.0367703830  -0.1362708056  -0.1788051786   0.0734978258
        0.0466611078   0.0165277804  -0.0249324845  -0.0842540433  -0.0939992879
        0.1106643068   0.0116361886   0.0496249171  -0.0255587811  -0.0313038586
       -0.0350633905  -0.0073005387   0.0572606054   0.0629099810  -0.0528725024
       -0.0465420589   0.1111808556   0.0265862199  -0.0377106161   0.0131403215
        0.0116361886   0.2434770250  -0.0663098772   0.1053148957  -0.1621668269
       -0.0417160756  -0.1416612260   0.0029424769  -0.0162952243  -0.0018760782
        0.1235485662  -0.0234356138  -0.0063866351  -0.0924219255  -0.3051734361
        0.0496249171  -0.0663098772   0.3600024990  -0.0565088924   0.0334543029
       -0.0156871098   0.0211680325   0.0017289336  -0.0157063393  -0.0078974221
       -0.0108800125   0.0274961510   0.0523742607   0.0088634602   0.0449616226
       -0.0255587811   0.1053148957  -0.0565088924   0.1106203019  -0.1019359700
       -0.0197511289  -0.1321223231  -0.0013623734   0.0038022477  -0.0053134584
       -0.0165010173  -0.0262455455  -0.0084723254  -0.0070786151  -0.0585392680
       -0.0313038586  -0.1621668269   0.0334543029  -0.1019359700   0.1862093168
        0.0480155349   0.1356718738  -0.0004628575   0.0033149758   0.0060402801
        0.0489726574  -0.1636325323  -0.1026550333  -0.0585626383  -0.0191147740
       -0.0350633905  -0.0417160756  -0.0156871098  -0.0197511289   0.0480155349
        0.1981630759   0.1505756814   0.0032905216   0.0002713402   0.0068938713
        0.0355040488  -0.1389200167  -0.1298492979  -0.0329064986  -0.0367703830
       -0.0073005387  -0.1416612260   0.0211680325  -0.1321223231   0.1356718738
        0.1505756814   0.2503118131   0.0033918021   0.0039466858   0.0189603466
       -0.0140868157  -0.0179062350   0.0039864565  -0.1533384344  -0.1362708056
        0.0572606054   0.0029424769   0.0017289336  -0.0013623734  -0.0004628575
        0.0032905216   0.0033918021   0.1649456307   0.1491575854  -0.0632764905
        0.0000004015   0.0013268733  -0.0010409741  -0.1361777384  -0.1788051786
        0.0629099810  -0.0162952243  -0.0157063393   0.0038022477   0.0033149758
        0.0002713402   0.0039466858   0.1491575854   0.1929133044  -0.0696179404
       -0.0077231398  -0.0028763346  -0.0053331465   0.0668354283   0.0734978258
       -0.0528725024  -0.0018760782  -0.0078974221  -0.0053134584   0.0060402801
        0.0068938713   0.0189603466  -0.0632764905  -0.0696179404   0.0445587607
