      -----------------------------------------------------------      
     |                   =====================                   |     
     |                           x T B                           |     
     |                   =====================                   |     
     |                         S. Grimme                         |     
     |          Mulliken Center for Theoretical Chemistry        |     
     |                    University of Bonn                     |     
      -----------------------------------------------------------      

   * xtb version 6.2.2 (9d81278992624c895f80dd42a50cac0aa55982e2) compiled by '@Darwin' on 04/03/2020

   xtb is free software: you can redistribute it and/or modify it under
   the terms of the GNU Lesser General Public License as published by
   the Free Software Foundation, either version 3 of the License, or
   (at your option) any later version.
   
   xtb is distributed in the hope that it will be useful,
   but WITHOUT ANY WARRANTY; without even the implied warranty of
   MERCHANTABILITY or FITNESS FOR A PARTICULAR PURPOSE.  See the
   GNU Lesser General Public License for more details.
   
   Cite this work as:
   * S. Grimme, C. Bannwarth, P. Shushkov, J. Chem. Theory Comput., 2017,
     13, 1989-2009. DOI: 10.1021/acs.jctc.7b00118
   * C. Bannwarth, S. Ehlert and S. Grimme., J. Chem. Theory Comput., 2019,
     15, 1652-1671. DOI: 10.1021/acs.jctc.8b01176
   * P. Pracht, E. Caldeweyher, S. Ehlert, S. Grimme, ChemRxiv, 2019, preprint.
     DOI: 10.26434/chemrxiv.8326202.v1
   
   for DFT-D4:
   * E. Caldeweyher, C. Bannwarth and S. Grimme, J. Chem. Phys., 2017,
     147, 034112. DOI: 10.1063/1.4993215
   * E. Caldeweyher, S. Ehlert, A. Hansen, H. Neugebauer, S. Spicher,
     C. Bannwarth and S. Grimme, J. Chem. Phys., 2019, 150, 154122.
     DOI: 10.1063/1.5090222
   
   for sTDA-xTB:
   * S. Grimme and C. Bannwarth, J. Chem. Phys., 2016, 145, 054103.
     DOI: 10.1063/1.4959605
   
   in the mass-spec context:
   * V. Asgeirsson, C. Bauer and S. Grimme, Chem. Sci., 2017, 8, 4879.
     DOI: 10.1039/c7sc00601b
   
   for metadynamics refer to:
   * S. Grimme, J. Chem. Theory Comput., 2019, 155, 2847-2862
     DOI: 10.1021/acs.jctc.9b00143
   
   with help from (in alphabetical order)
   C. Bannwarth, F. Bohle, G. Brandenburg, E. Caldeweyher, M. Checinski,
   S. Dohm, S. Ehlert, S. Ehrlich, F. März, H. Neugebauer, J. Pisarek,
   P. Pracht, P. Shushkov, and S. Spicher.
   
 * started run on 2020/05/12 at 11:45:11.556     

           -------------------------------------------------
          |                Calculation Setup                |
           -------------------------------------------------

          program call               : xtb --input H1C4_9_S_1.input H1C4_9_S_1.xyz --ohess --molden --namespace H1C4_9_S_1 output.out
          calculation namespace      : H1C4_9_S_1
          coordinate file            : H1C4_9_S_1.xyz
          number of atoms            :                     5
          number of electrons        :                    17
          charge                     :                     0
          spin                       :                   0.5
          first test random number   :      0.99973140260050

   ID    Z sym.   atoms
    1    6 C      1-4
    2    1 H      5

           -------------------------------------------------
          |                 G F N 2 - x T B                 |
           -------------------------------------------------

        Reference                      10.1021/acs.jctc.8b01176
      * Hamiltonian:
        H0-scaling (s, p, d)           1.850000    2.230000    2.230000
        zeta-weighting                 0.500000
      * Dispersion:
        s8                             2.700000
        a1                             0.520000
        a2                             5.000000
        s9                             5.000000
      * Repulsion:
        kExp                           1.500000    1.000000
        rExp                           1.000000
      * Coulomb:
        alpha                          2.000000
        third order                    shell-resolved
        anisotropic                    true
        a3                             3.000000
        a5                             4.000000
        cn-shift                       1.200000
        cn-exp                         4.000000
        max-rad                        5.000000


          ...................................................
          :                      SETUP                      :
          :.................................................:
          :  # basis functions                  17          :
          :  # atomic orbitals                  17          :
          :  # shells                            9          :
          :  # electrons                        17          :
          :  max. iterations                   250          :
          :  Hamiltonian                  GFN2-xTB          :
          :  restarted?                      false          :
          :  GBSA solvation                  false          :
          :  PC potential                    false          :
          :  electronic temp.          300.0000000     K    :
          :  accuracy                    1.0000000          :
          :  -> integral cutoff          0.2500000E+02      :
          :  -> integral neglect         0.1000000E-07      :
          :  -> SCF convergence          0.1000000E-05 Eh   :
          :  -> wf. convergence          0.1000000E-03 e    :
          :  Broyden damping             0.4000000          :
          ...................................................

 iter      E             dE          RMSdq      gap      omega  full diag
   1     -8.7257359 -0.872574E+01  0.948E+00    1.15       0.0  T
   2     -8.7283635 -0.262759E-02  0.553E+00    0.87       1.0  T
   3     -8.7176882  0.106753E-01  0.152E+00    1.13       1.0  T
   4     -8.7300673 -0.123791E-01  0.487E-01    0.78       1.0  T
   5     -8.7306246 -0.557347E-03  0.319E-01    0.88       1.0  T
   6     -8.7301597  0.464899E-03  0.288E-01    0.79       1.0  T
   7     -8.7307177 -0.557945E-03  0.334E-02    0.86       1.3  T
   8     -8.7307068  0.108749E-04  0.420E-02    0.86       1.1  T
   9     -8.7307173 -0.104661E-04  0.254E-02    0.86       1.8  T
  10     -8.7307197 -0.240936E-05  0.169E-02    0.86       2.6  T
  11     -8.7307216 -0.194124E-05  0.126E-03    0.87      35.6  T
  12     -8.7307216 -0.101363E-07  0.101E-04    0.87     443.8  T
  13     -8.7307216 -0.198579E-10  0.529E-05    0.87     844.9  T

   *** convergence criteria satisfied after 13 iterations ***

         #    Occupation            Energy/Eh            Energy/eV
      -------------------------------------------------------------
         1        2.0000           -0.7256112             -19.7449
       ...           ...                  ...                  ...
         3        2.0000           -0.6043956             -16.4464
         4        2.0000           -0.5622305             -15.2991
         5        2.0000           -0.5006046             -13.6221
         6        2.0000           -0.4966670             -13.5150
         7        2.0000           -0.4695981             -12.7784
         8        2.0000           -0.4462027             -12.1418
         9        1.0000           -0.4096365             -11.1468 (HOMO)
        10                         -0.3778189             -10.2810 (LUMO)
        11                         -0.3121883              -8.4951
        12                         -0.2382829              -6.4840
        13                         -0.0042185              -0.1148
        14                          0.0757245               2.0606
       ...                                ...                  ...
        17                          0.1833737               4.9899
      -------------------------------------------------------------
                  HL-Gap            0.0318176 Eh            0.8658 eV
             Fermi-level           -0.4108237 Eh          -11.1791 eV

 SCC (total)                   0 d,  0 h,  0 min,  0.004 sec
 SCC setup                      ...        0 min,  0.000 sec (  2.408%)
 Dispersion                     ...        0 min,  0.000 sec (  0.472%)
 integral evaluation            ...        0 min,  0.001 sec ( 27.276%)
 zeroth order Hamiltonian       ...        0 min,  0.000 sec (  0.466%)
 iterations                     ...        0 min,  0.001 sec ( 36.335%)
 molecular gradient             ...        0 min,  0.001 sec ( 29.879%)
 printout                       ...        0 min,  0.000 sec (  2.921%)

         :::::::::::::::::::::::::::::::::::::::::::::::::::::
         ::                     SUMMARY                     ::
         :::::::::::::::::::::::::::::::::::::::::::::::::::::
         :: total energy              -8.641658178797 Eh    ::
         :: gradient norm              0.151560157606 Eh/a0 ::
         :: HOMO-LUMO gap              0.865799746223 eV    ::
         ::.................................................::
         :: SCC energy                -8.730721618228 Eh    ::
         :: -> isotropic ES           -0.019306463326 Eh    ::
         :: -> anisotropic ES          0.002086213901 Eh    ::
         :: -> anisotropic XC          0.008776883721 Eh    ::
         :: -> dispersion             -0.002087137696 Eh    ::
         :: repulsion energy           0.089063404222 Eh    ::
         :: add. restraining           0.000000000000 Eh    ::
         :::::::::::::::::::::::::::::::::::::::::::::::::::::

      ----------------------------------------------------------- 
     |                   =====================                   |
     |                        A N C O P T                        |
     |                   =====================                   |
     |               Approximate Normal Coordinate               |
     |                Rational Function Optimizer                |
      ----------------------------------------------------------- 

          ...................................................
          :                      SETUP                      :
          :.................................................:
          :   optimization level            normal          :
          :   max. optcycles                   200          :
          :   ANC micro-cycles                  20          :
          :   degrees of freedom                 9          :
          :.................................................:
          :   RF solver                   davidson          :
          :   write xtbopt.log                true          :
          :   linear?                        false          :
          :   energy convergence         0.5000000E-05 Eh   :
          :   grad. convergence          0.1000000E-02 Eh/α :
          :   maximium RF displ.         1.0000000          :
          :   Hlow (freq-cutoff)         0.1000000E-01      :
          :   Hmax (freq-cutoff)         5.0000000          :
          :   S6 in model hess.         20.0000000          :
          ...................................................

generating ANC from model Hessian ...
Using Lindh-Hessian (1995)
 Shifting diagonal of input Hessian by    0.0000000000000000     
 Lowest  eigenvalues of input Hessian
   -0.000000   -0.000000   -0.000000    0.000000    0.000000    0.000000
    0.072551    0.100018    0.124955    0.490856    0.572762    0.870322
    0.896774    1.224340    1.374061
 Highest eigenvalues
    0.490856    0.572762    0.870322    0.896774    1.224340    1.374061


........................................................................
.............................. CYCLE    1 ..............................
........................................................................
   1     -8.7307216 -0.873072E+01  0.113E-05    0.87       0.0  T
   2     -8.7307216  0.456524E-12  0.141E-05    0.87    3171.9  T
   3     -8.7307216 -0.129496E-11  0.208E-06    0.87   21458.4  T
     SCC iter.                  ...        0 min,  0.001 sec
     gradient                   ...        0 min,  0.001 sec
 * total energy  :    -8.6416582 Eh     change        0.8898393E-09 Eh
   gradient norm :     0.1515606 Eh/α   predicted     0.0000000E+00 (-100.00%)
   displ. norm   :     0.4240421 α      lambda       -0.5132938E-01
   maximum displ.:     0.3713791 α      in ANC's #3, #5, #7, ...

........................................................................
.............................. CYCLE    2 ..............................
........................................................................
   1     -8.7831010 -0.878310E+01  0.200E+00    1.09       0.0  T
   2     -8.7822894  0.811572E-03  0.136E+00    1.69       1.0  T
   3     -8.7869849 -0.469553E-02  0.929E-01    1.22       1.0  T
   4     -8.7887412 -0.175632E-02  0.300E-01    1.35       1.0  T
   5     -8.7892583 -0.517080E-03  0.528E-02    1.36       1.0  T
   6     -8.7892597 -0.137383E-05  0.826E-03    1.37       5.4  T
   7     -8.7892598 -0.114958E-06  0.336E-03    1.36      13.3  T
   8     -8.7892598  0.277449E-08  0.153E-03    1.37      29.3  T
   9     -8.7892598 -0.159984E-07  0.630E-04    1.37      71.0  T
  10     -8.7892598 -0.163137E-08  0.437E-05    1.37    1022.5  T
     SCC iter.                  ...        0 min,  0.001 sec
     gradient                   ...        0 min,  0.001 sec
 * total energy  :    -8.6816521 Eh     change       -0.3999392E-01 Eh
   gradient norm :     0.0903726 Eh/α   predicted    -0.3027949E-01 ( -24.29%)
   displ. norm   :     0.4510054 α      lambda       -0.3276309E-01
   maximum displ.:     0.3492783 α      in ANC's #3, #5, #1, ...

........................................................................
.............................. CYCLE    3 ..............................
........................................................................
   1     -8.8333986 -0.883340E+01  0.203E+00    2.22       0.0  T
   2     -8.7428632  0.905354E-01  0.506E+00    2.70       1.0  T
   3     -8.8386907 -0.958275E-01  0.112E+00    2.38       1.0  T
   4     -8.8367096  0.198108E-02  0.895E-01    2.39       1.0  T
   5     -8.8393052 -0.259559E-02  0.595E-01    2.40       1.0  T
   6     -8.8398613 -0.556121E-03  0.441E-01    2.43       1.0  T
   7     -8.8401543 -0.292942E-03  0.276E-01    2.45       1.0  T
   8     -8.8402636 -0.109329E-03  0.178E-01    2.46       1.0  T
   9     -8.8403202 -0.566281E-04  0.962E-02    2.47       1.0  T
  10     -8.8403428 -0.225758E-04  0.165E-02    2.48       2.7  T
  11     -8.8403435 -0.659716E-06  0.501E-03    2.48       8.9  T
  12     -8.8403435 -0.594453E-07  0.220E-03    2.48      20.3  T
  13     -8.8403435 -0.111566E-07  0.671E-04    2.48      66.7  T
  14     -8.8403436 -0.114379E-08  0.879E-06    2.48    5087.0  T
     SCC iter.                  ...        0 min,  0.001 sec
     gradient                   ...        0 min,  0.001 sec
 * total energy  :    -8.6972677 Eh     change       -0.1561556E-01 Eh
   gradient norm :     0.0498063 Eh/α   predicted    -0.1971365E-01 (  26.24%)
   displ. norm   :     0.1572755 α      lambda       -0.5054621E-02
   maximum displ.:     0.1151872 α      in ANC's #1, #3, #4, ...

........................................................................
.............................. CYCLE    4 ..............................
........................................................................
   1     -8.8343601 -0.883436E+01  0.928E-01    2.42       0.0  T
   2     -8.8285840  0.577609E-02  0.117E+00    2.16       1.0  T
   3     -8.8340992 -0.551524E-02  0.768E-01    2.43       1.0  T
   4     -8.8352633 -0.116405E-02  0.423E-01    2.35       1.0  T
   5     -8.8355474 -0.284082E-03  0.355E-01    2.35       1.0  T
   6     -8.8354230  0.124365E-03  0.417E-01    2.34       1.0  T
   7     -8.8358847 -0.461679E-03  0.507E-02    2.38       1.0  T
   8     -8.8358915 -0.686074E-05  0.999E-03    2.38       4.5  T
   9     -8.8358917 -0.175138E-06  0.542E-03    2.38       8.2  T
  10     -8.8358918 -0.473474E-07  0.357E-03    2.38      12.5  T
  11     -8.8358918 -0.343513E-07  0.339E-04    2.38     132.1  T
  12     -8.8358918  0.235545E-11  0.344E-04    2.38     130.1  T
     SCC iter.                  ...        0 min,  0.001 sec
     gradient                   ...        0 min,  0.001 sec
 * total energy  :    -8.7008810 Eh     change       -0.3613322E-02 Eh
   gradient norm :     0.0245946 Eh/α   predicted    -0.2589824E-02 ( -28.33%)
   displ. norm   :     0.2097488 α      lambda       -0.3899247E-02
   maximum displ.:     0.1414961 α      in ANC's #3, #4, #1, ...

........................................................................
.............................. CYCLE    5 ..............................
........................................................................
   1     -8.8065959 -0.880660E+01  0.345E+00    2.67       0.0  T
   2     -8.7104979  0.960981E-01  0.461E+00    1.51       1.0  T
   3     -8.8325012 -0.122003E+00  0.982E-01    2.66       1.0  T
   4     -8.8282402  0.426107E-02  0.159E+00    2.54       1.0  T
   5     -8.8349441 -0.670396E-02  0.657E-01    2.59       1.0  T
   6     -8.8248327  0.101114E-01  0.201E+00    2.66       1.0  T
   7     -8.8362262 -0.113935E-01  0.824E-02    2.61       1.0  T
   8     -8.8362414 -0.151933E-04  0.285E-02    2.62       1.6  T
   9     -8.8362303  0.111098E-04  0.681E-02    2.62       1.0  T
  10     -8.8362377 -0.746116E-05  0.447E-02    2.62       1.0  T
  11     -8.8362434 -0.564351E-05  0.510E-04    2.61      87.6  T
  12     -8.8362434  0.157451E-08  0.852E-04    2.61      52.5  T
  13     -8.8362434  0.103791E-09  0.816E-04    2.61      54.8  T
     SCC iter.                  ...        0 min,  0.001 sec
     gradient                   ...        0 min,  0.001 sec
 * total energy  :    -8.7035595 Eh     change       -0.2678479E-02 Eh
   gradient norm :     0.0260670 Eh/α   predicted    -0.2035398E-02 ( -24.01%)
   displ. norm   :     0.2308259 α      lambda       -0.3087966E-02
   maximum displ.:     0.1667902 α      in ANC's #4, #3, #5, ...

........................................................................
.............................. CYCLE    6 ..............................
........................................................................
   1     -8.8265561 -0.882656E+01  0.304E+00    3.04       0.0  T
   2     -8.6877228  0.138833E+00  0.527E+00    2.29       1.0  T
   3     -8.8268454 -0.139123E+00  0.243E+00    3.04       1.0  T
   4     -8.8450873 -0.182419E-01  0.342E-01    3.01       1.0  T
   5     -8.8454231 -0.335844E-03  0.128E-01    3.01       1.0  T
   6     -8.8453289  0.942427E-04  0.200E-01    3.01       1.0  T
   7     -8.8454108 -0.819268E-04  0.563E-02    3.00       1.0  T
   8     -8.8454221 -0.113139E-04  0.371E-02    3.00       1.2  T
   9     -8.8454252 -0.311112E-05  0.779E-03    3.00       5.7  T
  10     -8.8454245  0.678649E-06  0.196E-02    3.00       2.3  T
  11     -8.8454255 -0.929507E-06  0.811E-03    3.00       5.5  T
  12     -8.8454256 -0.180636E-06  0.807E-04    3.00      55.4  T
  13     -8.8454256 -0.162153E-09  0.790E-04    3.00      56.6  T
     SCC iter.                  ...        0 min,  0.001 sec
     gradient                   ...        0 min,  0.001 sec
 * total energy  :    -8.7063029 Eh     change       -0.2743455E-02 Eh
   gradient norm :     0.0470522 Eh/α   predicted    -0.1626245E-02 ( -40.72%)
   displ. norm   :     0.7147962 α      lambda       -0.1044391E-01
   maximum displ.:     0.4892094 α      in ANC's #4, #3, #5, ...

........................................................................
.............................. CYCLE    7 ..............................
........................................................................
   1     -8.8401844 -0.884018E+01  0.364E+00    1.71       0.0  T
   2     -8.8428928 -0.270837E-02  0.200E+00    1.14       1.0  T
   3     -8.8379146  0.497821E-02  0.157E+00    1.76       1.0  T
   4     -8.8440959 -0.618133E-02  0.549E-01    1.30       1.0  T
   5     -8.8462313 -0.213541E-02  0.128E-01    1.38       1.0  T
   6     -8.8462473 -0.160356E-04  0.249E-02    1.37       1.8  T
   7     -8.8462484 -0.108699E-05  0.914E-03    1.37       4.9  T
   8     -8.8462484 -0.160625E-07  0.306E-03    1.37      14.6  T
   9     -8.8462484  0.498144E-08  0.267E-03    1.37      16.8  T
  10     -8.8462485 -0.309044E-07  0.426E-04    1.37     104.9  T
  11     -8.8462485 -0.107176E-08  0.935E-05    1.37     478.4  T
     SCC iter.                  ...        0 min,  0.001 sec
     gradient                   ...        0 min,  0.001 sec
 * total energy  :    -8.6866772 Eh     change        0.1962567E-01 Eh
   gradient norm :     0.1794956 Eh/α   predicted    -0.7890035E-02 (-140.20%)
   displ. norm   :     0.4156617 α      lambda       -0.4750937E-01
   maximum displ.:     0.3214094 α      in ANC's #4, #3, #5, ...

........................................................................
.............................. CYCLE    8 ..............................
........................................................................
   1     -8.8426656 -0.884267E+01  0.259E+00    2.61       0.0  T
   2     -8.8457953 -0.312967E-02  0.141E+00    3.27       1.0  T
   3     -8.8468233 -0.102795E-02  0.112E+00    2.78       1.0  T
   4     -8.8484043 -0.158102E-02  0.521E-01    3.00       1.0  T
   5     -8.8500346 -0.163034E-02  0.864E-02    2.98       1.0  T
   6     -8.8500442 -0.960421E-05  0.160E-02    2.99       2.8  T
   7     -8.8500449 -0.707014E-06  0.542E-03    2.99       8.3  T
   8     -8.8500447  0.219757E-06  0.587E-03    2.99       7.6  T
   9     -8.8500450 -0.282135E-06  0.988E-04    2.99      45.3  T
  10     -8.8500450 -0.778005E-09  0.911E-05    2.99     491.0  T
     SCC iter.                  ...        0 min,  0.001 sec
     gradient                   ...        0 min,  0.001 sec
 * total energy  :    -8.7101245 Eh     change       -0.2344725E-01 Eh
   gradient norm :     0.0415123 Eh/α   predicted    -0.2785888E-01 (  18.82%)
   displ. norm   :     0.1472723 α      lambda       -0.3267207E-02
   maximum displ.:     0.1091824 α      in ANC's #3, #1, #4, ...

........................................................................
.............................. CYCLE    9 ..............................
........................................................................
   1     -8.8645335 -0.886453E+01  0.693E-01    2.89       0.0  T
   2     -8.8645355 -0.201408E-05  0.411E-01    2.98       1.0  T
   3     -8.8640061  0.529385E-03  0.349E-01    2.87       1.0  T
   4     -8.8646730 -0.666894E-03  0.666E-02    2.92       1.0  T
   5     -8.8646915 -0.184644E-04  0.170E-02    2.93       2.6  T
   6     -8.8646918 -0.335241E-06  0.238E-03    2.93      18.8  T
   7     -8.8646918  0.294984E-07  0.222E-03    2.93      20.2  T
   8     -8.8646918 -0.270009E-07  0.120E-03    2.93      37.2  T
   9     -8.8646918 -0.882404E-08  0.193E-04    2.93     231.5  T
  10     -8.8646918 -0.259703E-10  0.127E-05    2.93    3529.9  T
     SCC iter.                  ...        0 min,  0.001 sec
     gradient                   ...        0 min,  0.001 sec
 * total energy  :    -8.7112950 Eh     change       -0.1170466E-02 Eh
   gradient norm :     0.0429293 Eh/α   predicted    -0.1669035E-02 (  42.60%)
   displ. norm   :     0.0529456 α      lambda       -0.1976595E-02
   maximum displ.:     0.0300462 α      in ANC's #3, #5, #1, ...

........................................................................
.............................. CYCLE   10 ..............................
........................................................................
   1     -8.8629551 -0.886296E+01  0.183E-01    2.83       0.0  T
   2     -8.8629319  0.232338E-04  0.152E-01    2.80       1.0  T
   3     -8.8629771 -0.452729E-04  0.847E-02    2.82       1.0  T
   4     -8.8629957 -0.185587E-04  0.147E-02    2.82       3.1  T
   5     -8.8629965 -0.823234E-06  0.323E-03    2.82      13.9  T
   6     -8.8629965 -0.118203E-08  0.258E-04    2.82     173.0  T
   7     -8.8629965  0.157437E-09  0.181E-04    2.82     247.7  T
     SCC iter.                  ...        0 min,  0.001 sec
     gradient                   ...        0 min,  0.001 sec
 * total energy  :    -8.7129279 Eh     change       -0.1632920E-02 Eh
   gradient norm :     0.0341130 Eh/α   predicted    -0.9910686E-03 ( -39.31%)
   displ. norm   :     0.1437798 α      lambda       -0.4332420E-02
   maximum displ.:     0.1008138 α      in ANC's #5, #7, #4, ...

........................................................................
.............................. CYCLE   11 ..............................
........................................................................
   1     -8.8597915 -0.885979E+01  0.568E-01    2.39       0.0  T
   2     -8.8596467  0.144842E-03  0.419E-01    2.30       1.0  T
   3     -8.8596348  0.118657E-04  0.309E-01    2.36       1.0  T
   4     -8.8600464 -0.411529E-03  0.876E-02    2.36       1.0  T
   5     -8.8600760 -0.296077E-04  0.109E-02    2.34       4.1  T
   6     -8.8600760 -0.498632E-07  0.174E-03    2.34      25.8  T
   7     -8.8600760  0.355261E-07  0.235E-03    2.34      19.0  T
   8     -8.8600760 -0.435073E-07  0.589E-04    2.34      76.0  T
   9     -8.8600760 -0.957836E-09  0.159E-04    2.34     282.1  T
     SCC iter.                  ...        0 min,  0.001 sec
     gradient                   ...        0 min,  0.001 sec
 * total energy  :    -8.7155608 Eh     change       -0.2632872E-02 Eh
   gradient norm :     0.0214650 Eh/α   predicted    -0.2210992E-02 ( -16.02%)
   displ. norm   :     0.0729693 α      lambda       -0.9891191E-03
   maximum displ.:     0.0474818 α      in ANC's #7, #5, #4, ...

........................................................................
.............................. CYCLE   12 ..............................
........................................................................
   1     -8.8564211 -0.885642E+01  0.258E-01    2.18       0.0  T
   2     -8.8564253 -0.417066E-05  0.152E-01    2.16       1.0  T
   3     -8.8564164  0.888376E-05  0.547E-02    2.18       1.0  T
   4     -8.8564271 -0.107170E-04  0.110E-02    2.17       4.1  T
   5     -8.8564275 -0.334290E-06  0.611E-03    2.17       7.3  T
   6     -8.8564276 -0.141171E-06  0.190E-03    2.17      23.5  T
   7     -8.8564276  0.114520E-08  0.103E-03    2.17      43.5  T
   8     -8.8564276 -0.678895E-08  0.430E-04    2.17     104.0  T
   9     -8.8564276 -0.104299E-08  0.110E-04    2.17     405.9  T
     SCC iter.                  ...        0 min,  0.001 sec
     gradient                   ...        0 min,  0.001 sec
 * total energy  :    -8.7161697 Eh     change       -0.6089621E-03 Eh
   gradient norm :     0.0113338 Eh/α   predicted    -0.4971922E-03 ( -18.35%)
   displ. norm   :     0.0588941 α      lambda       -0.4008767E-03
   maximum displ.:     0.0442514 α      in ANC's #3, #1, #7, ...

........................................................................
.............................. CYCLE   13 ..............................
........................................................................
   1     -8.8565874 -0.885659E+01  0.150E-01    2.15       0.0  T
   2     -8.8565859  0.152165E-05  0.961E-02    2.14       1.0  T
   3     -8.8565473  0.385656E-04  0.852E-02    2.15       1.0  T
   4     -8.8565897 -0.423946E-04  0.160E-02    2.15       2.8  T
   5     -8.8565913 -0.157811E-05  0.351E-03    2.15      12.8  T
   6     -8.8565913 -0.981331E-08  0.534E-04    2.15      83.8  T
   7     -8.8565913  0.130052E-08  0.602E-04    2.15      74.3  T
     SCC iter.                  ...        0 min,  0.001 sec
     gradient                   ...        0 min,  0.001 sec
 * total energy  :    -8.7164208 Eh     change       -0.2511058E-03 Eh
   gradient norm :     0.0053271 Eh/α   predicted    -0.2011330E-03 ( -19.90%)
   displ. norm   :     0.0370880 α      lambda       -0.1144842E-03
   maximum displ.:     0.0323302 α      in ANC's #3, #1, #7, ...

........................................................................
.............................. CYCLE   14 ..............................
........................................................................
   1     -8.8575028 -0.885750E+01  0.103E-01    2.22       0.0  T
   2     -8.8574955  0.721418E-05  0.768E-02    2.24       1.0  T
   3     -8.8575016 -0.602064E-05  0.566E-02    2.23       1.0  T
   4     -8.8575140 -0.124490E-04  0.202E-02    2.23       2.2  T
   5     -8.8575154 -0.140847E-05  0.201E-03    2.23      22.2  T
   6     -8.8575154 -0.590973E-09  0.539E-04    2.23      82.9  T
   7     -8.8575154  0.231430E-08  0.584E-04    2.23      76.5  T
     SCC iter.                  ...        0 min,  0.001 sec
     gradient                   ...        0 min,  0.001 sec
 * total energy  :    -8.7164890 Eh     change       -0.6813063E-04 Eh
   gradient norm :     0.0015629 Eh/α   predicted    -0.5732107E-04 ( -15.87%)
   displ. norm   :     0.0194765 α      lambda       -0.1218191E-04
   maximum displ.:     0.0137294 α      in ANC's #3, #1, #5, ...

........................................................................
.............................. CYCLE   15 ..............................
........................................................................
   1     -8.8582776 -0.885828E+01  0.612E-02    2.29       0.0  T
   2     -8.8582778 -0.173150E-06  0.380E-02    2.30       1.2  T
   3     -8.8582759  0.182477E-05  0.332E-02    2.29       1.3  T
   4     -8.8582801 -0.418270E-05  0.148E-02    2.30       3.0  T
   5     -8.8582811 -0.966492E-06  0.148E-03    2.30      30.3  T
   6     -8.8582811  0.325537E-07  0.204E-03    2.30      21.9  T
   7     -8.8582811 -0.344765E-07  0.146E-04    2.30     306.1  T
   8     -8.8582811 -0.254676E-10  0.521E-05    2.30     859.0  T
     SCC iter.                  ...        0 min,  0.001 sec
     gradient                   ...        0 min,  0.001 sec
 * total energy  :    -8.7164954 Eh     change       -0.6406628E-05 Eh
   gradient norm :     0.0006317 Eh/α   predicted    -0.6091451E-05 (  -4.92%)
   displ. norm   :     0.0048026 α      lambda       -0.1264967E-05
   maximum displ.:     0.0042396 α      in ANC's #3, #1, #5, ...

........................................................................
.............................. CYCLE   16 ..............................
........................................................................
   1     -8.8580009 -0.885800E+01  0.113E-02    2.29       0.0  T
   2     -8.8580009  0.861440E-07  0.855E-03    2.29       5.2  T
   3     -8.8580009 -0.603026E-07  0.616E-03    2.29       7.3  T
   4     -8.8580011 -0.151538E-06  0.214E-03    2.29      20.9  T
   5     -8.8580011 -0.158089E-07  0.274E-04    2.29     163.5  T
   6     -8.8580011  0.562919E-09  0.334E-04    2.29     133.8  T
     SCC iter.                  ...        0 min,  0.001 sec
     gradient                   ...        0 min,  0.001 sec
 * total energy  :    -8.7164962 Eh     change       -0.8800072E-06 Eh
   gradient norm :     0.0001466 Eh/α   predicted    -0.6327179E-06 ( -28.10%)
   displ. norm   :     0.0006363 α      lambda       -0.4210988E-07
   maximum displ.:     0.0005107 α      in ANC's #4, #3, #7, ...

   *** GEOMETRY OPTIMIZATION CONVERGED AFTER 16 ITERATIONS ***

------------------------------------------------------------------------
 total energy gain   :        -0.0748381 Eh      -46.9616 kcal/mol
 total RMSD          :         0.6532337 a0        0.3457 Å
 total power (kW/mol):       -12.2804566 (step)-3662.6586 (real)
------------------------------------------------------------------------

 ANCopt (total)                0 d,  0 h,  0 min,  0.054 sec
 optimizer setup                ...        0 min,  0.000 sec (  0.144%)
 model hessian                  ...        0 min,  0.000 sec (  0.201%)
 ANC generation                 ...        0 min,  0.000 sec (  0.110%)
 coordinate transformation      ...        0 min,  0.000 sec (  0.076%)
 single point calculation       ...        0 min,  0.052 sec ( 96.742%)
 optimization log               ...        0 min,  0.000 sec (  0.852%)
 hessian update                 ...        0 min,  0.000 sec (  0.074%)
 rational function              ...        0 min,  0.000 sec (  0.786%)

================
 final structure:
================
5
 xtb: 6.2.2 (9d81278992624c895f80dd42a50cac0aa55982e2)
C         0.99988439060123   -0.26132411760332   -0.24644207020586
C        -0.39031457223431   -0.43190954215336   -0.16989759197226
C        -0.35500955342296    0.96760215671476   -0.25789799550967
C         0.82175503931115    0.91088379837185    0.52575976195087
H        -1.07631430425511   -1.18525229532993    0.14847889573692

 Bond Distances (Angstroems)
 ---------------------------
C1-C2=1.4027         C1-C3=1.8292         C1-C4=1.4150         C2-C1=1.4027         C2-C3=1.4027         C2-C4=1.9381         
C2-H5=1.0675         C3-C1=1.8292         C3-C2=1.4027         C3-C4=1.4150         C4-C1=1.4150         C4-C2=1.9381         
C4-C3=1.4150         H5-C2=1.0675         
 C  H  Rav=1.0675 sigma=0.0000  Rmin=1.0675  Rmax=1.0675     1
 C  C  Rav=1.5671 sigma=0.2261  Rmin=1.4027  Rmax=1.9381     6

 selected bond angles (degree)
 --------------------
C3-C1-C2= 49.30                C4-C1-C2= 86.92                C4-C1-C3= 49.73                C3-C2-C1= 81.39                
C4-C2-C1= 46.80                C4-C2-C3= 46.80                H5-C2-C1=137.65                H5-C2-C3=137.65                
H5-C2-C4=141.61                C2-C3-C1= 49.30                C4-C3-C1= 49.73                C4-C3-C2= 86.92                
C2-C4-C1= 46.28                C3-C4-C1= 80.54                C3-C4-C2= 46.28                

 selected dihedral angles (degree)
 ---------------------------------
C3-C2-C1-C4= 36.15            C4-C2-C1-C3=323.85            H5-C2-C1-C3=199.38            H5-C2-C1-C4=235.53            
C2-C3-C1-C4=230.54            C4-C3-C1-C2=129.46            C1-C3-C2-C4= 36.15            C1-C3-C2-H5=160.62            
C4-C3-C2-C1=323.85            C4-C3-C2-H5=124.47            C2-C4-C1-C3= 35.89            C3-C4-C1-C2=324.11            
C1-C4-C3-C2= 35.89            C2-C4-C3-C1=324.11            
           -------------------------------------------------
          |                Final Singlepoint                |
           -------------------------------------------------

          ...................................................
          :                      SETUP                      :
          :.................................................:
          :  # basis functions                  17          :
          :  # atomic orbitals                  17          :
          :  # shells                            9          :
          :  # electrons                        17          :
          :  max. iterations                   250          :
          :  Hamiltonian                  GFN2-xTB          :
          :  restarted?                      false          :
          :  GBSA solvation                  false          :
          :  PC potential                    false          :
          :  electronic temp.          300.0000000     K    :
          :  accuracy                    1.0000000          :
          :  -> integral cutoff          0.2500000E+02      :
          :  -> integral neglect         0.1000000E-07      :
          :  -> SCF convergence          0.1000000E-05 Eh   :
          :  -> wf. convergence          0.1000000E-03 e    :
          :  Broyden damping             0.4000000          :
          ...................................................

 iter      E             dE          RMSdq      gap      omega  full diag
   1     -8.8580011 -0.885800E+01  0.108E-04    2.29       0.0  T
   2     -8.8580011  0.139977E-11  0.730E-05    2.29     612.9  T
   3     -8.8580011  0.445421E-10  0.756E-05    2.29     591.9  T

   *** convergence criteria satisfied after 3 iterations ***

         #    Occupation            Energy/Eh            Energy/eV
      -------------------------------------------------------------
         1        2.0000           -0.7180829             -19.5400
       ...           ...                  ...                  ...
         3        2.0000           -0.6034938             -16.4219
         4        2.0000           -0.5628307             -15.3154
         5        2.0000           -0.5099698             -13.8770
         6        2.0000           -0.5073364             -13.8053
         7        2.0000           -0.4462505             -12.1431
         8        2.0000           -0.4204010             -11.4397
         9        1.0000           -0.3905330             -10.6269 (HOMO)
        10                         -0.3065018              -8.3403 (LUMO)
        11                         -0.2688064              -7.3146
        12                         -0.2458953              -6.6912
        13                          0.1029611               2.8017
        14                          0.1188001               3.2327
       ...                                ...                  ...
        17                          0.6432035              17.5025
      -------------------------------------------------------------
                  HL-Gap            0.0840312 Eh            2.2866 eV
             Fermi-level           -0.3769922 Eh          -10.2585 eV

 SCC (total)                   0 d,  0 h,  0 min,  0.003 sec
 SCC setup                      ...        0 min,  0.000 sec (  1.814%)
 Dispersion                     ...        0 min,  0.000 sec (  0.365%)
 integral evaluation            ...        0 min,  0.001 sec ( 40.231%)
 zeroth order Hamiltonian       ...        0 min,  0.000 sec (  0.547%)
 iterations                     ...        0 min,  0.000 sec ( 11.284%)
 molecular gradient             ...        0 min,  0.001 sec ( 42.045%)
 printout                       ...        0 min,  0.000 sec (  3.272%)

         :::::::::::::::::::::::::::::::::::::::::::::::::::::
         ::                     SUMMARY                     ::
         :::::::::::::::::::::::::::::::::::::::::::::::::::::
         :: total energy              -8.716496242516 Eh    ::
         :: gradient norm              0.000149799739 Eh/a0 ::
         :: HOMO-LUMO gap              2.286604709601 eV    ::
         ::.................................................::
         :: SCC energy                -8.858001079909 Eh    ::
         :: -> isotropic ES           -0.008343551463 Eh    ::
         :: -> anisotropic ES         -0.000023085092 Eh    ::
         :: -> anisotropic XC          0.007109188911 Eh    ::
         :: -> dispersion             -0.002017013934 Eh    ::
         :: repulsion energy           0.141504813744 Eh    ::
         :: add. restraining           0.000000000000 Eh    ::
         :::::::::::::::::::::::::::::::::::::::::::::::::::::

           ------------------------------------------------- 
          |                Numerical Hessian                |
           ------------------------------------------------- 
step length          :   0.00500
SCC accuracy         :   0.30000
Hessian scale factor :   1.00000
frozen atoms in %    :   0.00000    0
RMS gradient         :   0.00015
estimated CPU  time      0.00 min
estimated wall time      0.00 min

writing file <hessian>.

 projected vibrational frequencies (cm-1)
eigval :       -0.00    -0.00     0.00     0.00     0.00     0.00
eigval :      523.19   625.30   744.68   749.79   914.30  1055.80
eigval :     1273.78  1462.47  3183.85
           -------------------------------------------------
          |                Property Printout                |
           -------------------------------------------------

    * Orbital Energies and Occupations

         #    Occupation            Energy/Eh            Energy/eV
      -------------------------------------------------------------
         1        2.0000           -0.7180829             -19.5400
         2        2.0000           -0.6232514             -16.9595
         3        2.0000           -0.6034937             -16.4219
         4        2.0000           -0.5628305             -15.3154
         5        2.0000           -0.5099698             -13.8770
         6        2.0000           -0.5073365             -13.8053
         7        2.0000           -0.4462505             -12.1431
         8        2.0000           -0.4204012             -11.4397
         9        1.0000           -0.3905330             -10.6269 (HOMO)
        10                         -0.3065020              -8.3403 (LUMO)
        11                         -0.2688064              -7.3146
        12                         -0.2458953              -6.6912
        13                          0.1029613               2.8017
        14                          0.1188001               3.2327
        15                          0.1799486               4.8967
        16                          0.2702062               7.3527
        17                          0.6432036              17.5025
      -------------------------------------------------------------
                  HL-Gap            0.0840311 Eh            2.2866 eV
             Fermi-level           -0.3769923 Eh          -10.2585 eV

     #   Z        covCN         q      C6AA      α(0)
     1   6 C      2.762    -0.039    28.949     8.811
     2   6 C      3.504     0.060    21.059     6.801
     3   6 C      2.762    -0.039    28.950     8.811
     4   6 C      2.576    -0.061    29.548     8.887
     5   1 H      0.927     0.079     1.990     2.206

 Mol. C6AA /au·bohr⁶  :        492.142828
 Mol. C8AA /au·bohr⁸  :      13601.742199
 Mol. α(0) /au        :         35.516855


Wiberg/Mayer (AO) data.
largest (>0.10) Wiberg bond orders for each atom
          total WBO             WBO to atom ...
     1  C   2.950        C    2 1.205    C    4 1.182    C    3 0.558
     2  C   3.857        C    1 1.205    C    3 1.205    H    5 0.955    C    4 0.492
     3  C   2.950        C    2 1.205    C    4 1.182    C    1 0.558
     4  C   2.886        C    1 1.182    C    3 1.182    C    2 0.492
     5  H   0.994        C    2 0.955

MOs/occ written to file <molden.input>


molecular dipole:
                 x           y           z       tot (Debye)
 q only:       -0.348      -0.384      -0.021
   full:       -0.636      -0.703      -0.166       2.448
molecular quadrupole (traceless):
                xx          xy          yy          xz          yz          zz
 q only:        0.030       0.475       0.120      -0.155      -0.169      -0.150
  q+dip:       -0.129       1.527       0.149      -1.133      -1.236      -0.020
   full:       -0.612       1.464      -0.355      -1.583      -1.718       0.968

           -------------------------------------------------
          |                Geometry Summary                 |
           -------------------------------------------------

      molecular mass/u    :       49.0508844
   center of mass at/Å    :        0.2414338       0.2658672      -0.0333069
  moments of inertia/u·Å² :        0.2328769E+02   0.2905877E+02   0.4596054E+02
rotational constants/cm⁻¹ :        0.7238859E+00   0.5801221E+00   0.3667849E+00

 * 3 selected distances

     #   Z        #   Z                                     value/Å
     1   6 C      2   6 C                                 1.4027158
     2   6 C      3   6 C                                 1.4027200 (max)
     2   6 C      5   1 H                                 1.0674664 (min)

 * 2 distinct bonds (by element types)

   Z      Z             #   av. dist./Å        max./Å        min./Å
   1 H    6 C           1     1.0674664     1.0674664     1.0674664
   6 C    6 C           2     1.4027179     1.4027200     1.4027158

           -------------------------------------------------
          |               Frequency Printout                |
           -------------------------------------------------
 projected vibrational frequencies (cm-1)
eigval :       -0.00    -0.00     0.00     0.00     0.00     0.00
eigval :      523.19   625.30   744.68   749.79   914.30  1055.80
eigval :     1273.78  1462.47  3183.85
 reduced masses (amu)
   1: 11.23   2: 11.29   3: 11.93   4: 11.62   5: 11.84   6: 10.94   7:  9.96   8:  9.74
   9: 11.78  10:  7.21  11:  3.78  12: 10.76  13: 11.49  14: 11.62  15:  1.96
 IR intensities (amu)
   1:  0.15   2:  0.07   3:  0.10   4:  0.02   5:  0.07   6:  0.19   7:  0.06   8:  0.38
   9:  0.76  10:  0.24  11:  0.62  12:  1.61  13:  0.75  14:  0.21  15:  0.08
 Raman intensities (amu)
   1:  0.00   2:  0.00   3:  0.00   4:  0.00   5:  0.00   6:  0.00   7:  0.00   8:  0.00
   9:  0.00  10:  0.00  11:  0.00  12:  0.00  13:  0.00  14:  0.00  15:  0.00
 output can be read by thermo (or use thermo option).
 writing <g98.out> molden fake output.
 recommended (thermochemical) frequency scaling factor: 1.0
           -------------------------------------------------
          |             Thermodynamic Functions             |
Molecule has the following symmetry elements: (sigma) 
It seems to be the Cs point group
           -------------------------------------------------

cs  symmetry found (for desy threshold:  0.10E+00) used in thermo

          ...................................................
          :                      SETUP                      :
          :.................................................:
          :  # frequencies                           9      :
          :  # imaginary freq.                       0      :
          :  linear?                             false      :
          :  only rotor calc.                    false      :
          :  symmetry                               cs      :
          :  rotational number                       1      :
          :  scaling factor                  1.0000000      :
          :  rotor cutoff                   50.0000000 cm⁻¹ :
          :  imag. cutoff                  -20.0000000 cm⁻¹ :
          :.................................................:

    mode    ω/cm⁻¹     T·S(HO)/kcal·mol⁻¹    T·S(FR)/kcal·mol⁻¹   T·S(vib)
   ------------------------------------------------------------------------
   ------------------------------------------------------------------------

   temp. (K)  partition function   enthalpy   heat capacity  entropy
                                   cal/mol     cal/K/mol   cal/K/mol   J/K/mol
 298.15  VIB   1.23                  403.625      4.708      1.771
         ROT  0.135E+05              888.752      2.981     21.877
         INT  0.166E+05             1292.378      7.689     23.648
         TR   0.332E+27             1481.254      4.968     37.578
         TOT                        2773.6316    12.6573    61.2255   256.1676

   temp. (K)  partition function   enthalpy   heat capacity  entropy
                                   cal/mol     cal/K/mol   cal/K/mol   J/K/mol
 120.00  VIB   1.00                    4.425      0.256      0.042
         ROT  0.344E+04              357.707      2.981     19.164
         INT  0.345E+04              362.132      3.237     19.206
         TR   0.849E+26              596.178      4.968     33.058
         TOT                         958.3101     8.2055    52.2643   218.6737

   temp. (K)  partition function   enthalpy   heat capacity  entropy
                                   cal/mol     cal/K/mol   cal/K/mol   J/K/mol
 100.00  VIB   1.00                    1.124      0.091      0.013
         ROT  0.262E+04              298.089      2.981     18.620
         INT  0.262E+04              299.213      3.072     18.633
         TR   0.646E+26              496.815      4.968     32.153
         TOT                         796.0282     8.0403    50.7858   212.4876

   temp. (K)  partition function   enthalpy   heat capacity  entropy
                                   cal/mol     cal/K/mol   cal/K/mol   J/K/mol
  80.00  VIB   1.00                    0.152      0.019      0.002
         ROT  0.187E+04              238.471      2.981     17.955
         INT  0.187E+04              238.624      3.000     17.957
         TR   0.462E+26              397.452      4.968     31.045
         TOT                         636.0756     7.9678    49.0019   205.0241

   temp. (K)  partition function   enthalpy   heat capacity  entropy
                                   cal/mol     cal/K/mol   cal/K/mol   J/K/mol
  60.00  VIB   1.00                    0.006      0.001      0.000
         ROT  0.122E+04              178.853      2.981     17.097
         INT  0.122E+04              178.859      2.982     17.097
         TR   0.300E+26              298.089      4.968     29.616
         TOT                         476.9483     7.9503    46.7138   195.4505

   temp. (K)  partition function   enthalpy   heat capacity  entropy
                                   cal/mol     cal/K/mol   cal/K/mol   J/K/mol
  40.00  VIB   1.00                    0.000      0.000     -0.000
         ROT   662.                  119.236      2.981     15.889
         INT   662.                  119.236      2.981     15.889
         TR   0.163E+26              198.726      4.968     27.603
         TOT                         317.9616     7.9490    43.4915   181.9686

   temp. (K)  partition function   enthalpy   heat capacity  entropy
                                   cal/mol     cal/K/mol   cal/K/mol   J/K/mol
  20.00  VIB   1.00                    0.000      0.000     -0.000
         ROT   234.                   59.618      2.981     13.823
         INT   234.                   59.618      2.981     13.822
         TR   0.577E+25               99.363      4.968     24.161
         TOT                         158.9808     7.9490    37.9832   158.9218

   temp. (K)  partition function   enthalpy   heat capacity  entropy
                                   cal/mol     cal/K/mol   cal/K/mol   J/K/mol
  10.00  VIB   1.00                    0.000      0.000     -0.000
         ROT   82.8                   29.809      2.981     11.756
         INT   82.8                   29.809      2.981     11.756
         TR   0.204E+25               49.681      4.968     20.719
         TOT                          79.4904     7.9490    32.4749   135.8751

       T/K    H(0)-H(T)+PV         H(T)/Eh          T*S/Eh         G(T)/Eh
   ------------------------------------------------------------------------
    298.15    0.442006E-02    0.284164E-01    0.290902E-01   -0.673864E-03
    120.00    0.152716E-02    0.255235E-01    0.999461E-02    0.155289E-01
    100.00    0.126855E-02    0.252648E-01    0.809322E-02    0.171716E-01
     80.00    0.101365E-02    0.250099E-01    0.624716E-02    0.187628E-01
     60.00    0.760066E-03    0.247564E-01    0.446659E-02    0.202898E-01
     40.00    0.506704E-03    0.245030E-01    0.277233E-02    0.217307E-01
     20.00    0.253352E-03    0.242496E-01    0.121060E-02    0.230390E-01
     10.00    0.126676E-03    0.241230E-01    0.517521E-03    0.236055E-01 (used)
   ------------------------------------------------------------------------

         :::::::::::::::::::::::::::::::::::::::::::::::::::::
         ::                  THERMODYNAMIC                  ::
         :::::::::::::::::::::::::::::::::::::::::::::::::::::
         :: total free energy          -8.692890789076 Eh   ::
         ::.................................................::
         :: total energy               -8.716496241921 Eh   ::
         :: zero point energy           0.023996297854 Eh   ::
         :: G(RRHO) w/o ZPVE           -0.000390845009 Eh   ::
         :: G(RRHO) contrib.            0.023605452845 Eh   ::
         :::::::::::::::::::::::::::::::::::::::::::::::::::::

optimized geometry written to: xtbopt.xyz


           -------------------------------------------------
          | TOTAL ENERGY               -8.716496241921 Eh   |
          | TOTAL ENTHALPY             -8.692373268051 Eh   |
          | TOTAL FREE ENERGY          -8.692890789076 Eh   |
          | GRADIENT NORM               0.000149872915 Eh/α |
          | HOMO-LUMO GAP               2.286601389244 eV   |
           -------------------------------------------------

------------------------------------------------------------------------
 * finished run on 2020/05/12 at 11:45:11.725     
------------------------------------------------------------------------
 total:
 * wall-time:     0 d,  0 h,  0 min,  0.169 sec
 *  cpu-time:     0 d,  0 h,  0 min,  0.168 sec
 * ratio c/w:     0.993 speedup
 SCF:
 * wall-time:     0 d,  0 h,  0 min,  0.004 sec
 *  cpu-time:     0 d,  0 h,  0 min,  0.004 sec
 * ratio c/w:     0.997 speedup
 ANC optimizer:
 * wall-time:     0 d,  0 h,  0 min,  0.058 sec
 *  cpu-time:     0 d,  0 h,  0 min,  0.057 sec
 * ratio c/w:     0.985 speedup
 numerical hessian:
 * wall-time:     0 d,  0 h,  0 min,  0.089 sec
 *  cpu-time:     0 d,  0 h,  0 min,  0.089 sec
 * ratio c/w:     0.998 speedup

