 Entering Gaussian System
 *********************************************
 Gaussian 98:
 frequency output generated by the xtb code
 *********************************************
                         Standard orientation:
 --------------------------------------------------------------------
  Center     Atomic     Atomic              Coordinates (Angstroms)
  Number     Number      Type              X           Y           Z
 --------------------------------------------------------------------
    1          7             0       -0.295922   -0.003445   -0.060425
    2          6             0        1.049531   -0.110736   -0.613106
    3          7             0        0.956448    0.088527    0.716124
    4          1             0       -0.839209    0.858609   -0.146978
    5          1             0       -0.870847   -0.832955    0.104386
 --------------------------------------------------------------------
     1 basis functions        1 primitive gaussians
     1 alpha electrons        1 beta electrons

 Harmonic frequencies (cm**-1), IR intensities (KM/Mole),
 Raman scattering activities (A**4/amu), Raman depolarization ratios,
 reduced masses (AMU), force constants (mDyne/A) and normal coordinates:
                      1                      2                      3
                        a                      a                      a 
 Frequencies --   677.6274               864.3373               872.6724
 Red. masses --    13.3130                 2.4165                 4.7068
 Frc consts  --     0.0000                 0.0000                 0.0000
 IR Inten    --     0.4251                 0.0391                 0.6098
 Raman Activ --     0.0000                 0.0000                 0.0000
 Depolar     --     0.0000                 0.0000                 0.0000
 Atom AN      X      Y      Z        X      Y      Z        X      Y      Z
   1   7     0.04   0.08   0.51    -0.00  -0.07   0.01     0.28   0.04   0.33
   2   6     0.53  -0.04  -0.23     0.01   0.26  -0.04    -0.30  -0.01  -0.11
   3   7    -0.54  -0.04  -0.32    -0.00  -0.21   0.03    -0.02   0.01   0.08
   4   1     0.01   0.00   0.03     0.10  -0.02  -0.65     0.02  -0.08  -0.59
   5   1     0.01   0.01   0.03    -0.10   0.17   0.63     0.02  -0.09  -0.58
                      4                      5                      6
                        a                      a                      a 
 Frequencies --   972.3629              1022.1844              1476.1900
 Red. masses --    11.5700                 3.5307                 2.4755
 Frc consts  --     0.0000                 0.0000                 0.0000
 IR Inten    --     0.5617                 0.0882                 0.2559
 Raman Activ --     0.0000                 0.0000                 0.0000
 Depolar     --     0.0000                 0.0000                 0.0000
 Atom AN      X      Y      Z        X      Y      Z        X      Y      Z
   1   7    -0.68   0.03   0.12     0.01   0.40  -0.06     0.14  -0.00  -0.01
   2   6     0.37   0.02   0.18    -0.00  -0.12   0.02     0.11  -0.03  -0.21
   3   7     0.40  -0.03  -0.15    -0.00  -0.15   0.02     0.06   0.03   0.20
   4   1    -0.11  -0.01  -0.26    -0.57  -0.27  -0.10    -0.57  -0.33   0.06
   5   1    -0.11  -0.06  -0.25     0.56  -0.25   0.17    -0.56   0.35  -0.04
                      7                      8                      9
                        a                      a                      a 
 Frequencies --  1549.8519              3189.4822              3208.6164
 Red. masses --    12.1185                 2.1755                 1.3538
 Frc consts  --     0.0000                 0.0000                 0.0000
 IR Inten    --     0.3392                 0.0795                 0.0435
 Raman Activ --     0.0000                 0.0000                 0.0000
 Depolar     --     0.0000                 0.0000                 0.0000
 Atom AN      X      Y      Z        X      Y      Z        X      Y      Z
   1   7    -0.26   0.00  -0.01     0.01   0.30  -0.04     0.16  -0.00  -0.01
   2   6     0.15  -0.10  -0.66     0.00   0.00  -0.00     0.02   0.00   0.01
   3   7     0.04   0.09   0.62     0.00   0.00  -0.00     0.01  -0.00  -0.01
   4   1     0.15   0.12  -0.01     0.36  -0.57   0.06    -0.34   0.61  -0.07
   5   1     0.14  -0.12   0.02    -0.38  -0.55   0.11    -0.36  -0.59   0.11
