 Entering Gaussian System
 *********************************************
 Gaussian 98:
 frequency output generated by the xtb code
 *********************************************
                         Standard orientation:
 --------------------------------------------------------------------
  Center     Atomic     Atomic              Coordinates (Angstroms)
  Number     Number      Type              X           Y           Z
 --------------------------------------------------------------------
    1          6             0        1.302141   -0.764776    0.151512
    2          6             0        0.341104    0.116009   -0.051261
    3          6             0       -1.105089   -0.242431    0.649748
    4          7             0       -1.061702   -0.294715   -0.565960
    5          1             0        0.523546    1.185912   -0.184039
 --------------------------------------------------------------------
     1 basis functions        1 primitive gaussians
     1 alpha electrons        1 beta electrons

 Harmonic frequencies (cm**-1), IR intensities (KM/Mole),
 Raman scattering activities (A**4/amu), Raman depolarization ratios,
 reduced masses (AMU), force constants (mDyne/A) and normal coordinates:
                      1                      2                      3
                        a                      a                      a 
 Frequencies --  -208.4606               212.5365               429.5228
 Red. masses --    12.6107                11.6884                12.3129
 Frc consts  --     0.0000                 0.0000                 0.0000
 IR Inten    --     0.8250                 0.2336                 0.4525
 Raman Activ --     0.0000                 0.0000                 0.0000
 Depolar     --     0.0000                 0.0000                 0.0000
 Atom AN      X      Y      Z        X      Y      Z        X      Y      Z
   1   6    -0.01   0.03  -0.09    -0.21   0.03   0.45    -0.61  -0.19  -0.11
   2   6     0.02  -0.06  -0.35     0.00   0.04  -0.49    -0.11   0.47   0.05
   3   6    -0.63  -0.11   0.22     0.33  -0.45   0.09     0.27  -0.02   0.04
   4   7     0.57   0.13   0.23    -0.13   0.36   0.02     0.42  -0.27   0.00
   5   1     0.03  -0.02  -0.12     0.03  -0.01  -0.23     0.02   0.12   0.05
                      4                      5                      6
                        a                      a                      a 
 Frequencies --   621.2161               746.4587              1140.8900
 Red. masses --    12.1264                 3.7810                 1.7614
 Frc consts  --     0.0000                 0.0000                 0.0000
 IR Inten    --     0.3824                 0.1273                 0.1087
 Raman Activ --     0.0000                 0.0000                 0.0000
 Depolar     --     0.0000                 0.0000                 0.0000
 Atom AN      X      Y      Z        X      Y      Z        X      Y      Z
   1   6    -0.07  -0.12   0.01    -0.02   0.02   0.11    -0.01  -0.13   0.02
   2   6     0.73   0.40  -0.02     0.07  -0.07  -0.45     0.13  -0.08   0.02
   3   6    -0.30  -0.14  -0.10     0.02   0.11   0.03     0.05   0.06  -0.02
   4   7    -0.34  -0.15   0.12    -0.04  -0.09   0.05     0.09   0.10   0.01
   5   1     0.04   0.11  -0.06    -0.08   0.12   0.85    -0.95   0.13  -0.10
                      7                      8                      9
                        a                      a                      a 
 Frequencies --  1427.6675              1828.5637              2851.5081
 Red. masses --    11.8468                12.9233                 1.7373
 Frc consts  --     0.0000                 0.0000                 0.0000
 IR Inten    --     0.9859                 2.0211                 0.1004
 Raman Activ --     0.0000                 0.0000                 0.0000
 Depolar     --     0.0000                 0.0000                 0.0000
 Atom AN      X      Y      Z        X      Y      Z        X      Y      Z
   1   6    -0.53   0.50  -0.12     0.03  -0.03   0.01    -0.00   0.01  -0.00
   2   6     0.38  -0.50   0.13    -0.15   0.00  -0.02     0.03   0.25  -0.03
   3   6     0.08   0.02  -0.07     0.06  -0.03  -0.71     0.00   0.00   0.01
   4   7     0.06   0.02   0.05     0.05   0.05   0.67     0.01   0.01  -0.01
   5   1     0.03  -0.12   0.01     0.02  -0.02   0.00    -0.16  -0.95   0.12
