5
 energy: -9.396282740091 gnorm: 0.168476091768 xtb: 6.2.2 (9d81278992624c895f80dd42a50cac0aa55982e2)
C         1.29755300000000   -0.89261300000000    0.12033000000000
C         0.21665800000000    0.16361800000000    0.02956700000000
C        -1.00247500000000   -0.16504800000000    0.75174200000000
N        -0.94884500000000   -0.33427200000000   -0.71076000000000
H         0.43710900000000    1.22831400000000   -0.19087900000000
5
 energy: -9.425850967335 gnorm: 0.132147448807 xtb: 6.2.2 (9d81278992624c895f80dd42a50cac0aa55982e2)
C         1.28817397181238   -0.81857485427397    0.12992832880227
C         0.22325893848649    0.14326844759828   -0.00133457249346
C        -1.02330070630875   -0.19626988061349    0.71093653497240
N        -0.98343622825781   -0.32185851505576   -0.65525663205402
H         0.49530402426768    1.19343380234495   -0.18427365922719
5
 energy: -9.414853357849 gnorm: 0.433753777905 xtb: 6.2.2 (9d81278992624c895f80dd42a50cac0aa55982e2)
C         1.25806406721767   -0.70719517984829    0.13015297351057
C         0.28849799670443    0.10758210142401   -0.04088419385192
C        -1.08617468980312   -0.24723937442129    0.59196905094230
N        -1.03388090317104   -0.31013631967396   -0.50503113587778
H         0.57349352905207    1.15698777251952   -0.17620669472317
5
 energy: -9.445675582616 gnorm: 0.077492850034 xtb: 6.2.2 (9d81278992624c895f80dd42a50cac0aa55982e2)
C         1.29067808007841   -0.74297895160501    0.14487897748533
C         0.25658830097486    0.11755232058805   -0.03675250686768
C        -1.06702376369052   -0.23719939138046    0.67962760624296
N        -1.03647053433862   -0.30263665452168   -0.60384073644536
H         0.55622791697588    1.16526167691910   -0.18391334041526
5
 energy: -9.449501794773 gnorm: 0.045858377558 xtb: 6.2.2 (9d81278992624c895f80dd42a50cac0aa55982e2)
C         1.29400126719226   -0.74989007683836    0.15621049333838
C         0.27837112090659    0.11390757001783   -0.05229412361241
C        -1.06855324895531   -0.24340590035428    0.66489645598741
N        -1.04890422460479   -0.29363770850880   -0.58686717720135
H         0.54508508546125    1.17302511568362   -0.18194564851203
5
 energy: -9.451347266761 gnorm: 0.044887362241 xtb: 6.2.2 (9d81278992624c895f80dd42a50cac0aa55982e2)
C         1.29120244207681   -0.75832924630210    0.16111771092493
C         0.32084899928693    0.11193768511691   -0.05837955286011
C        -1.08189447893370   -0.25115605488061    0.64334340811656
N        -1.05693420263311   -0.28463087413209   -0.56053197453064
H         0.52677724020307    1.18217749019789   -0.18554959165073
5
 energy: -9.451838607009 gnorm: 0.016180723025 xtb: 6.2.2 (9d81278992624c895f80dd42a50cac0aa55982e2)
C         1.29486059699398   -0.75889318351304    0.16575743603915
C         0.31962345018161    0.11252436210047   -0.06016727395359
C        -1.07999818789400   -0.25465450758610    0.64975965154542
N        -1.06219929224827   -0.28081353713505   -0.56792282587725
H         0.52771343296667    1.18183586613372   -0.18742698775374
5
 energy: -9.452023467957 gnorm: 0.006439724986 xtb: 6.2.2 (9d81278992624c895f80dd42a50cac0aa55982e2)
C         1.29553064715845   -0.76130828770076    0.16682228618910
C         0.32792040112988    0.11418665184776   -0.05907037545358
C        -1.08379128630174   -0.25750620146410    0.65132814717437
N        -1.06495061460024   -0.27913147659436   -0.56898780418977
H         0.52529085261364    1.18375831391146   -0.19009225372013
5
 energy: -9.452116612916 gnorm: 0.002160409246 xtb: 6.2.2 (9d81278992624c895f80dd42a50cac0aa55982e2)
C         1.29693047896938   -0.76468295259655    0.16404452966050
C         0.33759319001232    0.11653172804160   -0.05672294811829
C        -1.09144935868572   -0.25642718533037    0.65110426480178
N        -1.06609735966053   -0.28213940689370   -0.56792772438668
H         0.52302304936455    1.18671681677903   -0.19049812195731
5
 energy: -9.452135601558 gnorm: 0.001025265237 xtb: 6.2.2 (9d81278992624c895f80dd42a50cac0aa55982e2)
C         1.29825156082521   -0.76519381204217    0.15982965554412
C         0.34076366935986    0.11725385092825   -0.05446963444751
C        -1.09700424609221   -0.25265929765359    0.65049440873018
N        -1.06515513956666   -0.28655016202183   -0.56693889327117
H         0.52314415547380    1.18714842078934   -0.18891553655561
5
 energy: -9.452145014024 gnorm: 0.001188810602 xtb: 6.2.2 (9d81278992624c895f80dd42a50cac0aa55982e2)
C         1.30139771662703   -0.76524655693359    0.15344230989341
C         0.34222752195396    0.11699602667242   -0.05202769580441
C        -1.10401761996531   -0.24519195113939    0.64965386769140
N        -1.06333628016236   -0.29335929031343   -0.56590676676222
H         0.52372866154668    1.18680077171398   -0.18516171501818
5
 energy: -9.452148169864 gnorm: 0.000726230581 xtb: 6.2.2 (9d81278992624c895f80dd42a50cac0aa55982e2)
C         1.30214418949402   -0.76476900994139    0.15151507680319
C         0.34110371109911    0.11601080442759   -0.05125997066713
C        -1.10508998805091   -0.24243807679650    0.64974401476456
N        -1.06169871086631   -0.29471936021242   -0.56596426350008
H         0.52354079832409    1.18591464252272   -0.18403485740055
