      -----------------------------------------------------------      
     |                   =====================                   |     
     |                           x T B                           |     
     |                   =====================                   |     
     |                         S. Grimme                         |     
     |          Mulliken Center for Theoretical Chemistry        |     
     |                    University of Bonn                     |     
      -----------------------------------------------------------      

   * xtb version 6.2.2 (9d81278992624c895f80dd42a50cac0aa55982e2) compiled by '@Darwin' on 04/03/2020

   xtb is free software: you can redistribute it and/or modify it under
   the terms of the GNU Lesser General Public License as published by
   the Free Software Foundation, either version 3 of the License, or
   (at your option) any later version.
   
   xtb is distributed in the hope that it will be useful,
   but WITHOUT ANY WARRANTY; without even the implied warranty of
   MERCHANTABILITY or FITNESS FOR A PARTICULAR PURPOSE.  See the
   GNU Lesser General Public License for more details.
   
   Cite this work as:
   * S. Grimme, C. Bannwarth, P. Shushkov, J. Chem. Theory Comput., 2017,
     13, 1989-2009. DOI: 10.1021/acs.jctc.7b00118
   * C. Bannwarth, S. Ehlert and S. Grimme., J. Chem. Theory Comput., 2019,
     15, 1652-1671. DOI: 10.1021/acs.jctc.8b01176
   * P. Pracht, E. Caldeweyher, S. Ehlert, S. Grimme, ChemRxiv, 2019, preprint.
     DOI: 10.26434/chemrxiv.8326202.v1
   
   for DFT-D4:
   * E. Caldeweyher, C. Bannwarth and S. Grimme, J. Chem. Phys., 2017,
     147, 034112. DOI: 10.1063/1.4993215
   * E. Caldeweyher, S. Ehlert, A. Hansen, H. Neugebauer, S. Spicher,
     C. Bannwarth and S. Grimme, J. Chem. Phys., 2019, 150, 154122.
     DOI: 10.1063/1.5090222
   
   for sTDA-xTB:
   * S. Grimme and C. Bannwarth, J. Chem. Phys., 2016, 145, 054103.
     DOI: 10.1063/1.4959605
   
   in the mass-spec context:
   * V. Asgeirsson, C. Bauer and S. Grimme, Chem. Sci., 2017, 8, 4879.
     DOI: 10.1039/c7sc00601b
   
   for metadynamics refer to:
   * S. Grimme, J. Chem. Theory Comput., 2019, 155, 2847-2862
     DOI: 10.1021/acs.jctc.9b00143
   
   with help from (in alphabetical order)
   C. Bannwarth, F. Bohle, G. Brandenburg, E. Caldeweyher, M. Checinski,
   S. Dohm, S. Ehlert, S. Ehrlich, F. März, H. Neugebauer, J. Pisarek,
   P. Pracht, P. Shushkov, and S. Spicher.
   
 * started run on 2020/05/12 at 11:44:55.838     

           -------------------------------------------------
          |                Calculation Setup                |
           -------------------------------------------------

          program call               : xtb --input H1C3N1_14_S_2.input H1C3N1_14_S_2.xyz --ohess --molden --namespace H1C3N1_14_S_2 output.out
          calculation namespace      : H1C3N1_14_S_2
          coordinate file            : H1C3N1_14_S_2.xyz
          number of atoms            :                     5
          number of electrons        :                    18
          charge                     :                     0
          spin                       :                   1.0
          first test random number   :      0.02932641124298

   ID    Z sym.   atoms
    1    6 C      1-3
    2    7 N      4
    3    1 H      5

           -------------------------------------------------
          |                 G F N 2 - x T B                 |
           -------------------------------------------------

        Reference                      10.1021/acs.jctc.8b01176
      * Hamiltonian:
        H0-scaling (s, p, d)           1.850000    2.230000    2.230000
        zeta-weighting                 0.500000
      * Dispersion:
        s8                             2.700000
        a1                             0.520000
        a2                             5.000000
        s9                             5.000000
      * Repulsion:
        kExp                           1.500000    1.000000
        rExp                           1.000000
      * Coulomb:
        alpha                          2.000000
        third order                    shell-resolved
        anisotropic                    true
        a3                             3.000000
        a5                             4.000000
        cn-shift                       1.200000
        cn-exp                         4.000000
        max-rad                        5.000000


          ...................................................
          :                      SETUP                      :
          :.................................................:
          :  # basis functions                  17          :
          :  # atomic orbitals                  17          :
          :  # shells                            9          :
          :  # electrons                        18          :
          :  max. iterations                   250          :
          :  Hamiltonian                  GFN2-xTB          :
          :  restarted?                      false          :
          :  GBSA solvation                  false          :
          :  PC potential                    false          :
          :  electronic temp.          300.0000000     K    :
          :  accuracy                    1.0000000          :
          :  -> integral cutoff          0.2500000E+02      :
          :  -> integral neglect         0.1000000E-07      :
          :  -> SCF convergence          0.1000000E-05 Eh   :
          :  -> wf. convergence          0.1000000E-03 e    :
          :  Broyden damping             0.4000000          :
          ...................................................

 iter      E             dE          RMSdq      gap      omega  full diag
   1     -9.3854650 -0.938546E+01  0.936E+00    0.09       0.0  T
   2     -8.7069836  0.678481E+00  0.952E+00    0.75       1.0  T
   3     -8.1555043  0.551479E+00  0.113E+01    1.30       1.0  T
   4     -9.2062311 -0.105073E+01  0.688E+00    0.37       1.0  T
   5     -9.4417708 -0.235540E+00  0.363E+00    0.06       1.0  T
   6     -9.4622093 -0.204385E-01  0.280E+00    0.16       1.0  T
   7     -9.4624962 -0.286948E-03  0.244E+00    0.15       1.0  T
   8     -9.4660365 -0.354027E-02  0.116E+00    0.09       1.0  T
   9     -9.4664307 -0.394194E-03  0.943E-01    0.09       1.0  T
  10     -9.4670899 -0.659198E-03  0.381E-01    0.10       1.0  T
  11     -9.4671082 -0.183137E-04  0.244E-01    0.10       1.0  T
  12     -9.4671232 -0.150247E-04  0.877E-02    0.10       1.0  T
  13     -9.4671224  0.801465E-06  0.494E-02    0.10       1.0  T
  14     -9.4671251 -0.266446E-05  0.136E-02    0.10       3.3  T
  15     -9.4671256 -0.523251E-06  0.580E-03    0.10       7.7  T
  16     -9.4671257 -0.131116E-06  0.280E-03    0.10      16.0  T
  17     -9.4671258 -0.159805E-07  0.178E-03    0.10      25.1  T
  18     -9.4671258 -0.862899E-09  0.219E-04    0.10     204.2  T
  19     -9.4671258 -0.988951E-10  0.612E-05    0.10     730.9  T

   *** convergence criteria satisfied after 19 iterations ***

         #    Occupation            Energy/Eh            Energy/eV
      -------------------------------------------------------------
         1        2.0000           -0.7331613             -19.9503
       ...           ...                  ...                  ...
         4        2.0000           -0.6023835             -16.3917
         5        2.0000           -0.5411887             -14.7265
         6        2.0000           -0.5052812             -13.7494
         7        2.0000           -0.4783669             -13.0170
         8        1.9983           -0.4613526             -12.5540
         9        1.0017           -0.4492565             -12.2249
        10        0.8825           -0.3937615             -10.7148 (HOMO)
        11        0.1175           -0.3899295             -10.6105 (LUMO)
        12                         -0.3475470              -9.4572
        13                         -0.1249712              -3.4006
        14                          0.0176157               0.4793
        15                          0.0322871               0.8786
       ...                                ...                  ...
        17                          0.2348017               6.3893
      -------------------------------------------------------------
                  HL-Gap            0.0038320 Eh            0.1043 eV
             Fermi-level           -0.4235750 Eh          -11.5261 eV

 transition dipole moment (au) for excitation:           9          10
     X       Y       Z   
  -0.2949  -0.0107  -0.0951  total (au/Debye):    0.310   0.788
 dE (eV)             :    1.510
 oscillator strength :  0.50310E-02

 SCC (total)                   0 d,  0 h,  0 min,  0.005 sec
 SCC setup                      ...        0 min,  0.000 sec (  1.799%)
 Dispersion                     ...        0 min,  0.000 sec (  0.314%)
 integral evaluation            ...        0 min,  0.001 sec ( 21.075%)
 zeroth order Hamiltonian       ...        0 min,  0.000 sec (  0.548%)
 iterations                     ...        0 min,  0.002 sec ( 37.299%)
 molecular gradient             ...        0 min,  0.001 sec ( 21.309%)
 printout                       ...        0 min,  0.001 sec ( 17.501%)

         :::::::::::::::::::::::::::::::::::::::::::::::::::::
         ::                     SUMMARY                     ::
         :::::::::::::::::::::::::::::::::::::::::::::::::::::
         :: total energy              -9.396282739855 Eh    ::
         :: gradient norm              0.168476122557 Eh/a0 ::
         :: HOMO-LUMO gap              0.104274201454 eV    ::
         ::.................................................::
         :: SCC energy                -9.467125756551 Eh    ::
         :: -> isotropic ES           -0.016407716163 Eh    ::
         :: -> anisotropic ES          0.001366453878 Eh    ::
         :: -> anisotropic XC          0.012214278546 Eh    ::
         :: -> dispersion             -0.002102202492 Eh    ::
         :: repulsion energy           0.070842943102 Eh    ::
         :: add. restraining           0.000000000000 Eh    ::
         :::::::::::::::::::::::::::::::::::::::::::::::::::::

      ----------------------------------------------------------- 
     |                   =====================                   |
     |                        A N C O P T                        |
     |                   =====================                   |
     |               Approximate Normal Coordinate               |
     |                Rational Function Optimizer                |
      ----------------------------------------------------------- 

          ...................................................
          :                      SETUP                      :
          :.................................................:
          :   optimization level            normal          :
          :   max. optcycles                   200          :
          :   ANC micro-cycles                  20          :
          :   degrees of freedom                 9          :
          :.................................................:
          :   RF solver                   davidson          :
          :   write xtbopt.log                true          :
          :   linear?                        false          :
          :   energy convergence         0.5000000E-05 Eh   :
          :   grad. convergence          0.1000000E-02 Eh/α :
          :   maximium RF displ.         1.0000000          :
          :   Hlow (freq-cutoff)         0.1000000E-01      :
          :   Hmax (freq-cutoff)         5.0000000          :
          :   S6 in model hess.         20.0000000          :
          ...................................................

generating ANC from model Hessian ...
Using Lindh-Hessian (1995)
 Shifting diagonal of input Hessian by    0.0000000000000000     
 Lowest  eigenvalues of input Hessian
   -0.000000   -0.000000    0.000000    0.000000    0.000000    0.000000
    0.063522    0.079976    0.106839    0.149138    0.394283    0.843912
    0.926766    1.149440    1.580402
 Highest eigenvalues
    0.149138    0.394283    0.843912    0.926766    1.149440    1.580402


........................................................................
.............................. CYCLE    1 ..............................
........................................................................
   1     -9.4671258 -0.946713E+01  0.165E-05    0.10       0.0  T
   2     -9.4671258  0.263789E-11  0.276E-05    0.10    1619.2  T
   3     -9.4671258 -0.331291E-11  0.955E-06    0.10    4680.9  T
     SCC iter.                  ...        0 min,  0.000 sec
     gradient                   ...        0 min,  0.001 sec
 * total energy  :    -9.3962827 Eh     change       -0.2357528E-09 Eh
   gradient norm :     0.1684761 Eh/α   predicted     0.0000000E+00 (-100.00%)
   displ. norm   :     0.2620261 α      lambda       -0.3344842E-01
   maximum displ.:     0.1538984 α      in ANC's #7, #3, #4, ...

........................................................................
.............................. CYCLE    2 ..............................
........................................................................
   1     -9.4631226 -0.946312E+01  0.316E+00    0.41       0.0  T
   2     -8.3705565  0.109257E+01  0.105E+01    1.14       1.0  T
   3     -9.5067652 -0.113621E+01  0.171E+00    0.25       1.0  T
   4     -9.4987046  0.806057E-02  0.146E+00    0.37       1.0  T
   5     -9.5126683 -0.139637E-01  0.118E+00    0.29       1.0  T
   6     -9.5157252 -0.305683E-02  0.818E-01    0.30       1.0  T
   7     -9.5161971 -0.471990E-03  0.517E-01    0.30       1.0  T
   8     -9.5162425 -0.453118E-04  0.337E-01    0.30       1.0  T
   9     -9.5162473 -0.479322E-05  0.253E-01    0.30       1.0  T
  10     -9.5162589 -0.116428E-04  0.154E-01    0.29       1.0  T
  11     -9.5162631 -0.418549E-05  0.670E-02    0.29       1.0  T
  12     -9.5162633 -0.202574E-06  0.329E-02    0.29       1.4  T
  13     -9.5162638 -0.500636E-06  0.186E-03    0.29      24.0  T
  14     -9.5162638 -0.119382E-07  0.355E-04    0.29     126.0  T
  15     -9.5162638 -0.514007E-10  0.346E-04    0.29     129.3  T
     SCC iter.                  ...        0 min,  0.001 sec
     gradient                   ...        0 min,  0.001 sec
 * total energy  :    -9.4258510 Eh     change       -0.2956823E-01 Eh
   gradient norm :     0.1321442 Eh/α   predicted    -0.1787246E-01 ( -39.56%)
   displ. norm   :     0.5135987 α      lambda       -0.6207648E-01
   maximum displ.:     0.4173472 α      in ANC's #7, #3, #4, ...

........................................................................
.............................. CYCLE    3 ..............................
........................................................................
   1     -9.4862410 -0.948624E+01  0.681E+00    1.71       0.0  T
   2     -8.1649841  0.132126E+01  0.120E+01    1.02       1.0  T
   3     -9.5340364 -0.136905E+01  0.439E+00    1.51       1.0  T
   4     -9.5746465 -0.406101E-01  0.393E+00    1.13       1.0  T
   5     -9.5982952 -0.236487E-01  0.272E+00    1.31       1.0  T
   6     -9.5954952  0.279998E-02  0.338E+00    1.15       1.0  T
   7     -9.6146068 -0.191116E-01  0.282E+00    1.18       1.0  T
   8     -9.6458919 -0.312851E-01  0.153E+00    1.20       1.0  T
   9     -9.6598381 -0.139462E-01  0.175E-01    1.22       1.0  T
  10     -9.6577143  0.212383E-02  0.569E-01    1.21       1.0  T
  11     -9.6595517 -0.183744E-02  0.227E-01    1.21       1.0  T
  12     -9.6598334 -0.281703E-03  0.114E-01    1.22       1.0  T
  13     -9.6599144 -0.809930E-04  0.138E-02    1.22       3.2  T
  14     -9.6599074  0.704358E-05  0.332E-02    1.22       1.3  T
  15     -9.6599150 -0.766463E-05  0.276E-03    1.22      16.2  T
  16     -9.6599151 -0.411331E-07  0.121E-03    1.22      36.9  T
  17     -9.6599151 -0.891037E-08  0.104E-04    1.22     430.6  T
  18     -9.6599151  0.131291E-10  0.996E-05    1.22     449.0  T
     SCC iter.                  ...        0 min,  0.001 sec
     gradient                   ...        0 min,  0.001 sec
 * total energy  :    -9.4148534 Eh     change        0.1099761E-01 Eh
   gradient norm :     0.4336404 Eh/α   predicted    -0.3922563E-01 (-456.67%)
   displ. norm   :     0.2809250 α      lambda       -0.1089905E+00
   maximum displ.:     0.2491880 α      in ANC's #7, #9, #8, ...

........................................................................
.............................. CYCLE    4 ..............................
........................................................................
   1     -9.4588682 -0.945887E+01  0.423E+00    0.28       0.0  T
   2     -8.8761835  0.582685E+00  0.891E+00    0.79       1.0  T
   3     -9.5452095 -0.669026E+00  0.224E+00    0.57       1.0  T
   4     -9.5152780  0.299314E-01  0.240E+00    0.47       1.0  T
   5     -9.5117562  0.352182E-02  0.254E+00    0.64       1.0  T
   6     -9.5552983 -0.435421E-01  0.950E-01    0.58       1.0  T
   7     -9.5617879 -0.648958E-02  0.227E-01    0.59       1.0  T
   8     -9.5612364  0.551469E-03  0.363E-01    0.60       1.0  T
   9     -9.5618860 -0.649576E-03  0.145E-01    0.59       1.0  T
  10     -9.5620244 -0.138422E-03  0.495E-02    0.60       1.0  T
  11     -9.5620200  0.446925E-05  0.521E-02    0.60       1.0  T
  12     -9.5620216 -0.162719E-05  0.468E-02    0.59       1.0  T
  13     -9.5620345 -0.129252E-04  0.219E-02    0.60       2.0  T
  14     -9.5620378 -0.325652E-05  0.598E-03    0.60       7.5  T
  15     -9.5620379 -0.113434E-06  0.454E-03    0.60       9.9  T
  16     -9.5620380 -0.150682E-06  0.210E-04    0.60     213.0  T
  17     -9.5620380  0.278133E-09  0.273E-04    0.60     163.8  T
     SCC iter.                  ...        0 min,  0.001 sec
     gradient                   ...        0 min,  0.001 sec
 * total energy  :    -9.4456756 Eh     change       -0.3082222E-01 Eh
   gradient norm :     0.0774500 Eh/α   predicted    -0.5879596E-01 (  90.76%)
   displ. norm   :     0.0820755 α      lambda       -0.4737437E-02
   maximum displ.:     0.0568105 α      in ANC's #7, #1, #5, ...

........................................................................
.............................. CYCLE    5 ..............................
........................................................................
   1     -9.5040884 -0.950409E+01  0.303E+00    0.78       0.0  T
   2     -8.2118569  0.129223E+01  0.114E+01    1.23       1.0  T
   3     -9.4989462 -0.128709E+01  0.308E+00    0.54       1.0  T
   4     -9.5562077 -0.572616E-01  0.173E+00    0.70       1.0  T
   5     -9.5752856 -0.190779E-01  0.333E-01    0.73       1.0  T
   6     -9.5750810  0.204642E-03  0.249E-01    0.72       1.0  T
   7     -9.5752686 -0.187601E-03  0.106E-01    0.73       1.0  T
   8     -9.5753322 -0.636325E-04  0.682E-02    0.73       1.0  T
   9     -9.5753582 -0.259208E-04  0.420E-02    0.73       1.1  T
  10     -9.5753616 -0.340827E-05  0.407E-02    0.72       1.1  T
  11     -9.5753601  0.151532E-05  0.207E-02    0.72       2.2  T
  12     -9.5753626 -0.250214E-05  0.186E-02    0.72       2.4  T
  13     -9.5753634 -0.833535E-06  0.266E-03    0.72      16.8  T
  14     -9.5753634 -0.590403E-07  0.883E-04    0.72      50.6  T
  15     -9.5753634 -0.128803E-08  0.516E-04    0.72      86.6  T
     SCC iter.                  ...        0 min,  0.001 sec
     gradient                   ...        0 min,  0.001 sec
 * total energy  :    -9.4495018 Eh     change       -0.3826212E-02 Eh
   gradient norm :     0.0458257 Eh/α   predicted    -0.2384675E-02 ( -37.68%)
   displ. norm   :     0.1183470 α      lambda       -0.4854300E-02
   maximum displ.:     0.0936875 α      in ANC's #7, #5, #4, ...

........................................................................
.............................. CYCLE    6 ..............................
........................................................................
   1     -9.5194584 -0.951946E+01  0.320E+00    1.09       0.0  T
   2     -8.1910939  0.132836E+01  0.115E+01    1.11       1.0  T
   3     -9.5159685 -0.132487E+01  0.335E+00    0.84       1.0  T
   4     -9.5956660 -0.796974E-01  0.117E+00    1.01       1.0  T
   5     -9.5845298  0.111362E-01  0.134E+00    1.03       1.0  T
   6     -9.5830250  0.150481E-02  0.160E+00    0.99       1.0  T
   7     -9.5982673 -0.152424E-01  0.698E-01    1.00       1.0  T
   8     -9.6006223 -0.235503E-02  0.309E-01    1.01       1.0  T
   9     -9.6008238 -0.201432E-03  0.206E-01    1.01       1.0  T
  10     -9.6007749  0.489217E-04  0.140E-01    1.01       1.0  T
  11     -9.6009626 -0.187739E-03  0.574E-02    1.01       1.0  T
  12     -9.6009402  0.224045E-04  0.690E-02    1.01       1.0  T
  13     -9.6009640 -0.237867E-04  0.279E-02    1.01       1.6  T
  14     -9.6009688 -0.483693E-05  0.930E-03    1.01       4.8  T
  15     -9.6009694 -0.585566E-06  0.493E-04    1.01      90.7  T
  16     -9.6009694 -0.154140E-08  0.306E-04    1.01     146.1  T
     SCC iter.                  ...        0 min,  0.001 sec
     gradient                   ...        0 min,  0.001 sec
 * total energy  :    -9.4513473 Eh     change       -0.1845472E-02 Eh
   gradient norm :     0.0448542 Eh/α   predicted    -0.2461144E-02 (  33.36%)
   displ. norm   :     0.0266383 α      lambda       -0.8062840E-03
   maximum displ.:     0.0184822 α      in ANC's #1, #7, #9, ...

........................................................................
.............................. CYCLE    7 ..............................
........................................................................
   1     -9.5855453 -0.958555E+01  0.938E-01    0.95       0.0  T
   2     -9.4331983  0.152347E+00  0.407E+00    1.30       1.0  T
   3     -9.5619780 -0.128780E+00  0.198E+00    1.00       1.0  T
   4     -9.5871729 -0.251948E-01  0.873E-01    0.98       1.0  T
   5     -9.5922827 -0.510987E-02  0.352E-01    0.96       1.0  T
   6     -9.5928990 -0.616311E-03  0.234E-01    0.97       1.0  T
   7     -9.5927903  0.108709E-03  0.259E-01    0.97       1.0  T
   8     -9.5932438 -0.453478E-03  0.105E-01    0.97       1.0  T
   9     -9.5933130 -0.691717E-04  0.516E-02    0.97       1.0  T
  10     -9.5933317 -0.186741E-04  0.185E-02    0.97       2.4  T
  11     -9.5933334 -0.173164E-05  0.112E-02    0.97       4.0  T
  12     -9.5933343 -0.921676E-06  0.322E-03    0.97      13.9  T
  13     -9.5933344 -0.785859E-07  0.741E-04    0.97      60.4  T
  14     -9.5933344 -0.393099E-08  0.224E-04    0.97     199.6  T
     SCC iter.                  ...        0 min,  0.001 sec
     gradient                   ...        0 min,  0.001 sec
 * total energy  :    -9.4518386 Eh     change       -0.4913402E-03 Eh
   gradient norm :     0.0161606 Eh/α   predicted    -0.4034270E-03 ( -17.89%)
   displ. norm   :     0.0218264 α      lambda       -0.2566764E-03
   maximum displ.:     0.0159662 α      in ANC's #9, #5, #2, ...

........................................................................
.............................. CYCLE    8 ..............................
........................................................................
   1     -9.5923969 -0.959240E+01  0.107E-01    1.00       0.0  T
   2     -9.5873509  0.504610E-02  0.768E-01    1.01       1.0  T
   3     -9.5923309 -0.498010E-02  0.124E-01    1.00       1.0  T
   4     -9.5921961  0.134898E-03  0.165E-01    1.01       1.0  T
   5     -9.5924057 -0.209652E-03  0.306E-02    1.00       1.5  T
   6     -9.5924082 -0.245697E-05  0.265E-02    1.01       1.7  T
   7     -9.5924138 -0.561471E-05  0.825E-03    1.01       5.4  T
   8     -9.5924139 -0.169668E-06  0.651E-03    1.01       6.9  T
   9     -9.5924142 -0.303846E-06  0.227E-03    1.01      19.7  T
  10     -9.5924143 -0.422333E-07  0.542E-05    1.01     825.2  T
  11     -9.5924143 -0.612488E-11  0.387E-05    1.01    1154.9  T
     SCC iter.                  ...        0 min,  0.001 sec
     gradient                   ...        0 min,  0.001 sec
 * total energy  :    -9.4520235 Eh     change       -0.1848609E-03 Eh
   gradient norm :     0.0064313 Eh/α   predicted    -0.1283985E-03 ( -30.54%)
   displ. norm   :     0.0274527 α      lambda       -0.1504492E-03
   maximum displ.:     0.0170606 α      in ANC's #9, #5, #1, ...

........................................................................
.............................. CYCLE    9 ..............................
........................................................................
   1     -9.5921944 -0.959219E+01  0.335E-01    1.05       0.0  T
   2     -9.5272387  0.649557E-01  0.262E+00    0.94       1.0  T
   3     -9.5924657 -0.652270E-01  0.243E-01    1.05       1.0  T
   4     -9.5922898  0.175893E-03  0.281E-01    1.04       1.0  T
   5     -9.5928930 -0.603175E-03  0.836E-02    1.05       1.0  T
   6     -9.5929059 -0.129328E-04  0.758E-02    1.05       1.0  T
   7     -9.5929485 -0.426010E-04  0.265E-02    1.05       1.7  T
   8     -9.5929541 -0.555754E-05  0.921E-03    1.05       4.9  T
   9     -9.5929546 -0.486056E-06  0.373E-03    1.05      12.0  T
  10     -9.5929547 -0.924300E-07  0.167E-03    1.05      26.8  T
  11     -9.5929547 -0.193614E-07  0.572E-04    1.05      78.1  T
  12     -9.5929547 -0.264488E-08  0.136E-05    1.05    3277.5  T
     SCC iter.                  ...        0 min,  0.001 sec
     gradient                   ...        0 min,  0.001 sec
 * total energy  :    -9.4521166 Eh     change       -0.9314496E-04 Eh
   gradient norm :     0.0021574 Eh/α   predicted    -0.7527947E-04 ( -19.18%)
   displ. norm   :     0.0193523 α      lambda       -0.2803629E-04
   maximum displ.:     0.0165408 α      in ANC's #1, #9, #5, ...

........................................................................
.............................. CYCLE   10 ..............................
........................................................................
   1     -9.5935038 -0.959350E+01  0.183E-01    1.07       0.0  T
   2     -9.5477840  0.457197E-01  0.223E+00    1.01       1.0  T
   3     -9.5937076 -0.459236E-01  0.627E-02    1.06       1.0  T
   4     -9.5935159  0.191721E-03  0.152E-01    1.06       1.0  T
   5     -9.5937184 -0.202488E-03  0.147E-02    1.06       3.0  T
   6     -9.5937005  0.178895E-04  0.469E-02    1.06       1.0  T
   7     -9.5937168 -0.163064E-04  0.179E-02    1.06       2.5  T
   8     -9.5937196 -0.274961E-05  0.207E-03    1.06      21.6  T
   9     -9.5937196 -0.208889E-07  0.626E-04    1.06      71.4  T
  10     -9.5937196 -0.206704E-08  0.264E-04    1.06     169.5  T
     SCC iter.                  ...        0 min,  0.001 sec
     gradient                   ...        0 min,  0.001 sec
 * total energy  :    -9.4521356 Eh     change       -0.1898864E-04 Eh
   gradient norm :     0.0010220 Eh/α   predicted    -0.1402351E-04 ( -26.15%)
   displ. norm   :     0.0286478 α      lambda       -0.1229250E-04
   maximum displ.:     0.0250306 α      in ANC's #1, #3, #2, ...

........................................................................
.............................. CYCLE   11 ..............................
........................................................................
   1     -9.5939387 -0.959394E+01  0.185E-01    1.07       0.0  T
   2     -9.5522206  0.417181E-01  0.214E+00    1.02       1.0  T
   3     -9.5940802 -0.418596E-01  0.873E-02    1.07       1.0  T
   4     -9.5937544  0.325807E-03  0.203E-01    1.06       1.0  T
   5     -9.5940978 -0.343398E-03  0.432E-02    1.07       1.0  T
   6     -9.5941000 -0.220650E-05  0.412E-02    1.07       1.1  T
   7     -9.5941129 -0.129318E-04  0.143E-02    1.07       3.1  T
   8     -9.5941147 -0.174841E-05  0.131E-03    1.07      34.2  T
   9     -9.5941147 -0.725760E-08  0.256E-04    1.07     174.7  T
  10     -9.5941147 -0.478670E-09  0.584E-05    1.07     765.5  T
     SCC iter.                  ...        0 min,  0.001 sec
     gradient                   ...        0 min,  0.001 sec
 * total energy  :    -9.4521450 Eh     change       -0.9412466E-05 Eh
   gradient norm :     0.0011834 Eh/α   predicted    -0.6147426E-05 ( -34.69%)
   displ. norm   :     0.0090014 α      lambda       -0.3254787E-05
   maximum displ.:     0.0073095 α      in ANC's #1, #3, #4, ...

........................................................................
.............................. CYCLE   12 ..............................
........................................................................
   1     -9.5939798 -0.959398E+01  0.103E-01    1.06       0.0  T
   2     -9.5567304  0.372494E-01  0.205E+00    1.09       1.0  T
   3     -9.5940017 -0.372713E-01  0.845E-02    1.06       1.0  T
   4     -9.5940467 -0.449436E-04  0.397E-02    1.06       1.1  T
   5     -9.5940562 -0.953810E-05  0.197E-02    1.06       2.3  T
   6     -9.5940564 -0.197532E-06  0.168E-02    1.06       2.7  T
   7     -9.5940588 -0.237375E-05  0.392E-03    1.06      11.4  T
   8     -9.5940589 -0.123236E-06  0.168E-04    1.06     266.2  T
   9     -9.5940589 -0.114401E-09  0.399E-05    1.06    1120.8  T
     SCC iter.                  ...        0 min,  0.001 sec
     gradient                   ...        0 min,  0.001 sec
 * total energy  :    -9.4521482 Eh     change       -0.3155840E-05 Eh
   gradient norm :     0.0007216 Eh/α   predicted    -0.1627801E-05 ( -48.42%)
   displ. norm   :     0.0064647 α      lambda       -0.1634710E-05
   maximum displ.:     0.0039208 α      in ANC's #4, #1, #2, ...

   *** GEOMETRY OPTIMIZATION CONVERGED AFTER 12 ITERATIONS ***

------------------------------------------------------------------------
 total energy gain   :        -0.0558654 Eh      -35.0561 kcal/mol
 total RMSD          :         0.2842486 a0        0.1504 Å
 total power (kW/mol):       -12.2228889 (step)-3802.8246 (real)
------------------------------------------------------------------------

 ANCopt (total)                0 d,  0 h,  0 min,  0.039 sec
 optimizer setup                ...        0 min,  0.000 sec (  0.166%)
 model hessian                  ...        0 min,  0.000 sec (  0.221%)
 ANC generation                 ...        0 min,  0.000 sec (  0.182%)
 coordinate transformation      ...        0 min,  0.000 sec (  0.060%)
 single point calculation       ...        0 min,  0.037 sec ( 96.475%)
 optimization log               ...        0 min,  0.000 sec (  0.884%)
 hessian update                 ...        0 min,  0.000 sec (  0.073%)
 rational function              ...        0 min,  0.000 sec (  0.695%)

================
 final structure:
================
5
 xtb: 6.2.2 (9d81278992624c895f80dd42a50cac0aa55982e2)
C         1.30214418949402   -0.76476900994139    0.15151507680319
C         0.34110371109911    0.11601080442759   -0.05125997066713
C        -1.10508998805091   -0.24243807679650    0.64974401476456
N        -1.06169871086631   -0.29471936021242   -0.56596426350008
H         0.52354079832409    1.18591464252272   -0.18403485740055

 Bond Distances (Angstroems)
 ---------------------------
C1-C2=1.3193         C2-C1=1.3193         C2-C3=1.6466         C2-N4=1.5497         C2-H5=1.0934         C3-C2=1.6466         
C3-N4=1.2176         N4-C2=1.5497         N4-C3=1.2176         H5-C2=1.0934         
 C  H  Rav=1.0934 sigma=0.0000  Rmin=1.0934  Rmax=1.0934     1
 C  C  Rav=1.4829 sigma=0.1637  Rmin=1.3193  Rmax=1.6466     2
 N  C  Rav=1.3836 sigma=0.1660  Rmin=1.2176  Rmax=1.5497     2

 selected bond angles (degree)
 --------------------
C3-C2-C1=115.41                N4-C2-C1=122.24                N4-C2-C3= 44.66                H5-C2-C1=123.39                
H5-C2-C3=114.28                H5-C2-N4=111.72                N4-C3-C2= 63.45                C3-N4-C2= 71.90                

 selected dihedral angles (degree)
 ---------------------------------
N4-C3-C2-C1=248.92            N4-C3-C2-H5= 96.95            C3-N4-C2-C1= 94.78            C3-N4-C2-H5=256.90            
           -------------------------------------------------
          |                Final Singlepoint                |
           -------------------------------------------------

          ...................................................
          :                      SETUP                      :
          :.................................................:
          :  # basis functions                  17          :
          :  # atomic orbitals                  17          :
          :  # shells                            9          :
          :  # electrons                        18          :
          :  max. iterations                   250          :
          :  Hamiltonian                  GFN2-xTB          :
          :  restarted?                      false          :
          :  GBSA solvation                  false          :
          :  PC potential                    false          :
          :  electronic temp.          300.0000000     K    :
          :  accuracy                    1.0000000          :
          :  -> integral cutoff          0.2500000E+02      :
          :  -> integral neglect         0.1000000E-07      :
          :  -> SCF convergence          0.1000000E-05 Eh   :
          :  -> wf. convergence          0.1000000E-03 e    :
          :  Broyden damping             0.4000000          :
          ...................................................

 iter      E             dE          RMSdq      gap      omega  full diag
   1     -9.5940589 -0.959406E+01  0.130E-04    1.06       0.0  T
   2     -9.5940588  0.718967E-07  0.284E-03    1.06      15.8  T
   3     -9.5940589 -0.711564E-07  0.319E-04    1.06     140.1  T
   4     -9.5940589 -0.706827E-09  0.135E-04    1.06     332.1  T

   *** convergence criteria satisfied after 4 iterations ***

         #    Occupation            Energy/Eh            Energy/eV
      -------------------------------------------------------------
         1        2.0000           -0.7249621             -19.7272
       ...           ...                  ...                  ...
         4        2.0000           -0.5774707             -15.7138
         5        2.0000           -0.5649464             -15.3730
         6        2.0000           -0.5088287             -13.8459
         7        2.0000           -0.4703210             -12.7981
         8        1.6670           -0.4389688             -11.9449
         9        1.3330           -0.4376493             -11.9090
        10        1.0000           -0.3622865              -9.8583 (HOMO)
        11                         -0.3233801              -8.7996 (LUMO)
        12                         -0.2828054              -7.6955
        13                         -0.1253804              -3.4118
        14                         -0.0429376              -1.1684
        15                          0.1660168               4.5175
       ...                                ...                  ...
        17                          0.5656482              15.3921
      -------------------------------------------------------------
                  HL-Gap            0.0389064 Eh            1.0587 eV
             Fermi-level           -0.3905711 Eh          -10.6280 eV

 transition dipole moment (au) for excitation:           9          10
     X       Y       Z   
  -0.0002  -0.0598  -0.0201  total (au/Debye):    0.063   0.160
 dE (eV)             :    2.051
 oscillator strength :  0.28274E-03

 SCC (total)                   0 d,  0 h,  0 min,  0.004 sec
 SCC setup                      ...        0 min,  0.000 sec (  1.983%)
 Dispersion                     ...        0 min,  0.000 sec (  0.280%)
 integral evaluation            ...        0 min,  0.001 sec ( 28.416%)
 zeroth order Hamiltonian       ...        0 min,  0.000 sec (  0.534%)
 iterations                     ...        0 min,  0.001 sec ( 19.178%)
 molecular gradient             ...        0 min,  0.001 sec ( 27.742%)
 printout                       ...        0 min,  0.001 sec ( 21.607%)

         :::::::::::::::::::::::::::::::::::::::::::::::::::::
         ::                     SUMMARY                     ::
         :::::::::::::::::::::::::::::::::::::::::::::::::::::
         :: total energy              -9.452148171383 Eh    ::
         :: gradient norm              0.000726946373 Eh/a0 ::
         :: HOMO-LUMO gap              1.058697332556 eV    ::
         ::.................................................::
         :: SCC energy                -9.594058903559 Eh    ::
         :: -> isotropic ES           -0.005470961134 Eh    ::
         :: -> anisotropic ES          0.001120785286 Eh    ::
         :: -> anisotropic XC          0.009924388379 Eh    ::
         :: -> dispersion             -0.002118624113 Eh    ::
         :: repulsion energy           0.141910672962 Eh    ::
         :: add. restraining           0.000000000000 Eh    ::
         :::::::::::::::::::::::::::::::::::::::::::::::::::::

           ------------------------------------------------- 
          |                Numerical Hessian                |
           ------------------------------------------------- 
step length          :   0.00500
SCC accuracy         :   0.30000
Hessian scale factor :   1.00000
frozen atoms in %    :   0.00000    0
RMS gradient         :   0.00073
estimated CPU  time      0.00 min
estimated wall time      0.00 min

writing file <hessian>.

 projected vibrational frequencies (cm-1)
eigval :       -0.00    -0.00    -0.00     0.00     0.00     0.00
eigval :     -208.46   212.54   429.52   621.22   746.46  1140.89
eigval :     1427.67  1828.56  2851.51
           -------------------------------------------------
          |                Property Printout                |
           -------------------------------------------------

    * Orbital Energies and Occupations

         #    Occupation            Energy/Eh            Energy/eV
      -------------------------------------------------------------
         1        2.0000           -0.7249621             -19.7272
         2        2.0000           -0.6644407             -18.0804
         3        2.0000           -0.6029048             -16.4059
         4        2.0000           -0.5774707             -15.7138
         5        2.0000           -0.5649464             -15.3730
         6        2.0000           -0.5088287             -13.8459
         7        2.0000           -0.4703210             -12.7981
         8        1.6669           -0.4389687             -11.9449
         9        1.3331           -0.4376493             -11.9090
        10        1.0000           -0.3622866              -9.8583 (HOMO)
        11                         -0.3233801              -8.7996 (LUMO)
        12                         -0.2828054              -7.6955
        13                         -0.1253804              -3.4118
        14                         -0.0429376              -1.1684
        15                          0.1660168               4.5175
        16                          0.5209806              14.1766
        17                          0.5656483              15.3921
      -------------------------------------------------------------
                  HL-Gap            0.0389065 Eh            1.0587 eV
             Fermi-level           -0.3905712 Eh          -10.6280 eV

     #   Z        covCN         q      C6AA      α(0)
     1   6 C      0.985    -0.112    39.544    10.564
     2   6 C      3.752     0.104    18.922     6.203
     3   6 C      1.865    -0.003    31.219     9.025
     4   7 N      1.808    -0.076    23.450     7.174
     5   1 H      0.924     0.087     1.905     2.158

 Mol. C6AA /au·bohr⁶  :        502.255542
 Mol. C8AA /au·bohr⁸  :      13136.041675
 Mol. α(0) /au        :         35.124788


Wiberg/Mayer (AO) data.
largest (>0.10) Wiberg bond orders for each atom
          total WBO             WBO to atom ...
     1  C   1.962        C    2 1.683    C    3 0.168    N    4 0.109
     2  C   3.791        C    1 1.683    H    5 0.890    N    4 0.685    C    3 0.534
     3  C   2.776        N    4 2.072    C    2 0.534    C    1 0.168
     4  N   2.868        C    3 2.072    C    2 0.685    C    1 0.109
     5  H   0.898        C    2 0.890

MOs/occ written to file <molden.input>


molecular dipole:
                 x           y           z       tot (Debye)
 q only:        0.036       0.425       0.005
   full:        0.002       0.630      -0.065       1.610
molecular quadrupole (traceless):
                xx          xy          yy          xz          yz          zz
 q only:       -0.919       0.781       0.665      -0.407      -0.101       0.254
  q+dip:       -2.437       0.775       2.091      -0.270      -0.280       0.346
   full:       -2.141       1.330       2.203      -0.392      -0.125      -0.062

           -------------------------------------------------
          |                Geometry Summary                 |
Molecule has no symmetry elements
It seems to be the C1 point group
           -------------------------------------------------

      molecular mass/u    :       51.0468517
   center of mass at/Å    :       -0.1543601      -0.2671388       0.0175388
  moments of inertia/u·Å² :        0.1602313E+02   0.5811193E+02   0.6195552E+02
rotational constants/cm⁻¹ :        0.1052081E+01   0.2900890E+00   0.2720925E+00

 * 3 selected distances

     #   Z        #   Z                                     value/Å
     1   6 C      2   6 C                                 1.3192762 (max)
     3   6 C      4   7 N                                 1.2176053
     2   6 C      5   1 H                                 1.0934380 (min)

 * 3 distinct bonds (by element types)

   Z      Z             #   av. dist./Å        max./Å        min./Å
   1 H    6 C           1     1.0934380     1.0934380     1.0934380
   6 C    6 C           1     1.3192762     1.3192762     1.3192762
   6 C    7 N           1     1.2176053     1.2176053     1.2176053

           -------------------------------------------------
          |               Frequency Printout                |
           -------------------------------------------------
 projected vibrational frequencies (cm-1)
eigval :       -0.00    -0.00    -0.00     0.00     0.00     0.00
eigval :     -208.46   212.54   429.52   621.22   746.46  1140.89
eigval :     1427.67  1828.56  2851.51
 reduced masses (amu)
   1: 12.24   2: 12.68   3: 12.22   4: 11.86   5: 11.56   6: 11.79   7: 12.61   8: 11.69
   9: 12.31  10: 12.13  11:  3.78  12:  1.76  13: 11.85  14: 12.92  15:  1.74
 IR intensities (amu)
   1:  0.05   2:  0.15   3:  0.08   4:  0.08   5:  0.03   6:  0.12   7:  0.82   8:  0.23
   9:  0.45  10:  0.38  11:  0.13  12:  0.11  13:  0.99  14:  2.02  15:  0.10
 Raman intensities (amu)
   1:  0.00   2:  0.00   3:  0.00   4:  0.00   5:  0.00   6:  0.00   7:  0.00   8:  0.00
   9:  0.00  10:  0.00  11:  0.00  12:  0.00  13:  0.00  14:  0.00  15:  0.00
 output can be read by thermo (or use thermo option).
 writing <g98.out> molden fake output.
 recommended (thermochemical) frequency scaling factor: 1.0
           -------------------------------------------------
          |             Thermodynamic Functions             |
           -------------------------------------------------

c1  symmetry found (for desy threshold:  0.10E+00) used in thermo

          ...................................................
          :                      SETUP                      :
          :.................................................:
          :  # frequencies                           8      :
          :  # imaginary freq.                       1      :
          :  linear?                             false      :
          :  only rotor calc.                    false      :
          :  symmetry                               c1      :
          :  rotational number                       1      :
          :  scaling factor                  1.0000000      :
          :  rotor cutoff                   50.0000000 cm⁻¹ :
          :  imag. cutoff                  -20.0000000 cm⁻¹ :
          :.................................................:

    mode    ω/cm⁻¹     T·S(HO)/kcal·mol⁻¹    T·S(FR)/kcal·mol⁻¹   T·S(vib)
   ------------------------------------------------------------------------
       1    212.54    -0.00000 ( 99.69%)     0.01269 (  0.31%)     0.00004
   ------------------------------------------------------------------------

   temp. (K)  partition function   enthalpy   heat capacity  entropy
                                   cal/mol     cal/K/mol   cal/K/mol   J/K/mol
 298.15  VIB   1.94                  687.853      5.324      3.624
         ROT  0.183E+05              888.752      2.981     22.490
         INT  0.356E+05             1576.605      8.305     26.115
         TR   0.353E+27             1481.254      4.968     37.697
         TOT                        3057.8593    13.2733    63.8111   266.9858

   temp. (K)  partition function   enthalpy   heat capacity  entropy
                                   cal/mol     cal/K/mol   cal/K/mol   J/K/mol
 120.00  VIB   1.09                   60.045      1.583      0.677
         ROT  0.468E+04              357.707      2.981     19.777
         INT  0.512E+04              417.752      4.563     20.455
         TR   0.901E+26              596.178      4.968     33.177
         TOT                        1013.9300     9.5316    53.6318   224.3954

   temp. (K)  partition function   enthalpy   heat capacity  entropy
                                   cal/mol     cal/K/mol   cal/K/mol   J/K/mol
 100.00  VIB   1.05                   32.788      1.145      0.430
         ROT  0.356E+04              298.089      2.981     19.234
         INT  0.375E+04              330.877      4.126     19.664
         TR   0.685E+26              496.815      4.968     32.272
         TOT                         827.6920     9.0940    51.9357   217.2989

   temp. (K)  partition function   enthalpy   heat capacity  entropy
                                   cal/mol     cal/K/mol   cal/K/mol   J/K/mol
  80.00  VIB   1.02                   14.161      0.720      0.224
         ROT  0.255E+04              238.471      2.981     18.569
         INT  0.261E+04              252.633      3.701     18.792
         TR   0.490E+26              397.452      4.968     31.164
         TOT                         650.0845     8.6694    49.9562   209.0168

   temp. (K)  partition function   enthalpy   heat capacity  entropy
                                   cal/mol     cal/K/mol   cal/K/mol   J/K/mol
  60.00  VIB   1.01                    3.783      0.327      0.077
         ROT  0.166E+04              178.853      2.981     17.711
         INT  0.167E+04              182.636      3.308     17.788
         TR   0.319E+26              298.089      4.968     29.735
         TOT                         480.7250     8.2760    47.5230   198.8364

   temp. (K)  partition function   enthalpy   heat capacity  entropy
                                   cal/mol     cal/K/mol   cal/K/mol   J/K/mol
  40.00  VIB   1.00                    0.291      0.056      0.008
         ROT   902.                  119.236      2.981     16.503
         INT   902.                  119.527      3.037     16.511
         TR   0.173E+26              198.726      4.968     27.722
         TOT                         318.2528     8.0048    44.2328   185.0699

   temp. (K)  partition function   enthalpy   heat capacity  entropy
                                   cal/mol     cal/K/mol   cal/K/mol   J/K/mol
  20.00  VIB   1.00                    0.000      0.000     -0.002
         ROT   319.                   59.618      2.981     14.436
         INT   319.                   59.618      2.981     14.434
         TR   0.613E+25               99.363      4.968     24.280
         TOT                         158.9809     7.9491    38.7141   161.9798

   temp. (K)  partition function   enthalpy   heat capacity  entropy
                                   cal/mol     cal/K/mol   cal/K/mol   J/K/mol
  10.00  VIB   1.00                    0.000      0.000     -0.004
         ROT   113.                   29.809      2.981     12.370
         INT   113.                   29.809      2.981     12.366
         TR   0.217E+25               49.681      4.968     20.838
         TOT                          79.4904     7.9490    33.2037   138.9241

       T/K    H(0)-H(T)+PV         H(T)/Eh          T*S/Eh         G(T)/Eh
   ------------------------------------------------------------------------
    298.15    0.487301E-02    0.259651E-01    0.303187E-01   -0.435362E-02
    120.00    0.161580E-02    0.227079E-01    0.102561E-01    0.124518E-01
    100.00    0.131901E-02    0.224111E-01    0.827648E-02    0.141346E-01
     80.00    0.103598E-02    0.221281E-01    0.636882E-02    0.157593E-01
     60.00    0.766084E-03    0.218582E-01    0.454397E-02    0.173142E-01
     40.00    0.507168E-03    0.215993E-01    0.281958E-02    0.187797E-01
     20.00    0.253352E-03    0.213455E-01    0.123390E-02    0.201116E-01
     10.00    0.126676E-03    0.212188E-01    0.529134E-03    0.206896E-01 (used)
   ------------------------------------------------------------------------

         :::::::::::::::::::::::::::::::::::::::::::::::::::::
         ::                  THERMODYNAMIC                  ::
         :::::::::::::::::::::::::::::::::::::::::::::::::::::
         :: total free energy          -9.431458524429 Eh   ::
         ::.................................................::
         :: total energy               -9.452148170402 Eh   ::
         :: zero point energy           0.021092103841 Eh   ::
         :: G(RRHO) w/o ZPVE           -0.000402457867 Eh   ::
         :: G(RRHO) contrib.            0.020689645974 Eh   ::
         :::::::::::::::::::::::::::::::::::::::::::::::::::::
imag cut-off (cm-1) :    5.00
 found            1  significant imaginary frequency
 writing imag mode distorted coords to xtbhess.xyz
 for further optimization.

optimized geometry written to: xtbopt.xyz


           -------------------------------------------------
          | TOTAL ENERGY               -9.452148170402 Eh   |
          | TOTAL ENTHALPY             -9.430929390546 Eh   |
          | TOTAL FREE ENERGY          -9.431458524429 Eh   |
          | GRADIENT NORM               0.000726431163 Eh/α |
          | HOMO-LUMO GAP               1.058699273072 eV   |
           -------------------------------------------------

------------------------------------------------------------------------
 * finished run on 2020/05/12 at 11:44:55.987     
------------------------------------------------------------------------
 total:
 * wall-time:     0 d,  0 h,  0 min,  0.148 sec
 *  cpu-time:     0 d,  0 h,  0 min,  0.147 sec
 * ratio c/w:     0.998 speedup
 SCF:
 * wall-time:     0 d,  0 h,  0 min,  0.005 sec
 *  cpu-time:     0 d,  0 h,  0 min,  0.005 sec
 * ratio c/w:     1.000 speedup
 ANC optimizer:
 * wall-time:     0 d,  0 h,  0 min,  0.043 sec
 *  cpu-time:     0 d,  0 h,  0 min,  0.043 sec
 * ratio c/w:     0.999 speedup
 numerical hessian:
 * wall-time:     0 d,  0 h,  0 min,  0.084 sec
 *  cpu-time:     0 d,  0 h,  0 min,  0.084 sec
 * ratio c/w:     0.998 speedup

