[Molden Format]
[Title]
[Atoms] AU
C      1     6  0.24606890969587E+01 -0.14452162277341E+01  0.28631590525087E+00
C      2     6  0.64459334399834E+00  0.21922508338014E+00 -0.96869929407697E-01
C      3     6 -0.20883153395328E+01 -0.45812844745029E+00  0.12278462143019E+01
N      4     7 -0.20063262536708E+01 -0.55693018432070E+00 -0.10695093796846E+01
H      5     1  0.98935915223668E+00  0.22410478863990E+01 -0.34778281045713E+00
[GTO]
           1 0
 s           4   1.0000000000000000     
   51.049363095579913      -0.16312063210127389     
   8.7911227406887544      -0.19911024581000730     
  0.70640422258929825       0.31882047753655751     
  0.26922813413411617       0.12706504184240380     
 p           4   1.0000000000000000     
   5.8263656140800002       0.73716451545209605     
   1.5106896018720002       0.68216371614850257     
  0.53256483288000001       0.35783053929253711     
  0.21202323690600003        5.3983030275847881E-002

           2 0
 s           4   1.0000000000000000     
   51.049363095579913      -0.16312063210127389     
   8.7911227406887544      -0.19911024581000730     
  0.70640422258929825       0.31882047753655751     
  0.26922813413411617       0.12706504184240380     
 p           4   1.0000000000000000     
   5.8263656140800002       0.73716451545209605     
   1.5106896018720002       0.68216371614850257     
  0.53256483288000001       0.35783053929253711     
  0.21202323690600003        5.3983030275847881E-002

           3 0
 s           4   1.0000000000000000     
   51.049363095579913      -0.16312063210127389     
   8.7911227406887544      -0.19911024581000730     
  0.70640422258929825       0.31882047753655751     
  0.26922813413411617       0.12706504184240380     
 p           4   1.0000000000000000     
   5.8263656140800002       0.73716451545209605     
   1.5106896018720002       0.68216371614850257     
  0.53256483288000001       0.35783053929253711     
  0.21202323690600003        5.3983030275847881E-002

           4 0
 s           4   1.0000000000000000     
   63.594024466941008      -0.19234388414721629     
   10.951417231523665      -0.23478107924953728     
  0.87999310257376984       0.37593753901700888     
  0.33538715296521110       0.14982889271862770     
 p           4   1.0000000000000000     
   7.2965040481495080       0.97658666315667420     
   1.8918745450712575       0.90372226730345739     
  0.66694432110824120       0.47404958461536373     
  0.26552202674130870        7.1516067715011844E-002

           5 0
 s           3   1.0000000000000000     
   3.3702276975336001       0.27359110588908298     
  0.61389118221497996       0.26460540653860526     
  0.16614291148415999        8.2465947534082318E-002

[MO]
Sym=     1a
Ene=  -0.72496208590797007     
Spin= Alpha
Occup=     2.00000000
           1 -0.10306202420372028     
           2   6.2313618136012161E-002
           3  -3.0722534667721846E-002
           4   7.4859294893603965E-003
           5 -0.31579076089355118     
           6  0.13964072741209843     
           7   6.1018058462725906E-002
           8  -5.8975123880022715E-003
           9 -0.36270451093600498     
          10  -8.5205028333908708E-002
          11  -1.7093565969993924E-002
          12  0.16052785372354419     
          13 -0.40542994479089861     
          14 -0.12852422530010588     
          15  -4.7278597993646324E-002
          16 -0.18852524748613719     
          17  -5.7053150139073354E-002
Sym=     2a
Ene=  -0.66444068086582675     
Spin= Alpha
Occup=     2.00000000
           1  0.44949108602704385     
           2 -0.10924837489140009     
           3  0.12229583369666493     
           4  -2.8472798380442445E-002
           5  0.40458149567521906     
           6  0.23402418002992345     
           7  -9.4862905743404169E-002
           8   1.8201065802163189E-002
           9 -0.19868035543960627     
          10  0.10211405030336421     
          11  -1.3345235373376212E-003
          12  0.10185019518648405     
          13 -0.23372578537047636     
          14  0.13677582704320637     
          15  -1.5585936781601924E-002
          16 -0.10405675866011901     
          17  0.11924644946936848     
Sym=     3a
Ene=  -0.60290475921084707     
Spin= Alpha
Occup=     2.00000000
           1 -0.35563244348620476     
           2   3.6415356074698049E-002
           3   2.4583054192577874E-002
           4  -2.1837708278314716E-002
           5  0.20353713785944266     
           6 -0.18330228713292848     
           7  0.33157879046290017     
           8 -0.13394994141527444     
           9 -0.21151707389164504     
          10  0.11865054333697200     
          11  0.19661577105728678     
          12   3.3261927678961613E-002
          13  -4.7630706799825374E-002
          14  0.23191782495067925     
          15  0.28489411134895842     
          16 -0.14504437319845145     
          17  0.28220221440930920     
Sym=     4a
Ene=  -0.57747069090743952     
Spin= Alpha
Occup=     2.00000000
           1   5.4076383159576899E-003
           2  -4.1421767412416648E-002
           3  -8.3484865378685449E-002
           4 -0.10737591861850240     
           5  -4.7068729565816578E-002
           6 -0.10175089871534286     
           7 -0.23596654979370990     
           8 -0.30555696130234211     
           9 -0.43639344469135877     
          10   6.9491080366223798E-002
          11 -0.12353860158893956     
          12 -0.14745186472608626     
          13  0.40409032601908068     
          14  0.27056431322168351     
          15 -0.12887896803200424     
          16 -0.30422036152428700     
          17 -0.17374006003261203     
Sym=     5a
Ene=  -0.56494640454246403     
Spin= Alpha
Occup=     2.00000000
           1 -0.15247603009948241     
           2 -0.10780666511710343     
           3 -0.10391496026100039     
           4   6.7381699658342342E-002
           5  -1.5037662749748210E-002
           6 -0.28581998890456228     
           7 -0.20138546723673853     
           8  0.15639615688161962     
           9  0.13013390110645279     
          10  0.32862649124577847     
          11  -3.6800399099242299E-002
          12  0.21176650019391260     
          13 -0.40431349469512357     
          14  0.39462905739040466     
          15  -7.9607345169594765E-002
          16  0.11967552847738946     
          17 -0.20350257608853484     
Sym=     6a
Ene=  -0.50882867487673922     
Spin= Alpha
Occup=     2.00000000
           1 -0.35017618089656832     
           2  -5.4340911517995062E-002
           3  0.14029820794129755     
           4  -3.9266757982499380E-002
           5  0.10979803994931690     
           6   8.5153112913474216E-002
           7  0.18235516763233736     
           8  -4.5053014304435590E-002
           9   4.9903412526170657E-002
          10   2.0177879285614334E-002
          11 -0.45017223638518045     
          12   2.5929417207775293E-002
          13  -1.8596486209947322E-002
          14   5.6491105419174202E-002
          15 -0.62045795942035220     
          16   5.9375244971358911E-002
          17  0.25609826663847568     
Sym=     7a
Ene=  -0.47032099074755374     
Spin= Alpha
Occup=     2.00000000
           1   4.0913980528002408E-002
           2   6.3043801910192182E-002
           3  -7.4932880357944695E-002
           4 -0.45979776222256502     
           5  -8.7103725288204346E-003
           6   4.4955262829178382E-002
           7  -7.2267187108294939E-002
           8 -0.54702364024047867     
           9  0.28106536482897088     
          10 -0.28033908225333709     
          11  -2.2300170538377458E-002
          12  0.11743750176780246     
          13 -0.30600432644333914     
          14  0.18937108459620894     
          15   9.7473707414091740E-002
          16  0.26030138095962307     
          17  -6.0121557662874746E-004
Sym=     8a
Ene=  -0.43896874620663201     
Spin= Alpha
Occup=     1.66694723
           1 -0.28477421265458225     
           2 -0.30949830255244049     
           3  0.19861501562765282     
           4  -7.6211021756229957E-002
           5   9.3876414835610683E-002
           6   5.4409666941495252E-002
           7 -0.14574742506368094     
           8  -7.0567058256499468E-003
           9  0.39577701165288315     
          10 -0.13837661871225454     
          11   8.4771053751685477E-002
          12  0.50426678916050971     
          13  0.25152169321016876     
          14 -0.11657502982238635     
          15   6.7629982444662048E-002
          16 -0.48531514028794903     
          17  -9.6516445417316132E-002
Sym=     9a
Ene=  -0.43764930808939462     
Spin= Alpha
Occup=     1.33305277
           1  0.46067395130741862     
           2  0.41424892590379486     
           3 -0.35766665807777953     
           4  0.11293612308486628     
           5 -0.12059321341826007     
           6 -0.14140022436609115     
           7  0.18950789029708920     
           8  -3.0800119357494035E-002
           9  0.28377279566381663     
          10   4.1794283915867855E-002
          11  -9.9203530732476786E-002
          12  0.35080487666880855     
          13  0.17542209091655381     
          14  0.12322656845202722     
          15 -0.15547787126311247     
          16 -0.29344456163537880     
          17  0.18979051445315540     
Sym=    10a
Ene=  -0.36228660335050533     
Spin= Alpha
Occup=     1.00000000
           1  -2.1583068365600082E-002
           2  0.60467521392405343     
           3  0.71083378080583659     
           4  -7.9559520993796890E-003
           5  -7.6470795603294617E-002
           6   8.2151119806211578E-002
           7  -2.5923348821663531E-002
           8   7.4896195380396531E-003
           9   8.5664730238572351E-002
          10  0.11990790719487608     
          11   5.0577095316104138E-002
          12   3.2975278861258353E-002
          13   8.9098323548122096E-002
          14  0.24615485088953029     
          15   1.0714864405236016E-002
          16  -2.7670715590557215E-004
          17 -0.26134799064804753     
Sym=    11a
Ene=  -0.32338012096725327     
Spin= Alpha
Occup=     0.00000000
           1   6.2251283398149990E-003
           2 -0.11337930841365008     
           3   9.7661172020987855E-002
           4  0.77123692790743237     
           5   1.5288393663597726E-002
           6   2.1175312417124868E-002
           7  -4.1983087874878429E-002
           8 -0.27704983002154299     
           9   2.7169894344728343E-002
          10 -0.45722392247846760     
          11 -0.28156568095244566     
          12   1.2726247257837595E-002
          13  -5.8642115414452543E-002
          14  0.32294501684419658     
          15  0.24367934378671283     
          16   5.9069421178845852E-002
          17   1.5715778001281332E-003
Sym=    12a
Ene=  -0.28280536063439049     
Spin= Alpha
Occup=     0.00000000
           1  -7.8106722738779440E-003
           2   5.0378923957743064E-002
           3   1.5451526653348530E-002
           4 -0.15933216327637811     
           5  -1.3444597757564699E-002
           6   3.1271115123929125E-003
           7   1.5369729599496411E-002
           8   2.6900118266457048E-002
           9   9.3313612974798531E-003
          10  0.34177198382578139     
          11 -0.80638447392141288     
          12   5.0236700664119442E-002
          13   1.0266089701237727E-002
          14 -0.24978922427649269     
          15  0.65709586621484550     
          16  -4.0471869690274220E-002
          17  -5.8681049146966620E-003
Sym=    13a
Ene=  -0.12538035658507926     
Spin= Alpha
Occup=     0.00000000
           1  -2.2732315180858831E-002
           2  -1.7003606778702111E-002
           3   4.2856052639803605E-002
           4  0.41030876388541454     
           5  -5.8363202766523931E-002
           6  0.11608130855062535     
           7 -0.10465365847459582     
           8 -0.76250305249141181     
           9  0.11230986629663166     
          10  0.67893142419533103     
          11  0.22695027794477393     
          12  0.10557283645159264     
          13  -4.8017619393701687E-002
          14 -0.51305141270054166     
          15 -0.13591609888569484     
          16  0.12694856409444386     
          17   2.5207545972441951E-002
Sym=    14a
Ene=   -4.2937606670946538E-002
Spin= Alpha
Occup=     0.00000000
           1   1.0981332480254367E-002
           2  0.30433400403658356     
           3   7.8897399459851719E-002
           4   3.9151688357171179E-002
           5  0.79870916770065659     
           6 -0.73673189040293763     
           7 -0.12276521387629552     
           8  -8.0422014834166222E-002
           9 -0.19743521774764825     
          10 -0.32241085903609923     
          11 -0.10286103025958479     
          12   3.9946499368663714E-002
          13 -0.32258576171096343     
          14 -0.53453878758693907     
          15 -0.15886438746660581     
          16 -0.10116819634113101     
          17 -0.28197602062218957     
Sym=    15a
Ene=   0.16601678854429402     
Spin= Alpha
Occup=     0.00000000
           1   6.0775189888428900E-002
           2   4.7618485435592876E-002
           3  0.31984707629176801     
           4  -3.9737818710899701E-002
           5 -0.62693227174625643     
           6 -0.48562428367446492     
           7 -0.82084779424427845     
           8   7.9775099302479405E-002
           9  -8.3966805505582998E-002
          10 -0.10684437057604816     
          11   1.5107541852127041E-002
          12  -9.6288099705872116E-003
          13 -0.12976633420825537     
          14 -0.12363918720925321     
          15   2.0919358553283082E-002
          16  -4.3882261072600050E-002
          17   1.0635475482642738     
Sym=    16a
Ene=   0.52098058363511346     
Spin= Alpha
Occup=     0.00000000
           1 -0.79051332862515789     
           2  0.70017917115509509     
           3 -0.62130702837257534     
           4  0.14709131545586290     
           5  0.58176445980634306     
           6  0.71623663438847440     
           7 -0.78719121700760475     
           8  0.16656057133600630     
           9  0.15950433336862979     
          10  -3.1643276578288975E-003
          11   5.5546565594175097E-002
          12 -0.18146820900792074     
          13  -7.4612231232761062E-002
          14   4.8445362040057616E-002
          15   9.6997453633549766E-002
          16 -0.15076876390572241     
          17  0.25700545075120462     
Sym=    17a
Ene=   0.56564825846490441     
Spin= Alpha
Occup=     0.00000000
           1 -0.12194623857980241     
           2  0.11586138185424845     
           3  -9.6227405330881088E-002
           4  -5.1795995706496014E-003
           5  0.14553718658813986     
           6   4.3245947396844217E-002
           7 -0.15158438632722088     
           8  0.12167477787654189     
           9 -0.82252878939027974     
          10  -9.7906529607272891E-002
          11   3.6576558393402542E-002
          12   1.0067289154255046     
          13  0.82605671975069273     
          14  -3.9863439950024782E-002
          15   5.3041498048290663E-002
          16  0.92936598875229248     
          17   7.0652683623068077E-002
