      -----------------------------------------------------------      
     |                   =====================                   |     
     |                           x T B                           |     
     |                   =====================                   |     
     |                         S. Grimme                         |     
     |          Mulliken Center for Theoretical Chemistry        |     
     |                    University of Bonn                     |     
      -----------------------------------------------------------      

   * xtb version 6.2.2 (9d81278992624c895f80dd42a50cac0aa55982e2) compiled by '@Darwin' on 04/03/2020

   xtb is free software: you can redistribute it and/or modify it under
   the terms of the GNU Lesser General Public License as published by
   the Free Software Foundation, either version 3 of the License, or
   (at your option) any later version.
   
   xtb is distributed in the hope that it will be useful,
   but WITHOUT ANY WARRANTY; without even the implied warranty of
   MERCHANTABILITY or FITNESS FOR A PARTICULAR PURPOSE.  See the
   GNU Lesser General Public License for more details.
   
   Cite this work as:
   * S. Grimme, C. Bannwarth, P. Shushkov, J. Chem. Theory Comput., 2017,
     13, 1989-2009. DOI: 10.1021/acs.jctc.7b00118
   * C. Bannwarth, S. Ehlert and S. Grimme., J. Chem. Theory Comput., 2019,
     15, 1652-1671. DOI: 10.1021/acs.jctc.8b01176
   * P. Pracht, E. Caldeweyher, S. Ehlert, S. Grimme, ChemRxiv, 2019, preprint.
     DOI: 10.26434/chemrxiv.8326202.v1
   
   for DFT-D4:
   * E. Caldeweyher, C. Bannwarth and S. Grimme, J. Chem. Phys., 2017,
     147, 034112. DOI: 10.1063/1.4993215
   * E. Caldeweyher, S. Ehlert, A. Hansen, H. Neugebauer, S. Spicher,
     C. Bannwarth and S. Grimme, J. Chem. Phys., 2019, 150, 154122.
     DOI: 10.1063/1.5090222
   
   for sTDA-xTB:
   * S. Grimme and C. Bannwarth, J. Chem. Phys., 2016, 145, 054103.
     DOI: 10.1063/1.4959605
   
   in the mass-spec context:
   * V. Asgeirsson, C. Bauer and S. Grimme, Chem. Sci., 2017, 8, 4879.
     DOI: 10.1039/c7sc00601b
   
   for metadynamics refer to:
   * S. Grimme, J. Chem. Theory Comput., 2019, 155, 2847-2862
     DOI: 10.1021/acs.jctc.9b00143
   
   with help from (in alphabetical order)
   C. Bannwarth, F. Bohle, G. Brandenburg, E. Caldeweyher, M. Checinski,
   S. Dohm, S. Ehlert, S. Ehrlich, F. März, H. Neugebauer, J. Pisarek,
   P. Pracht, P. Shushkov, and S. Spicher.
   
 * started run on 2020/05/12 at 11:44:10.391     

           -------------------------------------------------
          |                Calculation Setup                |
           -------------------------------------------------

          program call               : xtb --input C4N1_28_S_1.input C4N1_28_S_1.xyz --ohess --molden --namespace C4N1_28_S_1 output.out
          calculation namespace      : C4N1_28_S_1
          coordinate file            : C4N1_28_S_1.xyz
          number of atoms            :                     5
          number of electrons        :                    21
          charge                     :                     0
          spin                       :                   0.5
          first test random number   :      0.58194878673045

   ID    Z sym.   atoms
    1    7 N      1
    2    6 C      2-5

           -------------------------------------------------
          |                 G F N 2 - x T B                 |
           -------------------------------------------------

        Reference                      10.1021/acs.jctc.8b01176
      * Hamiltonian:
        H0-scaling (s, p, d)           1.850000    2.230000    2.230000
        zeta-weighting                 0.500000
      * Dispersion:
        s8                             2.700000
        a1                             0.520000
        a2                             5.000000
        s9                             5.000000
      * Repulsion:
        kExp                           1.500000    1.000000
        rExp                           1.000000
      * Coulomb:
        alpha                          2.000000
        third order                    shell-resolved
        anisotropic                    true
        a3                             3.000000
        a5                             4.000000
        cn-shift                       1.200000
        cn-exp                         4.000000
        max-rad                        5.000000


          ...................................................
          :                      SETUP                      :
          :.................................................:
          :  # basis functions                  20          :
          :  # atomic orbitals                  20          :
          :  # shells                           10          :
          :  # electrons                        21          :
          :  max. iterations                   250          :
          :  Hamiltonian                  GFN2-xTB          :
          :  restarted?                      false          :
          :  GBSA solvation                  false          :
          :  PC potential                    false          :
          :  electronic temp.          300.0000000     K    :
          :  accuracy                    1.0000000          :
          :  -> integral cutoff          0.2500000E+02      :
          :  -> integral neglect         0.1000000E-07      :
          :  -> SCF convergence          0.1000000E-05 Eh   :
          :  -> wf. convergence          0.1000000E-03 e    :
          :  Broyden damping             0.4000000          :
          ...................................................

 iter      E             dE          RMSdq      gap      omega  full diag
   1    -10.9439707 -0.109440E+02  0.104E+01    1.17       0.0  T
   2    -10.7040264  0.239944E+00  0.945E+00    0.52       1.0  T
   3    -10.8232994 -0.119273E+00  0.596E+00    1.39       1.0  T
   4    -10.4664222  0.356877E+00  0.758E+00    0.45       1.0  T
   5    -11.0356721 -0.569250E+00  0.188E+00    1.09       1.0  T
   6    -11.0356575  0.145977E-04  0.132E+00    1.10       1.0  T
   7    -11.0349508  0.706687E-03  0.115E+00    1.12       1.0  T
   8    -11.0369398 -0.198900E-02  0.517E-01    1.10       1.0  T
   9    -11.0374834 -0.543641E-03  0.340E-01    1.08       1.0  T
  10    -11.0379152 -0.431728E-03  0.143E-01    1.10       1.0  T
  11    -11.0379623 -0.470900E-04  0.274E-02    1.11       1.6  T
  12    -11.0379628 -0.523720E-06  0.110E-02    1.11       4.1  T
  13    -11.0379630 -0.191322E-06  0.315E-03    1.11      14.2  T
  14    -11.0379630 -0.259606E-07  0.338E-04    1.11     132.3  T
  15    -11.0379630 -0.145596E-09  0.249E-04    1.11     179.4  T

   *** convergence criteria satisfied after 15 iterations ***

         #    Occupation            Energy/Eh            Energy/eV
      -------------------------------------------------------------
         1        2.0000           -0.7664642             -20.8566
       ...           ...                  ...                  ...
         5        2.0000           -0.5750240             -15.6472
         6        2.0000           -0.5545201             -15.0893
         7        2.0000           -0.5430944             -14.7784
         8        2.0000           -0.4867525             -13.2452
         9        2.0000           -0.4795951             -13.0504
        10        1.9996           -0.4620465             -12.5729
        11        1.0004           -0.4472051             -12.1691 (HOMO)
        12                         -0.4064916             -11.0612 (LUMO)
        13                         -0.3710342             -10.0964
        14                         -0.3273826              -8.9085
        15                         -0.2745055              -7.4697
        16                         -0.0939335              -2.5561
       ...                                ...                  ...
        20                          0.2281076               6.2071
      -------------------------------------------------------------
                  HL-Gap            0.0407135 Eh            1.1079 eV
             Fermi-level           -0.4407371 Eh          -11.9931 eV

 SCC (total)                   0 d,  0 h,  0 min,  0.005 sec
 SCC setup                      ...        0 min,  0.000 sec (  1.511%)
 Dispersion                     ...        0 min,  0.000 sec (  0.334%)
 integral evaluation            ...        0 min,  0.001 sec ( 26.604%)
 zeroth order Hamiltonian       ...        0 min,  0.000 sec (  0.374%)
 iterations                     ...        0 min,  0.002 sec ( 37.034%)
 molecular gradient             ...        0 min,  0.002 sec ( 32.208%)
 printout                       ...        0 min,  0.000 sec (  1.800%)

         :::::::::::::::::::::::::::::::::::::::::::::::::::::
         ::                     SUMMARY                     ::
         :::::::::::::::::::::::::::::::::::::::::::::::::::::
         :: total energy             -10.951805291481 Eh    ::
         :: gradient norm              0.228397874635 Eh/a0 ::
         :: HOMO-LUMO gap              1.107871228468 eV    ::
         ::.................................................::
         :: SCC energy               -11.037963005083 Eh    ::
         :: -> isotropic ES           -0.010284542595 Eh    ::
         :: -> anisotropic ES          0.002333940582 Eh    ::
         :: -> anisotropic XC          0.009985108540 Eh    ::
         :: -> dispersion             -0.002797576510 Eh    ::
         :: repulsion energy           0.086157663686 Eh    ::
         :: add. restraining           0.000000000000 Eh    ::
         :::::::::::::::::::::::::::::::::::::::::::::::::::::

      ----------------------------------------------------------- 
     |                   =====================                   |
     |                        A N C O P T                        |
     |                   =====================                   |
     |               Approximate Normal Coordinate               |
     |                Rational Function Optimizer                |
      ----------------------------------------------------------- 

          ...................................................
          :                      SETUP                      :
          :.................................................:
          :   optimization level            normal          :
          :   max. optcycles                   200          :
          :   ANC micro-cycles                  20          :
          :   degrees of freedom                 9          :
          :.................................................:
          :   RF solver                   davidson          :
          :   write xtbopt.log                true          :
          :   linear?                        false          :
          :   energy convergence         0.5000000E-05 Eh   :
          :   grad. convergence          0.1000000E-02 Eh/α :
          :   maximium RF displ.         1.0000000          :
          :   Hlow (freq-cutoff)         0.1000000E-01      :
          :   Hmax (freq-cutoff)         5.0000000          :
          :   S6 in model hess.         20.0000000          :
          ...................................................

generating ANC from model Hessian ...
Using Lindh-Hessian (1995)
 Shifting diagonal of input Hessian by    0.0000000000000000     
 Lowest  eigenvalues of input Hessian
   -0.000000   -0.000000   -0.000000   -0.000000    0.000000    0.000000
    0.048015    0.117373    0.159899    0.474824    0.692771    0.900823
    0.975750    1.217469    1.532182
 Highest eigenvalues
    0.474824    0.692771    0.900823    0.975750    1.217469    1.532182


........................................................................
.............................. CYCLE    1 ..............................
........................................................................
   1    -11.0379630 -0.110380E+02  0.445E-05    1.11       0.0  T
   2    -11.0379630  0.913047E-12  0.283E-05    1.11    1580.0  T
   3    -11.0379630  0.849099E-11  0.402E-05    1.11    1112.3  T
     SCC iter.                  ...        0 min,  0.000 sec
     gradient                   ...        0 min,  0.001 sec
 * total energy  :   -10.9518053 Eh     change       -0.1580124E-08 Eh
   gradient norm :     0.2283968 Eh/α   predicted     0.0000000E+00 (-100.00%)
   displ. norm   :     0.4035860 α      lambda       -0.6419105E-01
   maximum displ.:     0.3153534 α      in ANC's #3, #2, #8, ...

........................................................................
.............................. CYCLE    2 ..............................
........................................................................
   1    -11.1239059 -0.111239E+02  0.288E+00    1.64       0.0  T
   2    -11.0768231  0.470828E-01  0.248E+00    1.69       1.0  T
   3    -11.0696729  0.715026E-02  0.263E+00    1.20       1.0  T
   4    -11.1156176 -0.459447E-01  0.121E+00    1.60       1.0  T
   5    -11.1232744 -0.765682E-02  0.755E-01    1.55       1.0  T
   6    -11.1252988 -0.202444E-02  0.568E-01    1.59       1.0  T
   7    -11.1259019 -0.603121E-03  0.515E-01    1.61       1.0  T
   8    -11.1272955 -0.139355E-02  0.217E-01    1.62       1.0  T
   9    -11.1275828 -0.287342E-03  0.750E-02    1.64       1.0  T
  10    -11.1276239 -0.410238E-04  0.328E-02    1.64       1.4  T
  11    -11.1276321 -0.823473E-05  0.360E-03    1.64      12.4  T
  12    -11.1276322 -0.746398E-07  0.910E-04    1.64      49.1  T
  13    -11.1276322 -0.410273E-08  0.332E-04    1.64     134.8  T
     SCC iter.                  ...        0 min,  0.001 sec
     gradient                   ...        0 min,  0.001 sec
 * total energy  :   -11.0110510 Eh     change       -0.5924576E-01 Eh
   gradient norm :     0.1755751 Eh/α   predicted    -0.3732329E-01 ( -37.00%)
   displ. norm   :     0.6559964 α      lambda       -0.9351558E-01
   maximum displ.:     0.5284705 α      in ANC's #3, #8, #7, ...

........................................................................
.............................. CYCLE    3 ..............................
........................................................................
   1    -11.2626059 -0.112626E+02  0.354E+00    1.88       0.0  T
   2    -11.2619922  0.613666E-03  0.216E+00    1.86       1.0  T
   3    -11.2405925  0.213997E-01  0.198E+00    1.68       1.0  T
   4    -11.2629043 -0.223118E-01  0.752E-01    1.83       1.0  T
   5    -11.2665420 -0.363766E-02  0.212E-01    1.87       1.0  T
   6    -11.2667604 -0.218371E-03  0.979E-02    1.83       1.0  T
   7    -11.2667597  0.680860E-06  0.687E-02    1.87       1.0  T
   8    -11.2667878 -0.280561E-04  0.160E-02    1.85       2.8  T
   9    -11.2667899 -0.214442E-05  0.414E-03    1.85      10.8  T
  10    -11.2667899 -0.590401E-08  0.599E-04    1.85      74.7  T
  11    -11.2667899 -0.786383E-09  0.213E-04    1.85     210.2  T
     SCC iter.                  ...        0 min,  0.001 sec
     gradient                   ...        0 min,  0.001 sec
 * total energy  :   -11.0355854 Eh     change       -0.2453431E-01 Eh
   gradient norm :     0.2776414 Eh/α   predicted    -0.6687910E-01 ( 172.59%)
   displ. norm   :     0.2133704 α      lambda       -0.5000338E-01
   maximum displ.:     0.1225016 α      in ANC's #5, #8, #1, ...

........................................................................
.............................. CYCLE    4 ..............................
........................................................................
   1    -11.2098096 -0.112098E+02  0.156E+00    2.35       0.0  T
   2    -11.2092761  0.533458E-03  0.101E+00    2.50       1.0  T
   3    -11.2044293  0.484679E-02  0.107E+00    2.43       1.0  T
   4    -11.2082930 -0.386364E-02  0.668E-01    2.39       1.0  T
   5    -11.2112816 -0.298857E-02  0.107E-01    2.45       1.0  T
   6    -11.2113428 -0.612308E-04  0.695E-02    2.48       1.0  T
   7    -11.2113552 -0.124363E-04  0.244E-02    2.47       1.8  T
   8    -11.2113564 -0.121311E-05  0.738E-03    2.48       6.1  T
   9    -11.2113566 -0.139979E-06  0.322E-03    2.47      13.9  T
  10    -11.2113566 -0.901839E-08  0.320E-04    2.48     139.7  T
  11    -11.2113566 -0.645297E-10  0.985E-05    2.48     454.0  T
     SCC iter.                  ...        0 min,  0.001 sec
     gradient                   ...        0 min,  0.002 sec
 * total energy  :   -11.0594060 Eh     change       -0.2382064E-01 Eh
   gradient norm :     0.0576153 Eh/α   predicted    -0.2613994E-01 (   9.74%)
   displ. norm   :     0.1504496 α      lambda       -0.6704939E-02
   maximum displ.:     0.1009145 α      in ANC's #5, #1, #3, ...

........................................................................
.............................. CYCLE    5 ..............................
........................................................................
   1    -11.2206146 -0.112206E+02  0.624E-01    2.79       0.0  T
   2    -11.2203916  0.222950E-03  0.405E-01    2.74       1.0  T
   3    -11.2180372  0.235447E-02  0.613E-01    2.78       1.0  T
   4    -11.2206629 -0.262569E-02  0.117E-01    2.80       1.0  T
   5    -11.2207417 -0.788801E-04  0.422E-02    2.76       1.1  T
   6    -11.2207448 -0.306749E-05  0.303E-02    2.77       1.5  T
   7    -11.2207486 -0.382074E-05  0.845E-03    2.77       5.3  T
   8    -11.2207490 -0.356216E-06  0.258E-03    2.77      17.3  T
   9    -11.2207490 -0.731019E-08  0.123E-03    2.77      36.3  T
  10    -11.2207490 -0.230852E-08  0.112E-04    2.77     400.9  T
  11    -11.2207490 -0.593836E-11  0.174E-05    2.77    2572.1  T
     SCC iter.                  ...        0 min,  0.001 sec
     gradient                   ...        0 min,  0.001 sec
 * total energy  :   -11.0646919 Eh     change       -0.5285913E-02 Eh
   gradient norm :     0.0382211 Eh/α   predicted    -0.3428355E-02 ( -35.14%)
   displ. norm   :     0.2148411 α      lambda       -0.6248870E-02
   maximum displ.:     0.1503863 α      in ANC's #5, #3, #8, ...

........................................................................
.............................. CYCLE    6 ..............................
........................................................................
   1    -11.2304892 -0.112305E+02  0.815E-01    2.88       0.0  T
   2    -11.2304056  0.836226E-04  0.487E-01    2.81       1.0  T
   3    -11.2273721  0.303352E-02  0.650E-01    2.89       1.0  T
   4    -11.2304869 -0.311484E-02  0.161E-01    2.88       1.0  T
   5    -11.2306608 -0.173839E-03  0.432E-02    2.84       1.0  T
   6    -11.2306603  0.486035E-06  0.342E-02    2.85       1.3  T
   7    -11.2306655 -0.526878E-05  0.629E-03    2.85       7.1  T
   8    -11.2306657 -0.159300E-06  0.203E-03    2.84      22.1  T
   9    -11.2306657 -0.249442E-08  0.101E-03    2.84      44.4  T
  10    -11.2306657 -0.151743E-08  0.133E-04    2.84     335.7  T
  11    -11.2306657 -0.776623E-11  0.291E-05    2.84    1538.2  T
     SCC iter.                  ...        0 min,  0.001 sec
     gradient                   ...        0 min,  0.001 sec
 * total energy  :   -11.0685093 Eh     change       -0.3817377E-02 Eh
   gradient norm :     0.0175620 Eh/α   predicted    -0.3268650E-02 ( -14.37%)
   displ. norm   :     0.0732656 α      lambda       -0.8414685E-03
   maximum displ.:     0.0537486 α      in ANC's #5, #8, #2, ...

........................................................................
.............................. CYCLE    7 ..............................
........................................................................
   1    -11.2355053 -0.112355E+02  0.277E-01    2.88       0.0  T
   2    -11.2355192 -0.138730E-04  0.163E-01    2.85       1.0  T
   3    -11.2354741  0.451243E-04  0.118E-01    2.88       1.0  T
   4    -11.2354942 -0.201548E-04  0.770E-02    2.86       1.0  T
   5    -11.2355411 -0.468606E-04  0.116E-02    2.86       3.9  T
   6    -11.2355407  0.381400E-06  0.770E-03    2.86       5.8  T
   7    -11.2355412 -0.517328E-06  0.124E-03    2.86      36.1  T
   8    -11.2355412 -0.205696E-08  0.679E-04    2.86      65.9  T
   9    -11.2355412 -0.337749E-09  0.183E-04    2.86     244.0  T
     SCC iter.                  ...        0 min,  0.001 sec
     gradient                   ...        0 min,  0.001 sec
 * total energy  :   -11.0690480 Eh     change       -0.5386689E-03 Eh
   gradient norm :     0.0072864 Eh/α   predicted    -0.4229935E-03 ( -21.47%)
   displ. norm   :     0.0469629 α      lambda       -0.2054827E-03
   maximum displ.:     0.0351462 α      in ANC's #2, #5, #8, ...

........................................................................
.............................. CYCLE    8 ..............................
........................................................................
   1    -11.2358503 -0.112359E+02  0.181E-01    2.89       0.0  T
   2    -11.2357964  0.539391E-04  0.132E-01    2.89       1.0  T
   3    -11.2356946  0.101818E-03  0.162E-01    2.89       1.0  T
   4    -11.2358622 -0.167647E-03  0.364E-02    2.88       1.2  T
   5    -11.2358701 -0.785143E-05  0.796E-03    2.89       5.6  T
   6    -11.2358700  0.663172E-07  0.623E-03    2.89       7.2  T
   7    -11.2358702 -0.203880E-06  0.764E-04    2.89      58.5  T
   8    -11.2358702 -0.121379E-08  0.369E-04    2.89     121.3  T
     SCC iter.                  ...        0 min,  0.001 sec
     gradient                   ...        0 min,  0.001 sec
 * total energy  :   -11.0691520 Eh     change       -0.1040730E-03 Eh
   gradient norm :     0.0032569 Eh/α   predicted    -0.1029680E-03 (  -1.06%)
   displ. norm   :     0.0246461 α      lambda       -0.5630016E-04
   maximum displ.:     0.0175225 α      in ANC's #3, #1, #2, ...

........................................................................
.............................. CYCLE    9 ..............................
........................................................................
   1    -11.2375354 -0.112375E+02  0.995E-02    2.93       0.0  T
   2    -11.2375356 -0.213295E-06  0.642E-02    2.93       1.0  T
   3    -11.2375071  0.284948E-04  0.640E-02    2.93       1.0  T
   4    -11.2375310 -0.238157E-04  0.331E-02    2.93       1.4  T
   5    -11.2375388 -0.779082E-05  0.585E-03    2.93       7.6  T
   6    -11.2375387  0.113086E-07  0.341E-03    2.93      13.1  T
   7    -11.2375388 -0.505359E-07  0.193E-03    2.93      23.2  T
   8    -11.2375388 -0.206923E-07  0.374E-04    2.93     119.4  T
   9    -11.2375388 -0.627516E-10  0.644E-05    2.93     694.4  T
     SCC iter.                  ...        0 min,  0.001 sec
     gradient                   ...        0 min,  0.001 sec
 * total energy  :   -11.0691714 Eh     change       -0.1940676E-04 Eh
   gradient norm :     0.0044111 Eh/α   predicted    -0.2816690E-04 (  45.14%)
   displ. norm   :     0.0046314 α      lambda       -0.1424649E-04
   maximum displ.:     0.0021165 α      in ANC's #5, #9, #8, ...

........................................................................
.............................. CYCLE   10 ..............................
........................................................................
   1    -11.2367347 -0.112367E+02  0.256E-02    2.93       0.0  T
   2    -11.2367342  0.484787E-06  0.206E-02    2.94       2.2  T
   3    -11.2367344 -0.208000E-06  0.163E-02    2.93       2.7  T
   4    -11.2367349 -0.454825E-06  0.122E-02    2.93       3.7  T
   5    -11.2367359 -0.947970E-06  0.197E-03    2.93      22.7  T
   6    -11.2367359 -0.153824E-07  0.113E-03    2.93      39.7  T
   7    -11.2367359 -0.351256E-08  0.208E-04    2.93     215.0  T
   8    -11.2367359 -0.188248E-09  0.906E-05    2.93     493.7  T
     SCC iter.                  ...        0 min,  0.001 sec
     gradient                   ...        0 min,  0.001 sec
 * total energy  :   -11.0691809 Eh     change       -0.9493859E-05 Eh
   gradient norm :     0.0016917 Eh/α   predicted    -0.7124688E-05 ( -24.95%)
   displ. norm   :     0.0100954 α      lambda       -0.5461668E-05
   maximum displ.:     0.0080965 α      in ANC's #1, #2, #6, ...

........................................................................
.............................. CYCLE   11 ..............................
........................................................................
   1    -11.2360239 -0.112360E+02  0.630E-02    2.95       0.0  T
   2    -11.2360247 -0.809499E-06  0.387E-02    2.95       1.2  T
   3    -11.2360236  0.106600E-05  0.248E-02    2.95       1.8  T
   4    -11.2360254 -0.181357E-05  0.692E-03    2.95       6.5  T
   5    -11.2360256 -0.159511E-06  0.461E-03    2.95       9.7  T
   6    -11.2360256 -0.394288E-07  0.333E-03    2.95      13.4  T
   7    -11.2360257 -0.621419E-07  0.850E-04    2.95      52.6  T
   8    -11.2360257 -0.605687E-08  0.200E-04    2.95     224.0  T
     SCC iter.                  ...        0 min,  0.001 sec
     gradient                   ...        0 min,  0.001 sec
 * total energy  :   -11.0691848 Eh     change       -0.3896399E-05 Eh
   gradient norm :     0.0010139 Eh/α   predicted    -0.2732454E-05 ( -29.87%)
   displ. norm   :     0.0031469 α      lambda       -0.1655009E-05
   maximum displ.:     0.0019209 α      in ANC's #5, #7, #3, ...

........................................................................
.............................. CYCLE   12 ..............................
........................................................................
   1    -11.2361711 -0.112362E+02  0.173E-02    2.96       0.0  T
   2    -11.2361711  0.174882E-07  0.117E-02    2.96       3.8  T
   3    -11.2361700  0.110023E-05  0.130E-02    2.96       3.4  T
   4    -11.2361710 -0.102046E-05  0.544E-03    2.96       8.2  T
   5    -11.2361712 -0.203519E-06  0.865E-04    2.96      51.7  T
   6    -11.2361712  0.824267E-09  0.813E-04    2.96      55.0  T
     SCC iter.                  ...        0 min,  0.001 sec
     gradient                   ...        0 min,  0.001 sec
 * total energy  :   -11.0691866 Eh     change       -0.1792730E-05 Eh
   gradient norm :     0.0008816 Eh/α   predicted    -0.8288641E-06 ( -53.77%)
   displ. norm   :     0.0081701 α      lambda       -0.2717970E-05
   maximum displ.:     0.0039129 α      in ANC's #2, #1, #5, ...

   *** GEOMETRY OPTIMIZATION CONVERGED AFTER 12 ITERATIONS ***

------------------------------------------------------------------------
 total energy gain   :        -0.1173813 Eh      -73.6579 kcal/mol
 total RMSD          :         0.6272372 a0        0.3319 Å
 total power (kW/mol):       -25.6820527 (step)-6807.8855 (real)
------------------------------------------------------------------------

 ANCopt (total)                0 d,  0 h,  0 min,  0.045 sec
 optimizer setup                ...        0 min,  0.000 sec (  0.117%)
 model hessian                  ...        0 min,  0.000 sec (  0.168%)
 ANC generation                 ...        0 min,  0.000 sec (  0.095%)
 coordinate transformation      ...        0 min,  0.000 sec (  0.059%)
 single point calculation       ...        0 min,  0.044 sec ( 97.310%)
 optimization log               ...        0 min,  0.000 sec (  0.759%)
 hessian update                 ...        0 min,  0.000 sec (  0.058%)
 rational function              ...        0 min,  0.000 sec (  0.650%)

================
 final structure:
================
5
 xtb: 6.2.2 (9d81278992624c895f80dd42a50cac0aa55982e2)
N         1.09833875180761    0.25106899757505    0.86881471275905
C        -0.00776472995255    0.02636249363826    0.11806394069789
C        -1.09158738495245   -0.26824942693408   -0.93580750882344
C         1.41126536923809   -0.00040526842630   -0.36820995326007
C        -1.41025200614070   -0.00877779585293    0.31713880862657

 Bond Distances (Angstroems)
 ---------------------------
N1-C2=1.3556         N1-C4=1.3005         C2-N1=1.3556         C2-C3=1.5402         C2-C4=1.5003         C2-C5=1.4170         
C3-C2=1.5402         C3-C5=1.3186         C4-N1=1.3005         C4-C2=1.5003         C5-C2=1.4170         C5-C3=1.3186         
 C  C  Rav=1.4440 sigma=0.0850  Rmin=1.3186  Rmax=1.5402     4
 N  C  Rav=1.3281 sigma=0.0275  Rmin=1.3005  Rmax=1.3556     2

 selected bond angles (degree)
 --------------------
C4-N1-C2= 68.75                C3-C2-N1=170.02                C4-C2-N1= 53.89                C4-C2-C3=116.13                
C5-C2-N1=137.22                C5-C2-C3= 52.76                C5-C2-C4=168.89                C5-C3-C2= 58.82                
C2-C4-N1= 57.36                C3-C5-C2= 68.42                

 selected dihedral angles (degree)
 ---------------------------------
C3-C2-N1-C4=  1.10            C5-C2-N1-C4=179.98            C5-C3-C2-N1=179.04            C5-C3-C2-C4=180.03            
N1-C4-C2-C3=180.21            N1-C4-C2-C5=180.08            C3-C5-C2-N1=180.24            C3-C5-C2-C4=  0.15            
           -------------------------------------------------
          |                Final Singlepoint                |
           -------------------------------------------------

          ...................................................
          :                      SETUP                      :
          :.................................................:
          :  # basis functions                  20          :
          :  # atomic orbitals                  20          :
          :  # shells                           10          :
          :  # electrons                        21          :
          :  max. iterations                   250          :
          :  Hamiltonian                  GFN2-xTB          :
          :  restarted?                      false          :
          :  GBSA solvation                  false          :
          :  PC potential                    false          :
          :  electronic temp.          300.0000000     K    :
          :  accuracy                    1.0000000          :
          :  -> integral cutoff          0.2500000E+02      :
          :  -> integral neglect         0.1000000E-07      :
          :  -> SCF convergence          0.1000000E-05 Eh   :
          :  -> wf. convergence          0.1000000E-03 e    :
          :  Broyden damping             0.4000000          :
          ...................................................

 iter      E             dE          RMSdq      gap      omega  full diag
   1    -11.2361712 -0.112362E+02  0.261E-04    2.96       0.0  T
   2    -11.2361712 -0.525269E-11  0.190E-04    2.96     235.5  T
   3    -11.2361712 -0.160538E-09  0.115E-04    2.96     389.0  T

   *** convergence criteria satisfied after 3 iterations ***

         #    Occupation            Energy/Eh            Energy/eV
      -------------------------------------------------------------
         1        2.0000           -0.7608893             -20.7049
       ...           ...                  ...                  ...
         5        2.0000           -0.5960611             -16.2196
         6        2.0000           -0.5574879             -15.1700
         7        2.0000           -0.5353066             -14.5664
         8        2.0000           -0.5057343             -13.7617
         9        2.0000           -0.4606060             -12.5337
        10        2.0000           -0.4512890             -12.2802
        11        1.0000           -0.4288005             -11.6683 (HOMO)
        12                         -0.3199960              -8.7075 (LUMO)
        13                         -0.3156556              -8.5894
        14                         -0.2791396              -7.5958
        15                         -0.2700037              -7.3472
        16                         -0.0394375              -1.0732
       ...                                ...                  ...
        20                          0.5539646              15.0741
      -------------------------------------------------------------
                  HL-Gap            0.1088044 Eh            2.9607 eV
             Fermi-level           -0.4072215 Eh          -11.0811 eV

 SCC (total)                   0 d,  0 h,  0 min,  0.003 sec
 SCC setup                      ...        0 min,  0.000 sec (  1.356%)
 Dispersion                     ...        0 min,  0.000 sec (  0.378%)
 integral evaluation            ...        0 min,  0.001 sec ( 35.182%)
 zeroth order Hamiltonian       ...        0 min,  0.000 sec (  0.440%)
 iterations                     ...        0 min,  0.000 sec ( 13.067%)
 molecular gradient             ...        0 min,  0.002 sec ( 48.022%)
 printout                       ...        0 min,  0.000 sec (  1.300%)

         :::::::::::::::::::::::::::::::::::::::::::::::::::::
         ::                     SUMMARY                     ::
         :::::::::::::::::::::::::::::::::::::::::::::::::::::
         :: total energy             -11.069186618720 Eh    ::
         :: gradient norm              0.000899314294 Eh/a0 ::
         :: HOMO-LUMO gap              2.960718680889 eV    ::
         ::.................................................::
         :: SCC energy               -11.236171197366 Eh    ::
         :: -> isotropic ES           -0.004717472352 Eh    ::
         :: -> anisotropic ES          0.003256579060 Eh    ::
         :: -> anisotropic XC          0.010395229499 Eh    ::
         :: -> dispersion             -0.002768449803 Eh    ::
         :: repulsion energy           0.166984536259 Eh    ::
         :: add. restraining           0.000000000000 Eh    ::
         :::::::::::::::::::::::::::::::::::::::::::::::::::::

           ------------------------------------------------- 
          |                Numerical Hessian                |
           ------------------------------------------------- 
step length          :   0.00500
SCC accuracy         :   0.30000
Hessian scale factor :   1.00000
frozen atoms in %    :   0.00000    0
RMS gradient         :   0.00090
estimated CPU  time      0.00 min
estimated wall time      0.00 min

writing file <hessian>.

 projected vibrational frequencies (cm-1)
eigval :       -0.00    -0.00    -0.00     0.00     0.00     0.00
eigval :      218.83   231.98   340.71   435.86   738.61   861.45
eigval :     1027.76  1654.14  1817.43
           -------------------------------------------------
          |                Property Printout                |
           -------------------------------------------------

    * Orbital Energies and Occupations

         #    Occupation            Energy/Eh            Energy/eV
      -------------------------------------------------------------
         1        2.0000           -0.7608891             -20.7048
         2        2.0000           -0.7354039             -20.0114
         3        2.0000           -0.6409942             -17.4423
         4        2.0000           -0.6052475             -16.4696
         5        2.0000           -0.5960609             -16.2196
         6        2.0000           -0.5574876             -15.1700
         7        2.0000           -0.5353065             -14.5664
         8        2.0000           -0.5057341             -13.7617
         9        2.0000           -0.4606061             -12.5337
        10        2.0000           -0.4512890             -12.2802
        11        1.0000           -0.4288002             -11.6682 (HOMO)
        12                         -0.3199960              -8.7075 (LUMO)
        13                         -0.3156556              -8.5894
        14                         -0.2791394              -7.5958
        15                         -0.2700037              -7.3472
        16                         -0.0394374              -1.0731
        17                          0.0663490               1.8054
        18                          0.3431392               9.3373
        19                          0.4065292              11.0622
        20                          0.5539648              15.0741
      -------------------------------------------------------------
                  HL-Gap            0.1088042 Eh            2.9607 eV
             Fermi-level           -0.4072214 Eh          -11.0811 eV

     #   Z        covCN         q      C6AA      α(0)
     1   7 N      1.820    -0.114    24.248     7.296
     2   6 C      3.840     0.246    16.793     5.830
     3   6 C      1.955    -0.052    32.472     9.202
     4   6 C      1.888    -0.062    32.798     9.250
     5   6 C      1.961    -0.018    31.551     9.071

 Mol. C6AA /au·bohr⁶  :        677.729480
 Mol. C8AA /au·bohr⁸  :      18675.167246
 Mol. α(0) /au        :         40.648626


Wiberg/Mayer (AO) data.
largest (>0.10) Wiberg bond orders for each atom
          total WBO             WBO to atom ...
     1  N   3.002        C    4 1.621    C    2 1.144    C    3 0.174
     2  C   3.883        N    1 1.144    C    5 1.088    C    3 0.849    C    4 0.803
     3  C   2.855        C    5 1.722    C    2 0.849    N    1 0.174    C    4 0.111
Molecule has the following symmetry elements: (sigma) 
It seems to be the Cs point group
     4  C   2.669        N    1 1.621    C    2 0.803    C    5 0.133    C    3 0.111
     5  C   3.005        C    3 1.722    C    2 1.088    C    4 0.133

MOs/occ written to file <molden.input>


molecular dipole:
                 x           y           z       tot (Debye)
 q only:       -0.250      -0.015      -0.008
   full:       -0.283       0.047       0.280       1.019
molecular quadrupole (traceless):
                xx          xy          yy          xz          yz          zz
 q only:       -1.014      -0.251       0.848      -0.652      -0.199       0.166
  q+dip:       -2.967      -0.620       2.546      -1.363      -0.574       0.421
   full:       -3.432      -0.681       5.036      -0.829      -1.583      -1.603

           -------------------------------------------------
          |                Geometry Summary                 |
           -------------------------------------------------

      molecular mass/u    :       62.0496468
   center of mass at/Å    :        0.0353307       0.0080759       0.0279473
  moments of inertia/u·Å² :        0.2152350E+02   0.8321567E+02   0.1047390E+03
rotational constants/cm⁻¹ :        0.7832197E+00   0.2025776E+00   0.1609489E+00

 * 4 selected distances

     #   Z        #   Z                                     value/Å
     1   7 N      2   6 C                                 1.3555754
     1   7 N      4   6 C                                 1.3005354 (min)
     2   6 C      5   6 C                                 1.4169814 (max)
     3   6 C      5   6 C                                 1.3186156

 * 2 distinct bonds (by element types)

   Z      Z             #   av. dist./Å        max./Å        min./Å
   6 C    6 C           2     1.3677985     1.4169814     1.3186156
   6 C    7 N           2     1.3280554     1.3555754     1.3005354

           -------------------------------------------------
          |               Frequency Printout                |
           -------------------------------------------------
 projected vibrational frequencies (cm-1)
eigval :       -0.00    -0.00    -0.00     0.00     0.00     0.00
eigval :      218.83   231.98   340.71   435.86   738.61   861.45
eigval :     1027.76  1654.14  1817.43
 reduced masses (amu)
   1: 12.50   2: 12.05   3: 12.56   4: 12.80   5: 12.81   6: 12.15   7: 12.24   8: 12.48
   9: 12.07  10: 12.14  11: 12.21  12: 12.71  13: 12.57  14: 12.54  15: 12.31
 IR intensities (amu)
   1:  0.02   2:  0.12   3:  0.05   4:  0.07   5:  0.07   6:  0.05   7:  0.88   8:  0.02
   9:  0.75  10:  0.59  11:  0.34  12:  0.98  13:  0.75  14:  0.21  15:  1.01
 Raman intensities (amu)
   1:  0.00   2:  0.00   3:  0.00   4:  0.00   5:  0.00   6:  0.00   7:  0.00   8:  0.00
   9:  0.00  10:  0.00  11:  0.00  12:  0.00  13:  0.00  14:  0.00  15:  0.00
 output can be read by thermo (or use thermo option).
 writing <g98.out> molden fake output.
 recommended (thermochemical) frequency scaling factor: 1.0
           -------------------------------------------------
          |             Thermodynamic Functions             |
           -------------------------------------------------

cs  symmetry found (for desy threshold:  0.10E+00) used in thermo

          ...................................................
          :                      SETUP                      :
          :.................................................:
          :  # frequencies                           9      :
          :  # imaginary freq.                       0      :
          :  linear?                             false      :
          :  only rotor calc.                    false      :
          :  symmetry                               cs      :
          :  rotational number                       1      :
          :  scaling factor                  1.0000000      :
          :  rotor cutoff                   50.0000000 cm⁻¹ :
          :  imag. cutoff                  -20.0000000 cm⁻¹ :
          :.................................................:

    mode    ω/cm⁻¹     T·S(HO)/kcal·mol⁻¹    T·S(FR)/kcal·mol⁻¹   T·S(vib)
   ------------------------------------------------------------------------
       1    218.83    -0.00000 ( 99.73%)     0.01298 (  0.27%)     0.00004
       2    231.98    -0.00000 ( 99.78%)     0.01355 (  0.22%)     0.00003
   ------------------------------------------------------------------------

   temp. (K)  partition function   enthalpy   heat capacity  entropy
                                   cal/mol     cal/K/mol   cal/K/mol   J/K/mol
 298.15  VIB   3.39                 1185.577      8.318      6.401
         ROT  0.331E+05              888.752      2.981     23.662
         INT  0.112E+06             2074.329     11.298     30.063
         TR   0.473E+27             1481.254      4.968     38.278
         TOT                        3555.5829    16.2666    68.3410   285.9389

   temp. (K)  partition function   enthalpy   heat capacity  entropy
                                   cal/mol     cal/K/mol   cal/K/mol   J/K/mol
 120.00  VIB   1.18                  116.531      3.138      1.296
         ROT  0.845E+04              357.707      2.981     20.949
         INT  0.993E+04              474.238      6.119     22.245
         TR   0.121E+27              596.178      4.968     33.759
         TOT                        1070.4162    11.0874    56.0039   234.3201

   temp. (K)  partition function   enthalpy   heat capacity  entropy
                                   cal/mol     cal/K/mol   cal/K/mol   J/K/mol
 100.00  VIB   1.09                   62.198      2.284      0.803
         ROT  0.643E+04              298.089      2.981     20.406
         INT  0.703E+04              360.287      5.264     21.209
         TR   0.919E+26              496.815      4.968     32.853
         TOT                         857.1019    10.2326    54.0620   226.1954

   temp. (K)  partition function   enthalpy   heat capacity  entropy
                                   cal/mol     cal/K/mol   cal/K/mol   J/K/mol
  80.00  VIB   1.04                   25.478      1.388      0.397
         ROT  0.460E+04              238.471      2.981     19.741
         INT  0.478E+04              263.949      4.369     20.137
         TR   0.657E+26              397.452      4.968     31.745
         TOT                         661.4012     9.3371    51.8824   217.0760

   temp. (K)  partition function   enthalpy   heat capacity  entropy
                                   cal/mol     cal/K/mol   cal/K/mol   J/K/mol
  60.00  VIB   1.01                    6.176      0.573      0.124
         ROT  0.299E+04              178.853      2.981     18.883
         INT  0.302E+04              185.029      3.553     19.007
         TR   0.427E+26              298.089      4.968     30.317
         TOT                         483.1184     8.5216    49.3233   206.3688

   temp. (K)  partition function   enthalpy   heat capacity  entropy
                                   cal/mol     cal/K/mol   cal/K/mol   J/K/mol
  40.00  VIB   1.00                    0.401      0.081      0.011
         ROT  0.163E+04              119.236      2.981     17.674
         INT  0.163E+04              119.637      3.062     17.686
         TR   0.232E+26              198.726      4.968     28.303
         TOT                         318.3630     8.0305    45.9889   192.4174

   temp. (K)  partition function   enthalpy   heat capacity  entropy
                                   cal/mol     cal/K/mol   cal/K/mol   J/K/mol
  20.00  VIB   1.00                    0.000      0.000     -0.004
         ROT   575.                   59.618      2.981     15.608
         INT   575.                   59.618      2.981     15.604
         TR   0.822E+25               99.363      4.968     24.861
         TOT                         158.9809     7.9491    40.4656   169.3082

   temp. (K)  partition function   enthalpy   heat capacity  entropy
                                   cal/mol     cal/K/mol   cal/K/mol   J/K/mol
  10.00  VIB   1.00                    0.000      0.000     -0.008
         ROT   203.                   29.809      2.981     13.542
         INT   203.                   29.809      2.981     13.534
         TR   0.290E+25               49.681      4.968     21.419
         TOT                          79.4904     7.9490    34.9536   146.2460

       T/K    H(0)-H(T)+PV         H(T)/Eh          T*S/Eh         G(T)/Eh
   ------------------------------------------------------------------------
    298.15    0.566618E-02    0.223578E-01    0.324710E-01   -0.101132E-01
    120.00    0.170582E-02    0.183975E-01    0.107097E-01    0.768772E-02
    100.00    0.136588E-02    0.180575E-01    0.861533E-02    0.944219E-02
     80.00    0.105401E-02    0.177456E-01    0.661439E-02    0.111313E-01
     60.00    0.769898E-03    0.174615E-01    0.471610E-02    0.127454E-01
     40.00    0.507344E-03    0.171990E-01    0.293152E-02    0.142675E-01
     20.00    0.253352E-03    0.169450E-01    0.128972E-02    0.156553E-01
     10.00    0.126676E-03    0.168183E-01    0.557022E-03    0.162613E-01 (used)
   ------------------------------------------------------------------------

         :::::::::::::::::::::::::::::::::::::::::::::::::::::
         ::                  THERMODYNAMIC                  ::
         :::::::::::::::::::::::::::::::::::::::::::::::::::::
         :: total free energy         -11.052925323999 Eh   ::
         ::.................................................::
         :: total energy              -11.069186618341 Eh   ::
         :: zero point energy           0.016691639992 Eh   ::
         :: G(RRHO) w/o ZPVE           -0.000430345650 Eh   ::
         :: G(RRHO) contrib.            0.016261294342 Eh   ::
         :::::::::::::::::::::::::::::::::::::::::::::::::::::

optimized geometry written to: xtbopt.xyz


           -------------------------------------------------
          | TOTAL ENERGY              -11.069186618341 Eh   |
          | TOTAL ENTHALPY            -11.052368302334 Eh   |
          | TOTAL FREE ENERGY         -11.052925323999 Eh   |
          | GRADIENT NORM               0.000899944268 Eh/α |
          | HOMO-LUMO GAP               2.960711829896 eV   |
           -------------------------------------------------

------------------------------------------------------------------------
 * finished run on 2020/05/12 at 11:44:10.567     
------------------------------------------------------------------------
 total:
 * wall-time:     0 d,  0 h,  0 min,  0.176 sec
 *  cpu-time:     0 d,  0 h,  0 min,  0.174 sec
 * ratio c/w:     0.990 speedup
 SCF:
 * wall-time:     0 d,  0 h,  0 min,  0.005 sec
 *  cpu-time:     0 d,  0 h,  0 min,  0.005 sec
 * ratio c/w:     1.000 speedup
 ANC optimizer:
 * wall-time:     0 d,  0 h,  0 min,  0.049 sec
 *  cpu-time:     0 d,  0 h,  0 min,  0.049 sec
 * ratio c/w:     0.999 speedup
 numerical hessian:
 * wall-time:     0 d,  0 h,  0 min,  0.106 sec
 *  cpu-time:     0 d,  0 h,  0 min,  0.104 sec
 * ratio c/w:     0.989 speedup

