      -----------------------------------------------------------      
     |                   =====================                   |     
     |                           x T B                           |     
     |                   =====================                   |     
     |                         S. Grimme                         |     
     |          Mulliken Center for Theoretical Chemistry        |     
     |                    University of Bonn                     |     
      -----------------------------------------------------------      

   * xtb version 6.2.2 (9d81278992624c895f80dd42a50cac0aa55982e2) compiled by '@Darwin' on 04/03/2020

   xtb is free software: you can redistribute it and/or modify it under
   the terms of the GNU Lesser General Public License as published by
   the Free Software Foundation, either version 3 of the License, or
   (at your option) any later version.
   
   xtb is distributed in the hope that it will be useful,
   but WITHOUT ANY WARRANTY; without even the implied warranty of
   MERCHANTABILITY or FITNESS FOR A PARTICULAR PURPOSE.  See the
   GNU Lesser General Public License for more details.
   
   Cite this work as:
   * S. Grimme, C. Bannwarth, P. Shushkov, J. Chem. Theory Comput., 2017,
     13, 1989-2009. DOI: 10.1021/acs.jctc.7b00118
   * C. Bannwarth, S. Ehlert and S. Grimme., J. Chem. Theory Comput., 2019,
     15, 1652-1671. DOI: 10.1021/acs.jctc.8b01176
   * P. Pracht, E. Caldeweyher, S. Ehlert, S. Grimme, ChemRxiv, 2019, preprint.
     DOI: 10.26434/chemrxiv.8326202.v1
   
   for DFT-D4:
   * E. Caldeweyher, C. Bannwarth and S. Grimme, J. Chem. Phys., 2017,
     147, 034112. DOI: 10.1063/1.4993215
   * E. Caldeweyher, S. Ehlert, A. Hansen, H. Neugebauer, S. Spicher,
     C. Bannwarth and S. Grimme, J. Chem. Phys., 2019, 150, 154122.
     DOI: 10.1063/1.5090222
   
   for sTDA-xTB:
   * S. Grimme and C. Bannwarth, J. Chem. Phys., 2016, 145, 054103.
     DOI: 10.1063/1.4959605
   
   in the mass-spec context:
   * V. Asgeirsson, C. Bauer and S. Grimme, Chem. Sci., 2017, 8, 4879.
     DOI: 10.1039/c7sc00601b
   
   for metadynamics refer to:
   * S. Grimme, J. Chem. Theory Comput., 2019, 155, 2847-2862
     DOI: 10.1021/acs.jctc.9b00143
   
   with help from (in alphabetical order)
   C. Bannwarth, F. Bohle, G. Brandenburg, E. Caldeweyher, M. Checinski,
   S. Dohm, S. Ehlert, S. Ehrlich, F. März, H. Neugebauer, J. Pisarek,
   P. Pracht, P. Shushkov, and S. Spicher.
   
 * started run on 2020/05/12 at 11:44:20.347     

           -------------------------------------------------
          |                Calculation Setup                |
           -------------------------------------------------

          program call               : xtb --input C4N1_49_S_1.input C4N1_49_S_1.xyz --ohess --molden --namespace C4N1_49_S_1 output.out
          calculation namespace      : C4N1_49_S_1
          coordinate file            : C4N1_49_S_1.xyz
          number of atoms            :                     5
          number of electrons        :                    21
          charge                     :                     0
          spin                       :                   0.5
          first test random number   :      0.30992062611582

   ID    Z sym.   atoms
    1    6 C      1-4
    2    7 N      5

           -------------------------------------------------
          |                 G F N 2 - x T B                 |
           -------------------------------------------------

        Reference                      10.1021/acs.jctc.8b01176
      * Hamiltonian:
        H0-scaling (s, p, d)           1.850000    2.230000    2.230000
        zeta-weighting                 0.500000
      * Dispersion:
        s8                             2.700000
        a1                             0.520000
        a2                             5.000000
        s9                             5.000000
      * Repulsion:
        kExp                           1.500000    1.000000
        rExp                           1.000000
      * Coulomb:
        alpha                          2.000000
        third order                    shell-resolved
        anisotropic                    true
        a3                             3.000000
        a5                             4.000000
        cn-shift                       1.200000
        cn-exp                         4.000000
        max-rad                        5.000000


          ...................................................
          :                      SETUP                      :
          :.................................................:
          :  # basis functions                  20          :
          :  # atomic orbitals                  20          :
          :  # shells                           10          :
          :  # electrons                        21          :
          :  max. iterations                   250          :
          :  Hamiltonian                  GFN2-xTB          :
          :  restarted?                      false          :
          :  GBSA solvation                  false          :
          :  PC potential                    false          :
          :  electronic temp.          300.0000000     K    :
          :  accuracy                    1.0000000          :
          :  -> integral cutoff          0.2500000E+02      :
          :  -> integral neglect         0.1000000E-07      :
          :  -> SCF convergence          0.1000000E-05 Eh   :
          :  -> wf. convergence          0.1000000E-03 e    :
          :  Broyden damping             0.4000000          :
          ...................................................

 iter      E             dE          RMSdq      gap      omega  full diag
   1    -10.8442285 -0.108442E+02  0.905E+00    1.15       0.0  T
   2    -10.0867770  0.757451E+00  0.120E+01    0.49       1.0  T
   3    -11.0571226 -0.970346E+00  0.513E+00    1.82       1.0  T
   4    -11.1038047 -0.466821E-01  0.297E+00    1.48       1.0  T
   5    -10.9660883  0.137716E+00  0.451E+00    1.34       1.0  T
   6    -11.1070163 -0.140928E+00  0.684E-01    1.44       1.0  T
   7    -11.0985050  0.851129E-02  0.127E+00    1.36       1.0  T
   8    -11.1032248 -0.471987E-02  0.856E-01    1.39       1.0  T
   9    -11.1077981 -0.457330E-02  0.302E-01    1.43       1.0  T
  10    -11.1078316 -0.334772E-04  0.269E-01    1.43       1.0  T
  11    -11.1078109  0.207158E-04  0.311E-01    1.43       1.0  T
  12    -11.1075250  0.285926E-03  0.215E-01    1.42       1.0  T
  13    -11.1078501 -0.325154E-03  0.613E-02    1.42       1.0  T
  14    -11.1078449  0.518644E-05  0.790E-02    1.42       1.0  T
  15    -11.1078558 -0.108989E-04  0.240E-02    1.42       1.9  T
  16    -11.1078559 -0.613790E-07  0.264E-02    1.42       1.7  T
  17    -11.1078574 -0.150046E-05  0.103E-02    1.42       4.3  T
  18    -11.1078580 -0.634368E-06  0.889E-04    1.42      50.3  T
  19    -11.1078580  0.517755E-09  0.421E-04    1.42     106.2  T

   *** convergence criteria satisfied after 19 iterations ***

         #    Occupation            Energy/Eh            Energy/eV
      -------------------------------------------------------------
         1        2.0000           -0.7629536             -20.7610
       ...           ...                  ...                  ...
         5        2.0000           -0.5715990             -15.5540
         6        2.0000           -0.5432272             -14.7820
         7        2.0000           -0.4904622             -13.3462
         8        2.0000           -0.4864964             -13.2382
         9        2.0000           -0.4795561             -13.0494
        10        1.6975           -0.4444130             -12.0931
        11        1.3025           -0.4428252             -12.0499 (HOMO)
        12                         -0.3908004             -10.6342 (LUMO)
        13                         -0.3779253             -10.2839
        14                         -0.1202285              -3.2716
        15                         -0.1147562              -3.1227
        16                         -0.0374236              -1.0183
       ...                                ...                  ...
        20                          0.2755998               7.4995
      -------------------------------------------------------------
                  HL-Gap            0.0520248 Eh            1.4157 eV
             Fermi-level           -0.4301751 Eh          -11.7057 eV

 SCC (total)                   0 d,  0 h,  0 min,  0.005 sec
 SCC setup                      ...        0 min,  0.000 sec (  1.587%)
 Dispersion                     ...        0 min,  0.000 sec (  0.348%)
 integral evaluation            ...        0 min,  0.001 sec ( 27.122%)
 zeroth order Hamiltonian       ...        0 min,  0.000 sec (  0.426%)
 iterations                     ...        0 min,  0.002 sec ( 40.093%)
 molecular gradient             ...        0 min,  0.001 sec ( 28.618%)
 printout                       ...        0 min,  0.000 sec (  1.607%)

         :::::::::::::::::::::::::::::::::::::::::::::::::::::
         ::                     SUMMARY                     ::
         :::::::::::::::::::::::::::::::::::::::::::::::::::::
         :: total energy             -11.003436725869 Eh    ::
         :: gradient norm              0.163134084016 Eh/a0 ::
         :: HOMO-LUMO gap              1.415667761195 eV    ::
         ::.................................................::
         :: SCC energy               -11.107858039775 Eh    ::
         :: -> isotropic ES           -0.000766787538 Eh    ::
         :: -> anisotropic ES          0.000784869635 Eh    ::
         :: -> anisotropic XC          0.005973721768 Eh    ::
         :: -> dispersion             -0.002551369607 Eh    ::
         :: repulsion energy           0.104421290837 Eh    ::
         :: add. restraining           0.000000000000 Eh    ::
         :::::::::::::::::::::::::::::::::::::::::::::::::::::

      ----------------------------------------------------------- 
     |                   =====================                   |
     |                        A N C O P T                        |
     |                   =====================                   |
     |               Approximate Normal Coordinate               |
     |                Rational Function Optimizer                |
      ----------------------------------------------------------- 

          ...................................................
          :                      SETUP                      :
          :.................................................:
          :   optimization level            normal          :
          :   max. optcycles                   200          :
          :   ANC micro-cycles                  20          :
          :   degrees of freedom                 9          :
          :.................................................:
          :   RF solver                   davidson          :
          :   write xtbopt.log                true          :
          :   linear?                        false          :
          :   energy convergence         0.5000000E-05 Eh   :
          :   grad. convergence          0.1000000E-02 Eh/α :
          :   maximium RF displ.         1.0000000          :
          :   Hlow (freq-cutoff)         0.1000000E-01      :
          :   Hmax (freq-cutoff)         5.0000000          :
          :   S6 in model hess.         20.0000000          :
          ...................................................

generating ANC from model Hessian ...
Using Lindh-Hessian (1995)
 Shifting diagonal of input Hessian by    0.0000000000000000     
 Lowest  eigenvalues of input Hessian
   -0.000000   -0.000000    0.000000    0.000000    0.000000    0.000000
    0.109729    0.333181    0.640758    0.853196    0.863592    0.933600
    1.056462    1.122483    1.586341
 Highest eigenvalues
    0.853196    0.863592    0.933600    1.056462    1.122483    1.586341


........................................................................
.............................. CYCLE    1 ..............................
........................................................................
   1    -11.1078580 -0.111079E+02  0.295E-05    1.42       0.0  T
   2    -11.1078580  0.113603E-09  0.139E-04    1.42     322.8  T
   3    -11.1078580 -0.930420E-10  0.682E-05    1.42     655.8  T
     SCC iter.                  ...        0 min,  0.000 sec
     gradient                   ...        0 min,  0.001 sec
 * total energy  :   -11.0034367 Eh     change       -0.1415547E-08 Eh
   gradient norm :     0.1631377 Eh/α   predicted     0.0000000E+00 (-100.00%)
   displ. norm   :     0.1691405 α      lambda       -0.2562283E-01
   maximum displ.:     0.1356529 α      in ANC's #8, #2, #4, ...

........................................................................
.............................. CYCLE    2 ..............................
........................................................................
   1    -11.1391503 -0.111392E+02  0.131E+00    1.91       0.0  T
   2    -11.1395755 -0.425183E-03  0.818E-01    1.87       1.0  T
   3    -11.1267563  0.128192E-01  0.148E+00    1.92       1.0  T
   4    -11.1318020 -0.504571E-02  0.118E+00    1.76       1.0  T
   5    -11.1398902 -0.808819E-02  0.227E-01    1.86       1.0  T
   6    -11.1400224 -0.132203E-03  0.366E-02    1.86       1.2  T
   7    -11.1400113  0.110269E-04  0.506E-02    1.86       1.0  T
   8    -11.1400236 -0.122037E-04  0.102E-02    1.86       4.4  T
   9    -11.1400241 -0.549572E-06  0.259E-03    1.86      17.2  T
  10    -11.1400241  0.461822E-07  0.368E-03    1.86      12.2  T
  11    -11.1400241 -0.563876E-07  0.156E-03    1.86      28.6  T
  12    -11.1400241 -0.125949E-07  0.735E-04    1.86      60.8  T
  13    -11.1400241 -0.251106E-08  0.134E-04    1.86     332.8  T
     SCC iter.                  ...        0 min,  0.001 sec
     gradient                   ...        0 min,  0.001 sec
 * total energy  :   -11.0232935 Eh     change       -0.1985679E-01 Eh
   gradient norm :     0.0835062 Eh/α   predicted    -0.1317793E-01 ( -33.64%)
   displ. norm   :     0.1854494 α      lambda       -0.1409522E-01
   maximum displ.:     0.1427125 α      in ANC's #8, #2, #4, ...

........................................................................
.............................. CYCLE    3 ..............................
........................................................................
   1    -11.1671688 -0.111672E+02  0.143E+00    2.03       0.0  T
   2    -11.1676096 -0.440750E-03  0.855E-01    2.00       1.0  T
   3    -11.1671398  0.469756E-03  0.467E-01    1.97       1.0  T
   4    -11.1562386  0.109012E-01  0.137E+00    2.04       1.0  T
   5    -11.1677653 -0.115267E-01  0.146E-01    1.99       1.0  T
   6    -11.1678388 -0.734607E-04  0.834E-02    1.98       1.0  T
   7    -11.1678664 -0.275770E-04  0.170E-02    1.98       2.6  T
   8    -11.1678672 -0.852313E-06  0.117E-02    1.98       3.8  T
   9    -11.1678677 -0.525614E-06  0.240E-03    1.98      18.6  T
  10    -11.1678678 -0.201001E-07  0.142E-03    1.98      31.5  T
  11    -11.1678678 -0.842011E-08  0.587E-04    1.98      76.2  T
  12    -11.1678678 -0.171919E-09  0.185E-04    1.98     241.9  T
     SCC iter.                  ...        0 min,  0.001 sec
     gradient                   ...        0 min,  0.002 sec
 * total energy  :   -11.0276458 Eh     change       -0.4352250E-02 Eh
   gradient norm :     0.0494704 Eh/α   predicted    -0.7289983E-02 (  67.50%)
   displ. norm   :     0.0541926 α      lambda       -0.2548407E-02
   maximum displ.:     0.0503015 α      in ANC's #8, #2, #4, ...

........................................................................
.............................. CYCLE    4 ..............................
........................................................................
   1    -11.1583638 -0.111584E+02  0.456E-01    1.88       0.0  T
   2    -11.1002483  0.581155E-01  0.308E+00    2.01       1.0  T
   3    -11.1588578 -0.586094E-01  0.353E-01    1.95       1.0  T
   4    -11.1593875 -0.529720E-03  0.112E-01    1.93       1.0  T
   5    -11.1593940 -0.647650E-05  0.192E-02    1.93       2.3  T
   6    -11.1593937  0.215412E-06  0.148E-02    1.93       3.0  T
   7    -11.1593944 -0.639663E-06  0.863E-03    1.93       5.2  T
   8    -11.1593943  0.561640E-07  0.823E-03    1.93       5.4  T
   9    -11.1593944 -0.723047E-07  0.738E-03    1.93       6.1  T
  10    -11.1593946 -0.192741E-06  0.412E-03    1.93      10.9  T
  11    -11.1593946 -0.224123E-07  0.353E-03    1.93      12.7  T
  12    -11.1593947 -0.416454E-07  0.197E-03    1.93      22.7  T
  13    -11.1593947 -0.196498E-07  0.164E-04    1.93     272.2  T
  14    -11.1593947 -0.125496E-09  0.456E-05    1.93     979.8  T
     SCC iter.                  ...        0 min,  0.001 sec
     gradient                   ...        0 min,  0.001 sec
 * total energy  :   -11.0287683 Eh     change       -0.1122524E-02 Eh
   gradient norm :     0.0100916 Eh/α   predicted    -0.1277946E-02 (  13.85%)
   displ. norm   :     0.0158427 α      lambda       -0.1289410E-03
   maximum displ.:     0.0134944 α      in ANC's #2, #4, #8, ...

........................................................................
.............................. CYCLE    5 ..............................
........................................................................
   1    -11.1606179 -0.111606E+02  0.202E-01    1.93       0.0  T
   2    -11.1576369  0.298099E-02  0.648E-01    1.99       1.0  T
   3    -11.1606842 -0.304726E-02  0.140E-01    1.93       1.0  T
   4    -11.1607523 -0.681296E-04  0.630E-02    1.94       1.0  T
   5    -11.1607691 -0.167747E-04  0.242E-02    1.94       1.8  T
   6    -11.1607714 -0.232767E-05  0.117E-02    1.94       3.8  T
   7    -11.1607721 -0.665344E-06  0.268E-03    1.94      16.7  T
   8    -11.1607721 -0.474238E-07  0.805E-04    1.94      55.6  T
   9    -11.1607721 -0.942340E-10  0.537E-04    1.94      83.2  T
     SCC iter.                  ...        0 min,  0.001 sec
     gradient                   ...        0 min,  0.002 sec
 * total energy  :   -11.0288676 Eh     change       -0.9935418E-04 Eh
   gradient norm :     0.0061412 Eh/α   predicted    -0.6448599E-04 ( -35.09%)
   displ. norm   :     0.0205532 α      lambda       -0.1064584E-03
   maximum displ.:     0.0147045 α      in ANC's #2, #4, #9, ...

........................................................................
.............................. CYCLE    6 ..............................
........................................................................
   1    -11.1621312 -0.111621E+02  0.213E-01    1.93       0.0  T
   2    -11.1602195  0.191168E-02  0.519E-01    2.00       1.0  T
   3    -11.1622794 -0.205996E-02  0.110E-01    1.94       1.0  T
   4    -11.1623043 -0.248723E-04  0.413E-02    1.95       1.1  T
   5    -11.1623106 -0.632602E-05  0.138E-02    1.95       3.3  T
   6    -11.1623113 -0.635653E-06  0.745E-03    1.95       6.0  T
   7    -11.1623114 -0.808673E-07  0.540E-03    1.95       8.3  T
   8    -11.1623115 -0.152708E-06  0.919E-04    1.95      48.7  T
   9    -11.1623115 -0.245509E-08  0.285E-04    1.95     156.9  T
     SCC iter.                  ...        0 min,  0.001 sec
     gradient                   ...        0 min,  0.001 sec
 * total energy  :   -11.0289160 Eh     change       -0.4831700E-04 Eh
   gradient norm :     0.0015209 Eh/α   predicted    -0.5325264E-04 (  10.22%)
   displ. norm   :     0.0055739 α      lambda       -0.4576176E-05
   maximum displ.:     0.0053843 α      in ANC's #2, #9, #8, ...

........................................................................
.............................. CYCLE    7 ..............................
........................................................................
   1    -11.1619721 -0.111620E+02  0.526E-02    1.96       0.0  T
   2    -11.1619257  0.463900E-04  0.833E-02    1.94       1.0  T
   3    -11.1619766 -0.509659E-04  0.297E-02    1.95       1.5  T
   4    -11.1619800 -0.339136E-05  0.876E-03    1.95       5.1  T
   5    -11.1619802 -0.195241E-06  0.207E-03    1.95      21.6  T
   6    -11.1619802  0.338766E-08  0.133E-03    1.95      33.7  T
   7    -11.1619802 -0.120197E-07  0.296E-04    1.95     151.3  T
   8    -11.1619802 -0.205338E-09  0.173E-04    1.95     258.1  T
     SCC iter.                  ...        0 min,  0.001 sec
     gradient                   ...        0 min,  0.001 sec
 * total energy  :   -11.0289183 Eh     change       -0.2322124E-05 Eh
   gradient norm :     0.0004760 Eh/α   predicted    -0.2287894E-05 (  -1.47%)
   displ. norm   :     0.0018776 α      lambda       -0.5856837E-06
   maximum displ.:     0.0015328 α      in ANC's #2, #4, #9, ...

   *** GEOMETRY OPTIMIZATION CONVERGED AFTER 7 ITERATIONS ***

------------------------------------------------------------------------
 total energy gain   :        -0.0254816 Eh      -15.9899 kcal/mol
 total RMSD          :         0.1427810 a0        0.0756 Å
 total power (kW/mol):        -9.5574038 (step)-2361.8494 (real)
------------------------------------------------------------------------

 ANCopt (total)                0 d,  0 h,  0 min,  0.028 sec
 optimizer setup                ...        0 min,  0.000 sec (  0.311%)
 model hessian                  ...        0 min,  0.000 sec (  0.364%)
 ANC generation                 ...        0 min,  0.000 sec (  0.183%)
 coordinate transformation      ...        0 min,  0.000 sec (  0.052%)
 single point calculation       ...        0 min,  0.028 sec ( 97.224%)
 optimization log               ...        0 min,  0.000 sec (  0.539%)
 hessian update                 ...        0 min,  0.000 sec (  0.061%)
 rational function              ...        0 min,  0.000 sec (  0.557%)

================
 final structure:
================
5
 xtb: 6.2.2 (9d81278992624c895f80dd42a50cac0aa55982e2)
C         0.21613268313123    0.85778262337242   -0.06176469692214
C        -0.83677172777994   -0.03770184861002   -0.70191394105519
C         0.19397483343845   -0.86336703472144    0.05731225987039
C        -0.82002691281499    0.06027205885811    0.71986250644936
N         1.24669112402525   -0.01698579889906   -0.01349612834241

 Bond Distances (Angstroems)
 ---------------------------
C1-C2=1.5233         C1-C3=1.7254         C1-C4=1.5233         C1-N5=1.3526         C2-C1=1.5233         C2-C3=1.5233         
C2-C4=1.4252         C3-C1=1.7254         C3-C2=1.5233         C3-C4=1.5232         C3-N5=1.3526         C4-C1=1.5233         
C4-C2=1.4252         C4-C3=1.5232         N5-C1=1.3526         N5-C3=1.3526         
 C  C  Rav=1.5406 sigma=0.0901  Rmin=1.4252  Rmax=1.7254     6
 N  C  Rav=1.3526 sigma=0.0000  Rmin=1.3526  Rmax=1.3526     2

 selected bond angles (degree)
 --------------------
C3-C1-C2= 55.51                C4-C1-C2= 55.79                C4-C1-C3= 55.50                N5-C1-C2= 99.29                
N5-C1-C3= 50.37                N5-C1-C4= 99.29                C3-C2-C1= 68.99                C4-C2-C1= 62.11                
C4-C2-C3= 62.10                C2-C3-C1= 55.50                C4-C3-C1= 55.51                C4-C3-C2= 55.79                
N5-C3-C1= 50.37                N5-C3-C2= 99.29                N5-C3-C4= 99.29                C2-C4-C1= 62.10                
C3-C4-C1= 68.99                C3-C4-C2= 62.11                C3-N5-C1= 79.26                

 selected dihedral angles (degree)
 ---------------------------------
C3-C2-C1-C4=291.33            C3-C2-C1-N5= 26.29            C4-C2-C1-C3= 68.67            C4-C2-C1-N5= 94.96            
C2-C3-C1-C4= 69.17            C2-C3-C1-N5=214.58            C4-C3-C1-C2=290.83            C4-C3-C1-N5=145.41            
N5-C3-C1-C2=145.42            N5-C3-C1-C4=214.59            C1-C3-C2-C4=291.32            C4-C3-C2-C1= 68.68            
N5-C3-C2-C1=333.71            N5-C3-C2-C4=265.03            C2-C4-C1-C3=291.32            C2-C4-C1-N5=265.03            
C3-C4-C1-C2= 68.68            C3-C4-C1-N5=333.70            C1-C4-C2-C3= 79.70            C3-C4-C2-C1=280.30            
C1-C4-C3-C2=291.33            C1-C4-C3-N5= 26.30            C2-C4-C3-C1= 68.67            C2-C4-C3-N5= 94.96            
C3-N5-C1-C2=331.70            C3-N5-C1-C4= 28.30            C1-N5-C3-C2= 28.29            C1-N5-C3-C4=331.70            
           -------------------------------------------------
          |                Final Singlepoint                |
           -------------------------------------------------

          ...................................................
          :                      SETUP                      :
          :.................................................:
          :  # basis functions                  20          :
          :  # atomic orbitals                  20          :
          :  # shells                           10          :
          :  # electrons                        21          :
          :  max. iterations                   250          :
          :  Hamiltonian                  GFN2-xTB          :
          :  restarted?                      false          :
          :  GBSA solvation                  false          :
          :  PC potential                    false          :
          :  electronic temp.          300.0000000     K    :
          :  accuracy                    1.0000000          :
          :  -> integral cutoff          0.2500000E+02      :
          :  -> integral neglect         0.1000000E-07      :
          :  -> SCF convergence          0.1000000E-05 Eh   :
          :  -> wf. convergence          0.1000000E-03 e    :
          :  Broyden damping             0.4000000          :
          ...................................................

 iter      E             dE          RMSdq      gap      omega  full diag
   1    -11.1619802 -0.111620E+02  0.155E-04    1.95       0.0  T
   2    -11.1619802  0.563347E-09  0.291E-04    1.95     153.6  T
   3    -11.1619802 -0.698416E-09  0.433E-05    1.95    1033.0  T

   *** convergence criteria satisfied after 3 iterations ***

         #    Occupation            Energy/Eh            Energy/eV
      -------------------------------------------------------------
         1        2.0000           -0.7689266             -20.9236
       ...           ...                  ...                  ...
         5        2.0000           -0.5763962             -15.6845
         6        2.0000           -0.5462205             -14.8634
         7        2.0000           -0.5000065             -13.6059
         8        2.0000           -0.4722389             -12.8503
         9        2.0000           -0.4581802             -12.4677
        10        1.9566           -0.4480813             -12.1929
        11        1.0434           -0.4422039             -12.0330 (HOMO)
        12                         -0.3704492             -10.0804 (LUMO)
        13                         -0.3522927              -9.5864
        14                         -0.1332864              -3.6269
        15                         -0.0908282              -2.4716
        16                          0.0336758               0.9164
       ...                                ...                  ...
        20                          0.3337204               9.0810
      -------------------------------------------------------------
                  HL-Gap            0.0717547 Eh            1.9525 eV
             Fermi-level           -0.4257345 Eh          -11.5848 eV

 SCC (total)                   0 d,  0 h,  0 min,  0.003 sec
 SCC setup                      ...        0 min,  0.000 sec (  1.629%)
 Dispersion                     ...        0 min,  0.000 sec (  0.216%)
 integral evaluation            ...        0 min,  0.001 sec ( 41.025%)
 zeroth order Hamiltonian       ...        0 min,  0.000 sec (  0.469%)
 iterations                     ...        0 min,  0.000 sec ( 11.292%)
 molecular gradient             ...        0 min,  0.001 sec ( 43.748%)
 printout                       ...        0 min,  0.000 sec (  1.339%)

         :::::::::::::::::::::::::::::::::::::::::::::::::::::
         ::                     SUMMARY                     ::
         :::::::::::::::::::::::::::::::::::::::::::::::::::::
         :: total energy             -11.028918286274 Eh    ::
         :: gradient norm              0.000476642390 Eh/a0 ::
         :: HOMO-LUMO gap              1.952543663137 eV    ::
         ::.................................................::
         :: SCC energy               -11.161980235007 Eh    ::
         :: -> isotropic ES           -0.000414964232 Eh    ::
         :: -> anisotropic ES          0.001766383379 Eh    ::
         :: -> anisotropic XC          0.008879529321 Eh    ::
         :: -> dispersion             -0.002491105898 Eh    ::
         :: repulsion energy           0.133061930277 Eh    ::
         :: add. restraining           0.000000000000 Eh    ::
         :::::::::::::::::::::::::::::::::::::::::::::::::::::

           ------------------------------------------------- 
          |                Numerical Hessian                |
           ------------------------------------------------- 
step length          :   0.00500
SCC accuracy         :   0.30000
Hessian scale factor :   1.00000
frozen atoms in %    :   0.00000    0
RMS gradient         :   0.00048
estimated CPU  time      0.00 min
estimated wall time      0.00 min

writing file <hessian>.

 projected vibrational frequencies (cm-1)
eigval :       -0.00    -0.00    -0.00    -0.00     0.00     0.00
eigval :    -1016.76   241.58   726.05   794.10   851.15   905.69
eigval :      964.68  1399.31  1449.88
           -------------------------------------------------
          |                Property Printout                |
           -------------------------------------------------

    * Orbital Energies and Occupations

         #    Occupation            Energy/Eh            Energy/eV
      -------------------------------------------------------------
         1        2.0000           -0.7689267             -20.9236
         2        2.0000           -0.6889558             -18.7474
         3        2.0000           -0.6354291             -17.2909
         4        2.0000           -0.6217981             -16.9200
         5        2.0000           -0.5763963             -15.6845
         6        2.0000           -0.5462205             -14.8634
         7        2.0000           -0.5000065             -13.6059
         8        2.0000           -0.4722391             -12.8503
         9        2.0000           -0.4581802             -12.4677
        10        1.9566           -0.4480814             -12.1929
        11        1.0434           -0.4422037             -12.0330 (HOMO)
        12                         -0.3704493             -10.0804 (LUMO)
        13                         -0.3522928              -9.5864
        14                         -0.1332864              -3.6269
        15                         -0.0908281              -2.4716
        16                          0.0336758               0.9164
        17                          0.0939613               2.5568
        18                          0.1491594               4.0588
        19                          0.2840768               7.7301
        20                          0.3337203               9.0810
      -------------------------------------------------------------
                  HL-Gap            0.0717544 Eh            1.9525 eV
             Fermi-level           -0.4257345 Eh          -11.5848 eV

     #   Z        covCN         q      C6AA      α(0)
     1   6 C      3.770     0.063    19.556     6.302
     2   6 C      3.011    -0.003    28.091     8.694
     3   6 C      3.770     0.063    19.556     6.302
     4   6 C      3.011    -0.003    28.091     8.694
     5   7 N      1.981    -0.119    24.331     7.315

 Mol. C6AA /au·bohr⁶  :        592.811218
 Mol. C8AA /au·bohr⁸  :      16277.274920
 Mol. α(0) /au        :         37.307335


Wiberg/Mayer (AO) data.
largest (>0.10) Wiberg bond orders for each atom
          total WBO             WBO to atom ...
     1  C   3.561        N    5 1.272    C    2 0.835    C    4 0.835    C    3 0.618
     2  C   3.053        C    4 1.153    C    1 0.835    C    3 0.835    N    5 0.229
     3  C   3.561        N    5 1.272    C    4 0.835    C    2 0.835    C    1 0.618
     4  C   3.053        C    2 1.153    C    3 0.835    C    1 0.835    N    5 0.229
     5  N   3.003        C    3 1.272    C    1 1.272    C    4 0.229    C    2 0.229

MOs/occ written to file <molden.input>


molecular dipole:
                 x           y           z       tot (Debye)
Molecule has the following symmetry elements: (C2) 2*(sigma) 
It seems to be the C2v point group
 q only:       -0.222       0.003       0.002
   full:       -0.388       0.005       0.004       0.987
molecular quadrupole (traceless):
                xx          xy          yy          xz          yz          zz
 q only:       -0.821       0.020       0.668       0.010      -0.036       0.153
  q+dip:       -1.918       0.033       0.423       0.038       0.076       1.495
   full:       -2.334       0.045       0.950       0.041       0.031       1.384

           -------------------------------------------------
          |                Geometry Summary                 |
           -------------------------------------------------

      molecular mass/u    :       62.0496468
   center of mass at/Å    :        0.0401026      -0.0005466      -0.0004343
  moments of inertia/u·Å² :        0.3007701E+02   0.5137536E+02   0.5705463E+02
rotational constants/cm⁻¹ :        0.5604823E+00   0.3281268E+00   0.2954648E+00

 * 3 selected distances

     #   Z        #   Z                                     value/Å
     2   6 C      4   6 C                                 1.4252465 (max)
     1   6 C      5   7 N                                 1.3526272
     3   6 C      5   7 N                                 1.3526221 (min)

 * 2 distinct bonds (by element types)

   Z      Z             #   av. dist./Å        max./Å        min./Å
   6 C    6 C           1     1.4252465     1.4252465     1.4252465
   6 C    7 N           2     1.3526247     1.3526272     1.3526221

           -------------------------------------------------
          |               Frequency Printout                |
           -------------------------------------------------
 projected vibrational frequencies (cm-1)
eigval :       -0.00    -0.00    -0.00    -0.00     0.00     0.00
eigval :    -1016.76   241.58   726.05   794.10   851.15   905.69
eigval :      964.68  1399.31  1449.88
 reduced masses (amu)
   1: 13.18   2: 12.57   3: 12.19   4: 12.29   5: 12.13   6: 12.56   7: 12.01   8: 12.74
   9: 12.43  10: 12.03  11: 12.26  12: 12.59  13: 12.21  14: 12.37  15: 12.58
 IR intensities (amu)
   1:  0.11   2:  0.05   3:  0.02   4:  0.07   5:  0.05   6:  0.05   7:  0.01   8:  0.16
   9:  1.34  10:  0.72  11:  0.51  12:  1.94  13:  0.49  14:  1.59  15:  0.20
 Raman intensities (amu)
   1:  0.00   2:  0.00   3:  0.00   4:  0.00   5:  0.00   6:  0.00   7:  0.00   8:  0.00
   9:  0.00  10:  0.00  11:  0.00  12:  0.00  13:  0.00  14:  0.00  15:  0.00
 output can be read by thermo (or use thermo option).
 writing <g98.out> molden fake output.
 recommended (thermochemical) frequency scaling factor: 1.0
           -------------------------------------------------
          |             Thermodynamic Functions             |
           -------------------------------------------------

c2v symmetry found (for desy threshold:  0.10E+00) used in thermo

          ...................................................
          :                      SETUP                      :
          :.................................................:
          :  # frequencies                           8      :
          :  # imaginary freq.                       1      :
          :  linear?                             false      :
          :  only rotor calc.                    false      :
          :  symmetry                              c2v      :
          :  rotational number                       2      :
          :  scaling factor                  1.0000000      :
          :  rotor cutoff                   50.0000000 cm⁻¹ :
          :  imag. cutoff                  -20.0000000 cm⁻¹ :
          :.................................................:

    mode    ω/cm⁻¹     T·S(HO)/kcal·mol⁻¹    T·S(FR)/kcal·mol⁻¹   T·S(vib)
   ------------------------------------------------------------------------
       1    241.58    -0.00000 ( 99.82%)     0.01396 (  0.18%)     0.00003
   ------------------------------------------------------------------------

   temp. (K)  partition function   enthalpy   heat capacity  entropy
                                   cal/mol     cal/K/mol   cal/K/mol   J/K/mol
 298.15  VIB   1.60                  536.270      4.893      2.727
         ROT  0.113E+05              888.752      2.981     21.534
         INT  0.181E+05             1425.023      7.874     24.261
         TR   0.473E+27             1481.254      4.968     38.278
         TOT                        2906.2767    12.8417    62.5393   261.6644

   temp. (K)  partition function   enthalpy   heat capacity  entropy
                                   cal/mol     cal/K/mol   cal/K/mol   J/K/mol
 120.00  VIB   1.06                   41.046      1.084      0.457
         ROT  0.290E+04              357.707      2.981     18.821
         INT  0.307E+04              398.753      4.065     19.278
         TR   0.121E+27              596.178      4.968     33.759
         TOT                         994.9310     9.0333    53.0368   221.9060

   temp. (K)  partition function   enthalpy   heat capacity  entropy
                                   cal/mol     cal/K/mol   cal/K/mol   J/K/mol
 100.00  VIB   1.03                   22.157      0.803      0.285
         ROT  0.220E+04              298.089      2.981     18.278
         INT  0.227E+04              320.246      3.784     18.563
         TR   0.919E+26              496.815      4.968     32.853
         TOT                         817.0611     8.7517    51.4165   215.1267

   temp. (K)  partition function   enthalpy   heat capacity  entropy
                                   cal/mol     cal/K/mol   cal/K/mol   J/K/mol
  80.00  VIB   1.01                    9.087      0.501      0.140
         ROT  0.158E+04              238.471      2.981     17.613
         INT  0.160E+04              247.558      3.482     17.753
         TR   0.657E+26              397.452      4.968     31.745
         TOT                         645.0101     8.4498    49.4986   207.1020

   temp. (K)  partition function   enthalpy   heat capacity  entropy
                                   cal/mol     cal/K/mol   cal/K/mol   J/K/mol
  60.00  VIB   1.00                    2.113      0.205      0.042
         ROT  0.102E+04              178.853      2.981     16.755
         INT  0.103E+04              180.966      3.185     16.797
         TR   0.427E+26              298.089      4.968     30.317
         TOT                         479.0549     8.1536    47.1138   197.1242

   temp. (K)  partition function   enthalpy   heat capacity  entropy
                                   cal/mol     cal/K/mol   cal/K/mol   J/K/mol
  40.00  VIB   1.00                    0.116      0.025      0.003
         ROT   557.                  119.236      2.981     15.547
         INT   557.                  119.352      3.006     15.550
         TR   0.232E+26              198.726      4.968     28.303
         TOT                         318.0779     7.9743    43.8530   183.4810

   temp. (K)  partition function   enthalpy   heat capacity  entropy
                                   cal/mol     cal/K/mol   cal/K/mol   J/K/mol
  20.00  VIB   1.00                    0.000      0.000     -0.001
         ROT   197.                   59.618      2.981     13.480
         INT   197.                   59.618      2.981     13.479
         TR   0.822E+25               99.363      4.968     24.861
         TOT                         158.9808     7.9491    38.3403   160.4158

   temp. (K)  partition function   enthalpy   heat capacity  entropy
                                   cal/mol     cal/K/mol   cal/K/mol   J/K/mol
  10.00  VIB   1.00                    0.000      0.000     -0.003
         ROT   69.7                   29.809      2.981     11.414
         INT   69.7                   29.809      2.981     11.411
         TR   0.290E+25               49.681      4.968     21.419
         TOT                          79.4904     7.9490    32.8308   137.3641

       T/K    H(0)-H(T)+PV         H(T)/Eh          T*S/Eh         G(T)/Eh
   ------------------------------------------------------------------------
    298.15    0.463145E-02    0.213360E-01    0.297144E-01   -0.837846E-02
    120.00    0.158552E-02    0.182901E-01    0.101423E-01    0.814771E-02
    100.00    0.130207E-02    0.180066E-01    0.819374E-02    0.981286E-02
     80.00    0.102789E-02    0.177324E-01    0.631048E-02    0.114219E-01
     60.00    0.763423E-03    0.174680E-01    0.450484E-02    0.129631E-01
     40.00    0.506889E-03    0.172114E-01    0.279537E-02    0.144161E-01
     20.00    0.253352E-03    0.169579E-01    0.122198E-02    0.157359E-01
     10.00    0.126676E-03    0.168312E-01    0.523192E-03    0.163080E-01 (used)
   ------------------------------------------------------------------------

         :::::::::::::::::::::::::::::::::::::::::::::::::::::
         ::                  THERMODYNAMIC                  ::
         :::::::::::::::::::::::::::::::::::::::::::::::::::::
         :: total free energy         -11.012610271754 Eh   ::
         ::.................................................::
         :: total energy              -11.028918286268 Eh   ::
         :: zero point energy           0.016704530871 Eh   ::
         :: G(RRHO) w/o ZPVE           -0.000396516357 Eh   ::
         :: G(RRHO) contrib.            0.016308014514 Eh   ::
         :::::::::::::::::::::::::::::::::::::::::::::::::::::
imag cut-off (cm-1) :    5.00
 found            1  significant imaginary frequency
 writing imag mode distorted coords to xtbhess.xyz
 for further optimization.

optimized geometry written to: xtbopt.xyz


           -------------------------------------------------
          | TOTAL ENERGY              -11.028918286268 Eh   |
          | TOTAL ENTHALPY            -11.012087079382 Eh   |
          | TOTAL FREE ENERGY         -11.012610271754 Eh   |
          | GRADIENT NORM               0.000477144291 Eh/α |
          | HOMO-LUMO GAP               1.952537915590 eV   |
           -------------------------------------------------

------------------------------------------------------------------------
 * finished run on 2020/05/12 at 11:44:20.508     
------------------------------------------------------------------------
 total:
 * wall-time:     0 d,  0 h,  0 min,  0.160 sec
 *  cpu-time:     0 d,  0 h,  0 min,  0.160 sec
 * ratio c/w:     0.999 speedup
 SCF:
 * wall-time:     0 d,  0 h,  0 min,  0.005 sec
 *  cpu-time:     0 d,  0 h,  0 min,  0.005 sec
 * ratio c/w:     0.999 speedup
 ANC optimizer:
 * wall-time:     0 d,  0 h,  0 min,  0.032 sec
 *  cpu-time:     0 d,  0 h,  0 min,  0.032 sec
 * ratio c/w:     0.999 speedup
 numerical hessian:
 * wall-time:     0 d,  0 h,  0 min,  0.108 sec
 *  cpu-time:     0 d,  0 h,  0 min,  0.107 sec
 * ratio c/w:     0.999 speedup

