2
 energy: -6.121850243718 gnorm: 0.000109735002 xtb: 6.2.2 (9d81278992624c895f80dd42a50cac0aa55982e2)
O         0.56367674321614   -0.00000295140453   -0.00000196760302
C        -0.56367674321614    0.00000295140453    0.00000196760302
