      -----------------------------------------------------------      
     |                   =====================                   |     
     |                           x T B                           |     
     |                   =====================                   |     
     |                         S. Grimme                         |     
     |          Mulliken Center for Theoretical Chemistry        |     
     |                    University of Bonn                     |     
      -----------------------------------------------------------      

   * xtb version 6.2.2 (9d81278992624c895f80dd42a50cac0aa55982e2) compiled by '@Darwin' on 04/03/2020

   xtb is free software: you can redistribute it and/or modify it under
   the terms of the GNU Lesser General Public License as published by
   the Free Software Foundation, either version 3 of the License, or
   (at your option) any later version.
   
   xtb is distributed in the hope that it will be useful,
   but WITHOUT ANY WARRANTY; without even the implied warranty of
   MERCHANTABILITY or FITNESS FOR A PARTICULAR PURPOSE.  See the
   GNU Lesser General Public License for more details.
   
   Cite this work as:
   * S. Grimme, C. Bannwarth, P. Shushkov, J. Chem. Theory Comput., 2017,
     13, 1989-2009. DOI: 10.1021/acs.jctc.7b00118
   * C. Bannwarth, S. Ehlert and S. Grimme., J. Chem. Theory Comput., 2019,
     15, 1652-1671. DOI: 10.1021/acs.jctc.8b01176
   * P. Pracht, E. Caldeweyher, S. Ehlert, S. Grimme, ChemRxiv, 2019, preprint.
     DOI: 10.26434/chemrxiv.8326202.v1
   
   for DFT-D4:
   * E. Caldeweyher, C. Bannwarth and S. Grimme, J. Chem. Phys., 2017,
     147, 034112. DOI: 10.1063/1.4993215
   * E. Caldeweyher, S. Ehlert, A. Hansen, H. Neugebauer, S. Spicher,
     C. Bannwarth and S. Grimme, J. Chem. Phys., 2019, 150, 154122.
     DOI: 10.1063/1.5090222
   
   for sTDA-xTB:
   * S. Grimme and C. Bannwarth, J. Chem. Phys., 2016, 145, 054103.
     DOI: 10.1063/1.4959605
   
   in the mass-spec context:
   * V. Asgeirsson, C. Bauer and S. Grimme, Chem. Sci., 2017, 8, 4879.
     DOI: 10.1039/c7sc00601b
   
   for metadynamics refer to:
   * S. Grimme, J. Chem. Theory Comput., 2019, 155, 2847-2862
     DOI: 10.1021/acs.jctc.9b00143
   
   with help from (in alphabetical order)
   C. Bannwarth, F. Bohle, G. Brandenburg, E. Caldeweyher, M. Checinski,
   S. Dohm, S. Ehlert, S. Ehrlich, F. März, H. Neugebauer, J. Pisarek,
   P. Pracht, P. Shushkov, and S. Spicher.
   
 * started run on 2020/05/12 at 11:44:18.299     

           -------------------------------------------------
          |                Calculation Setup                |
           -------------------------------------------------

          program call               : xtb --input C4N1_44_S_3.input C4N1_44_S_3.xyz --ohess --molden --namespace C4N1_44_S_3 output.out
          calculation namespace      : C4N1_44_S_3
          coordinate file            : C4N1_44_S_3.xyz
          number of atoms            :                     5
          number of electrons        :                    21
          charge                     :                     0
          spin                       :                   1.5
          first test random number   :      0.32139576183878

   ID    Z sym.   atoms
    1    6 C      1-3, 5
    2    7 N      4

           -------------------------------------------------
          |                 G F N 2 - x T B                 |
           -------------------------------------------------

        Reference                      10.1021/acs.jctc.8b01176
      * Hamiltonian:
        H0-scaling (s, p, d)           1.850000    2.230000    2.230000
        zeta-weighting                 0.500000
      * Dispersion:
        s8                             2.700000
        a1                             0.520000
        a2                             5.000000
        s9                             5.000000
      * Repulsion:
        kExp                           1.500000    1.000000
        rExp                           1.000000
      * Coulomb:
        alpha                          2.000000
        third order                    shell-resolved
        anisotropic                    true
        a3                             3.000000
        a5                             4.000000
        cn-shift                       1.200000
        cn-exp                         4.000000
        max-rad                        5.000000


          ...................................................
          :                      SETUP                      :
          :.................................................:
          :  # basis functions                  20          :
          :  # atomic orbitals                  20          :
          :  # shells                           10          :
          :  # electrons                        21          :
          :  max. iterations                   250          :
          :  Hamiltonian                  GFN2-xTB          :
          :  restarted?                      false          :
          :  GBSA solvation                  false          :
          :  PC potential                    false          :
          :  electronic temp.          300.0000000     K    :
          :  accuracy                    1.0000000          :
          :  -> integral cutoff          0.2500000E+02      :
          :  -> integral neglect         0.1000000E-07      :
          :  -> SCF convergence          0.1000000E-05 Eh   :
          :  -> wf. convergence          0.1000000E-03 e    :
          :  Broyden damping             0.4000000          :
          ...................................................

 iter      E             dE          RMSdq      gap      omega  full diag
   1    -10.9274155 -0.109274E+02  0.743E+00    0.88       0.0  T
   2    -10.3943698  0.533046E+00  0.753E+00    1.07       1.0  T
   3    -10.5762796 -0.181910E+00  0.680E+00    0.87       1.0  T
   4    -10.8580776 -0.281798E+00  0.473E+00    0.80       1.0  T
   5    -10.9439290 -0.858513E-01  0.284E+00    0.86       1.0  T
   6    -10.9747841 -0.308551E-01  0.208E+00    0.84       1.0  T
   7    -10.9749732 -0.189115E-03  0.199E+00    0.83       1.0  T
   8    -10.9787062 -0.373303E-02  0.155E+00    0.83       1.0  T
   9    -10.9923353 -0.136291E-01  0.467E-01    0.84       1.0  T
  10    -10.9922763  0.589914E-04  0.473E-01    0.84       1.0  T
  11    -10.9922644  0.119580E-04  0.591E-01    0.84       1.0  T
  12    -10.9923482 -0.838041E-04  0.282E-01    0.84       1.0  T
  13    -10.9924296 -0.813928E-04  0.227E-01    0.84       1.0  T
  14    -10.9925701 -0.140480E-03  0.224E-02    0.84       2.0  T
  15    -10.9925724 -0.231575E-05  0.102E-02    0.84       4.4  T
  16    -10.9925725 -0.810878E-07  0.557E-03    0.84       8.0  T
  17    -10.9925725 -0.157691E-07  0.538E-03    0.84       8.3  T
  18    -10.9925726 -0.834110E-07  0.892E-04    0.84      50.1  T
  19    -10.9925726 -0.213574E-08  0.615E-04    0.84      72.7  T

   *** convergence criteria satisfied after 19 iterations ***

         #    Occupation            Energy/Eh            Energy/eV
      -------------------------------------------------------------
         1        2.0000           -0.7836146             -21.3232
       ...           ...                  ...                  ...
         6        2.0000           -0.5093528             -13.8602
         7        2.0000           -0.5000986             -13.6084
         8        2.0000           -0.4861876             -13.2298
         9        1.9161           -0.4771411             -12.9837
        10        1.0839           -0.4725996             -12.8601
        11        1.0000           -0.4602387             -12.5237
        12        1.0000           -0.3882011             -10.5635 (HOMO)
        13                         -0.3573453              -9.7239 (LUMO)
        14                         -0.2190464              -5.9606
        15                         -0.1579095              -4.2969
        16                         -0.1437942              -3.9128
        17                          0.0048300               0.1314
       ...                                ...                  ...
        20                          0.3636646               9.8958
      -------------------------------------------------------------
                  HL-Gap            0.0308557 Eh            0.8396 eV
             Fermi-level           -0.4238218 Eh          -11.5328 eV

 SCC (total)                   0 d,  0 h,  0 min,  0.005 sec
 SCC setup                      ...        0 min,  0.000 sec (  1.537%)
 Dispersion                     ...        0 min,  0.000 sec (  0.319%)
 integral evaluation            ...        0 min,  0.001 sec ( 25.107%)
 zeroth order Hamiltonian       ...        0 min,  0.000 sec (  0.381%)
 iterations                     ...        0 min,  0.002 sec ( 39.321%)
 molecular gradient             ...        0 min,  0.002 sec ( 31.079%)
 printout                       ...        0 min,  0.000 sec (  2.094%)

         :::::::::::::::::::::::::::::::::::::::::::::::::::::
         ::                     SUMMARY                     ::
         :::::::::::::::::::::::::::::::::::::::::::::::::::::
         :: total energy             -10.884336760923 Eh    ::
         :: gradient norm              0.164290818053 Eh/a0 ::
         :: HOMO-LUMO gap              0.839627306637 eV    ::
         ::.................................................::
         :: SCC energy               -10.992572566669 Eh    ::
         :: -> isotropic ES           -0.003536637984 Eh    ::
         :: -> anisotropic ES          0.002686607947 Eh    ::
         :: -> anisotropic XC          0.007144866358 Eh    ::
         :: -> dispersion             -0.002765856243 Eh    ::
         :: repulsion energy           0.108235771661 Eh    ::
         :: add. restraining           0.000000000000 Eh    ::
         :::::::::::::::::::::::::::::::::::::::::::::::::::::

      ----------------------------------------------------------- 
     |                   =====================                   |
     |                        A N C O P T                        |
     |                   =====================                   |
     |               Approximate Normal Coordinate               |
     |                Rational Function Optimizer                |
      ----------------------------------------------------------- 

          ...................................................
          :                      SETUP                      :
          :.................................................:
          :   optimization level            normal          :
          :   max. optcycles                   200          :
          :   ANC micro-cycles                  20          :
          :   degrees of freedom                 9          :
          :.................................................:
          :   RF solver                   davidson          :
          :   write xtbopt.log                true          :
          :   linear?                        false          :
          :   energy convergence         0.5000000E-05 Eh   :
          :   grad. convergence          0.1000000E-02 Eh/α :
          :   maximium RF displ.         1.0000000          :
          :   Hlow (freq-cutoff)         0.1000000E-01      :
          :   Hmax (freq-cutoff)         5.0000000          :
          :   S6 in model hess.         20.0000000          :
          ...................................................

generating ANC from model Hessian ...
Using Lindh-Hessian (1995)
 Shifting diagonal of input Hessian by    0.0000000000000000     
 Lowest  eigenvalues of input Hessian
   -0.000000   -0.000000   -0.000000   -0.000000    0.000000    0.000000
    0.062071    0.172579    0.420066    0.670977    0.800590    1.090006
    1.175024    1.334666    1.903786
 Highest eigenvalues
    0.670977    0.800590    1.090006    1.175024    1.334666    1.903786


........................................................................
.............................. CYCLE    1 ..............................
........................................................................
   1    -10.9925726 -0.109926E+02  0.308E-04    0.84       0.0  T
   2    -10.9925726  0.454211E-08  0.762E-04    0.84      58.7  T
   3    -10.9925726 -0.342046E-08  0.460E-04    0.84      97.3  T
     SCC iter.                  ...        0 min,  0.001 sec
     gradient                   ...        0 min,  0.001 sec
 * total energy  :   -10.8843368 Eh     change        0.7778324E-08 Eh
   gradient norm :     0.1642879 Eh/α   predicted     0.0000000E+00 (-100.00%)
   displ. norm   :     0.2968689 α      lambda       -0.3416072E-01
   maximum displ.:     0.2115715 α      in ANC's #1, #3, #5, ...

........................................................................
.............................. CYCLE    2 ..............................
........................................................................
   1    -11.0246834 -0.110247E+02  0.190E+00    1.23       0.0  T
   2    -11.0228900  0.179334E-02  0.144E+00    1.22       1.0  T
   3    -11.0245080 -0.161803E-02  0.116E+00    1.26       1.0  T
   4    -11.0215411  0.296699E-02  0.133E+00    1.21       1.0  T
   5    -11.0295156 -0.797458E-02  0.286E-01    1.24       1.0  T
   6    -11.0294411  0.745255E-04  0.298E-01    1.25       1.0  T
   7    -11.0301108 -0.669677E-03  0.112E-01    1.24       1.0  T
   8    -11.0300983  0.124902E-04  0.836E-02    1.25       1.0  T
   9    -11.0301396 -0.413360E-04  0.352E-02    1.25       1.3  T
  10    -11.0301435 -0.392143E-05  0.137E-02    1.25       3.3  T
  11    -11.0301447 -0.112410E-05  0.202E-03    1.25      22.2  T
  12    -11.0301447 -0.173086E-07  0.621E-04    1.25      72.1  T
  13    -11.0301447 -0.225319E-08  0.265E-04    1.25     168.6  T
     SCC iter.                  ...        0 min,  0.001 sec
     gradient                   ...        0 min,  0.001 sec
 * total energy  :   -10.9130564 Eh     change       -0.2871962E-01 Eh
   gradient norm :     0.1076258 Eh/α   predicted    -0.1858567E-01 ( -35.29%)
   displ. norm   :     0.4388800 α      lambda       -0.4245842E-01
   maximum displ.:     0.3581928 α      in ANC's #3, #4, #5, ...

........................................................................
.............................. CYCLE    3 ..............................
........................................................................
   1    -11.0941499 -0.110941E+02  0.273E+00    1.87       0.0  T
   2    -11.0818363  0.123135E-01  0.231E+00    1.72       1.0  T
   3    -11.0945216 -0.126853E-01  0.170E+00    1.97       1.0  T
   4    -11.0924270  0.209457E-02  0.147E+00    1.75       1.0  T
   5    -11.1030305 -0.106035E-01  0.566E-01    1.87       1.0  T
   6    -11.1054714 -0.244093E-02  0.204E-01    1.86       1.0  T
   7    -11.1054893 -0.178799E-04  0.893E-02    1.86       1.0  T
   8    -11.1055050 -0.156627E-04  0.221E-02    1.87       2.0  T
   9    -11.1055064 -0.143892E-05  0.879E-03    1.87       5.1  T
  10    -11.1055065 -0.740046E-07  0.207E-03    1.87      21.6  T
  11    -11.1055065 -0.226172E-07  0.100E-03    1.87      44.6  T
  12    -11.1055065 -0.211274E-08  0.224E-04    1.87     199.5  T
  13    -11.1055065 -0.135190E-09  0.574E-05    1.87     779.5  T
     SCC iter.                  ...        0 min,  0.001 sec
     gradient                   ...        0 min,  0.001 sec
 * total energy  :   -10.9083761 Eh     change        0.4680248E-02 Eh
   gradient norm :     0.2685314 Eh/α   predicted    -0.2531827E-01 (-640.96%)
   displ. norm   :     0.2749753 α      lambda       -0.5556204E-01
   maximum displ.:     0.2030713 α      in ANC's #1, #3, #5, ...

........................................................................
.............................. CYCLE    4 ..............................
........................................................................
   1    -11.0535488 -0.110535E+02  0.124E+00    1.54       0.0  T
   2    -11.0524379  0.111095E-02  0.967E-01    1.60       1.0  T
   3    -11.0528302 -0.392342E-03  0.805E-01    1.55       1.0  T
   4    -11.0535429 -0.712658E-03  0.528E-01    1.55       1.0  T
   5    -11.0551248 -0.158190E-02  0.338E-01    1.57       1.0  T
   6    -11.0558335 -0.708688E-03  0.718E-02    1.56       1.0  T
   7    -11.0558356 -0.212767E-05  0.465E-02    1.56       1.0  T
   8    -11.0558380 -0.242370E-05  0.161E-02    1.56       2.8  T
   9    -11.0558389 -0.901536E-06  0.703E-03    1.56       6.4  T
  10    -11.0558391 -0.189120E-06  0.845E-04    1.56      52.9  T
  11    -11.0558391 -0.462123E-08  0.190E-04    1.56     235.4  T
     SCC iter.                  ...        0 min,  0.001 sec
     gradient                   ...        0 min,  0.001 sec
 * total energy  :   -10.9297923 Eh     change       -0.2141613E-01 Eh
   gradient norm :     0.0367264 Eh/α   predicted    -0.2988158E-01 (  39.53%)
   displ. norm   :     0.0625377 α      lambda       -0.2079899E-02
   maximum displ.:     0.0454400 α      in ANC's #4, #3, #6, ...

........................................................................
.............................. CYCLE    5 ..............................
........................................................................
   1    -11.0618571 -0.110619E+02  0.494E-01    1.60       0.0  T
   2    -11.0601624  0.169470E-02  0.524E-01    1.58       1.0  T
   3    -11.0619967 -0.183430E-02  0.295E-01    1.59       1.0  T
   4    -11.0619147  0.819550E-04  0.278E-01    1.60       1.0  T
   5    -11.0624527 -0.537994E-03  0.382E-02    1.59       1.2  T
   6    -11.0624591 -0.639230E-05  0.164E-02    1.59       2.7  T
   7    -11.0624593 -0.236682E-06  0.722E-03    1.59       6.2  T
   8    -11.0624595 -0.213407E-06  0.275E-03    1.59      16.3  T
   9    -11.0624596 -0.254107E-07  0.101E-03    1.59      44.2  T
  10    -11.0624596 -0.229573E-08  0.214E-04    1.59     208.6  T
  11    -11.0624596 -0.867431E-10  0.306E-05    1.59    1463.4  T
     SCC iter.                  ...        0 min,  0.001 sec
     gradient                   ...        0 min,  0.001 sec
 * total energy  :   -10.9314075 Eh     change       -0.1615285E-02 Eh
   gradient norm :     0.0214236 Eh/α   predicted    -0.1044018E-02 ( -35.37%)
   displ. norm   :     0.0994129 α      lambda       -0.1698322E-02
   maximum displ.:     0.0684087 α      in ANC's #4, #3, #1, ...

........................................................................
.............................. CYCLE    6 ..............................
........................................................................
   1    -11.0671085 -0.110671E+02  0.762E-01    1.62       0.0  T
   2    -11.0642883  0.282019E-02  0.729E-01    1.58       1.0  T
   3    -11.0670955 -0.280716E-02  0.462E-01    1.62       1.0  T
   4    -11.0679335 -0.837988E-03  0.188E-01    1.61       1.0  T
   5    -11.0681941 -0.260583E-03  0.488E-02    1.60       1.0  T
   6    -11.0682038 -0.972833E-05  0.204E-02    1.60       2.2  T
   7    -11.0682043 -0.457777E-06  0.805E-03    1.61       5.6  T
   8    -11.0682045 -0.281735E-06  0.280E-03    1.61      16.0  T
   9    -11.0682046 -0.828538E-08  0.118E-03    1.61      38.0  T
  10    -11.0682046 -0.334720E-08  0.239E-04    1.61     187.4  T
  11    -11.0682046 -0.331983E-10  0.382E-05    1.61    1170.5  T
     SCC iter.                  ...        0 min,  0.001 sec
     gradient                   ...        0 min,  0.002 sec
 * total energy  :   -10.9323130 Eh     change       -0.9054297E-03 Eh
   gradient norm :     0.0116481 Eh/α   predicted    -0.8575515E-03 (  -5.29%)
   displ. norm   :     0.0239679 α      lambda       -0.1881426E-03
   maximum displ.:     0.0160916 α      in ANC's #2, #7, #5, ...

........................................................................
.............................. CYCLE    7 ..............................
........................................................................
   1    -11.0691930 -0.110692E+02  0.167E-01    1.58       0.0  T
   2    -11.0691581  0.349305E-04  0.110E-01    1.57       1.0  T
   3    -11.0690879  0.701196E-04  0.137E-01    1.58       1.0  T
   4    -11.0692099 -0.121939E-03  0.252E-02    1.57       1.8  T
   5    -11.0692117 -0.184991E-05  0.122E-02    1.57       3.7  T
   6    -11.0692124 -0.690017E-06  0.644E-03    1.57       6.9  T
   7    -11.0692126 -0.204230E-06  0.314E-03    1.57      14.3  T
   8    -11.0692127 -0.359548E-07  0.674E-04    1.57      66.3  T
   9    -11.0692127 -0.551239E-09  0.208E-04    1.57     214.9  T
     SCC iter.                  ...        0 min,  0.001 sec
     gradient                   ...        0 min,  0.001 sec
 * total energy  :   -10.9324902 Eh     change       -0.1772690E-03 Eh
   gradient norm :     0.0095368 Eh/α   predicted    -0.9412469E-04 ( -46.90%)
   displ. norm   :     0.4832285 α      lambda       -0.3391930E-02
   maximum displ.:     0.3741398 α      in ANC's #2, #5, #7, ...

........................................................................
.............................. CYCLE    8 ..............................
........................................................................
   1    -11.0774365 -0.110774E+02  0.284E+00    1.28       0.0  T
   2    -11.0596209  0.178156E-01  0.207E+00    1.06       1.0  T
   3    -10.9334602  0.126161E+00  0.391E+00    1.56       1.0  T
   4    -11.0758019 -0.142342E+00  0.877E-01    1.28       1.0  T
   5    -11.0787570 -0.295514E-02  0.518E-01    1.18       1.0  T
   6    -11.0801966 -0.143956E-02  0.218E-01    1.21       1.0  T
   7    -11.0802715 -0.748998E-04  0.164E-01    1.21       1.0  T
   8    -11.0802894 -0.179362E-04  0.445E-02    1.20       1.0  T
   9    -11.0802929 -0.350269E-05  0.127E-02    1.20       3.5  T
  10    -11.0802926  0.306274E-06  0.755E-03    1.20       5.9  T
  11    -11.0802930 -0.379289E-06  0.179E-03    1.20      25.0  T
  12    -11.0802930 -0.590634E-08  0.731E-04    1.20      61.2  T
  13    -11.0802930 -0.332141E-08  0.172E-04    1.20     260.4  T
     SCC iter.                  ...        0 min,  0.001 sec
     gradient                   ...        0 min,  0.001 sec
 * total energy  :   -10.9378125 Eh     change       -0.5322226E-02 Eh
   gradient norm :     0.0562867 Eh/α   predicted    -0.2091996E-02 ( -60.69%)
   displ. norm   :     0.6711850 α      lambda       -0.1369535E-01
   maximum displ.:     0.5040196 α      in ANC's #2, #3, #4, ...

........................................................................
.............................. CYCLE    9 ..............................
........................................................................
   1    -11.0698120 -0.110698E+02  0.303E+00    1.39       0.0  T
   2    -11.0571607  0.126514E-01  0.228E+00    1.57       1.0  T
   3    -11.0074033  0.497574E-01  0.298E+00    1.30       1.0  T
   4    -11.0402839 -0.328807E-01  0.191E+00    1.62       1.0  T
   5    -11.0697919 -0.295080E-01  0.567E-01    1.37       1.0  T
   6    -11.0727690 -0.297705E-02  0.305E-01    1.47       1.0  T
   7    -11.0732849 -0.515911E-03  0.157E-01    1.45       1.0  T
   8    -11.0733877 -0.102844E-03  0.713E-02    1.44       1.0  T
   9    -11.0734196 -0.319027E-04  0.119E-02    1.44       3.8  T
  10    -11.0734201 -0.431975E-06  0.717E-03    1.44       6.2  T
  11    -11.0734201 -0.509241E-07  0.757E-04    1.44      59.1  T
  12    -11.0734201 -0.274158E-09  0.405E-04    1.44     110.3  T
     SCC iter.                  ...        0 min,  0.001 sec
     gradient                   ...        0 min,  0.001 sec
 * total energy  :   -10.9513910 Eh     change       -0.1357850E-01 Eh
   gradient norm :     0.1033452 Eh/α   predicted    -0.9932497E-02 ( -26.85%)
   displ. norm   :     0.4184106 α      lambda       -0.1051756E-01
   maximum displ.:     0.2699652 α      in ANC's #2, #3, #4, ...

........................................................................
.............................. CYCLE   10 ..............................
........................................................................
   1    -11.0623980 -0.110624E+02  0.167E+00    1.52       0.0  T
   2    -11.0574232  0.497486E-02  0.128E+00    1.65       1.0  T
   3    -11.0093031  0.481201E-01  0.215E+00    1.39       1.0  T
   4    -11.0413996 -0.320965E-01  0.163E+00    1.68       1.0  T
   5    -11.0623624 -0.209628E-01  0.447E-01    1.55       1.0  T
   6    -11.0635099 -0.114746E-02  0.257E-01    1.58       1.0  T
   7    -11.0638349 -0.324982E-03  0.152E-01    1.57       1.0  T
   8    -11.0639153 -0.804250E-04  0.868E-02    1.57       1.0  T
   9    -11.0639546 -0.392966E-04  0.964E-03    1.56       4.6  T
  10    -11.0639546 -0.619285E-07  0.249E-03    1.56      18.0  T
  11    -11.0639547 -0.119056E-07  0.872E-04    1.56      51.3  T
  12    -11.0639547 -0.456212E-08  0.775E-05    1.56     577.2  T
     SCC iter.                  ...        0 min,  0.001 sec
     gradient                   ...        0 min,  0.002 sec
 * total energy  :   -10.9532264 Eh     change       -0.1835455E-02 Eh
   gradient norm :     0.1389509 Eh/α   predicted    -0.6179412E-02 ( 236.67%)
   displ. norm   :     0.2284613 α      lambda       -0.1963507E-01
   maximum displ.:     0.1367690 α      in ANC's #2, #7, #5, ...

........................................................................
.............................. CYCLE   11 ..............................
........................................................................
   1    -11.1087689 -0.111088E+02  0.141E+00    1.92       0.0  T
   2    -11.0411394  0.676295E-01  0.273E+00    1.63       1.0  T
   3    -11.1105335 -0.693941E-01  0.842E-01    1.97       1.0  T
   4    -11.1044936  0.603989E-02  0.116E+00    1.75       1.0  T
   5    -11.1132465 -0.875292E-02  0.428E-01    1.81       1.0  T
   6    -11.1146806 -0.143402E-02  0.134E-01    1.86       1.0  T
   7    -11.1147154 -0.348066E-04  0.691E-02    1.86       1.0  T
   8    -11.1147369 -0.215593E-04  0.138E-02    1.87       3.2  T
   9    -11.1147379 -0.102123E-05  0.726E-03    1.87       6.2  T
  10    -11.1147380 -0.830190E-07  0.220E-03    1.87      20.4  T
  11    -11.1147380 -0.110803E-07  0.497E-04    1.87      90.0  T
  12    -11.1147380 -0.385256E-10  0.118E-04    1.87     378.5  T
     SCC iter.                  ...        0 min,  0.001 sec
     gradient                   ...        0 min,  0.001 sec
 * total energy  :   -10.9643521 Eh     change       -0.1112564E-01 Eh
   gradient norm :     0.0660408 Eh/α   predicted    -0.1032996E-01 (  -7.15%)
   displ. norm   :     0.1897270 α      lambda       -0.7789224E-02
   maximum displ.:     0.1320545 α      in ANC's #2, #8, #1, ...

........................................................................
.............................. CYCLE   12 ..............................
........................................................................
   1    -11.1277188 -0.111277E+02  0.823E-01    2.02       0.0  T
   2    -11.1155217  0.121971E-01  0.113E+00    1.84       1.0  T
   3    -11.1207833 -0.526159E-02  0.955E-01    2.08       1.0  T
   4    -11.1260248 -0.524153E-02  0.634E-01    2.00       1.0  T
   5    -11.1286516 -0.262674E-02  0.109E-01    1.98       1.0  T
   6    -11.1287192 -0.676905E-04  0.478E-02    1.97       1.0  T
   7    -11.1287216 -0.235451E-05  0.317E-02    1.97       1.4  T
   8    -11.1287213  0.275448E-06  0.134E-02    1.97       3.3  T
   9    -11.1287228 -0.145757E-05  0.343E-03    1.97      13.0  T
  10    -11.1287228 -0.224901E-07  0.678E-04    1.97      65.9  T
  11    -11.1287228 -0.678931E-09  0.245E-04    1.97     182.3  T
     SCC iter.                  ...        0 min,  0.001 sec
     gradient                   ...        0 min,  0.001 sec
 * total energy  :   -10.9698430 Eh     change       -0.5490904E-02 Eh
   gradient norm :     0.0274565 Eh/α   predicted    -0.4034804E-02 ( -26.52%)
   displ. norm   :     0.3275936 α      lambda       -0.6457685E-02
   maximum displ.:     0.2570870 α      in ANC's #2, #8, #9, ...

........................................................................
.............................. CYCLE   13 ..............................
........................................................................
   1    -11.1227471 -0.111227E+02  0.161E+00    1.98       0.0  T
   2    -11.0497512  0.729959E-01  0.260E+00    1.75       1.0  T
   3    -11.0762782 -0.265270E-01  0.237E+00    2.20       1.0  T
   4    -11.1228160 -0.465378E-01  0.821E-01    1.97       1.0  T
   5    -11.1246573 -0.184135E-02  0.425E-01    1.99       1.0  T
   6    -11.1257393 -0.108191E-02  0.295E-01    1.96       1.0  T
   7    -11.1257416 -0.229728E-05  0.293E-01    1.96       1.0  T
   8    -11.1258753 -0.133778E-03  0.160E-01    1.95       1.0  T
   9    -11.1259168 -0.414273E-04  0.542E-02    1.95       1.0  T
  10    -11.1259208 -0.401457E-05  0.367E-02    1.95       1.2  T
  11    -11.1259250 -0.419236E-05  0.721E-03    1.95       6.2  T
  12    -11.1259251 -0.131742E-06  0.264E-03    1.95      16.9  T
  13    -11.1259251 -0.324349E-07  0.630E-04    1.95      71.0  T
  14    -11.1259251 -0.113759E-08  0.395E-05    1.95    1132.1  T
     SCC iter.                  ...        0 min,  0.001 sec
     gradient                   ...        0 min,  0.001 sec
 * total energy  :   -10.9747152 Eh     change       -0.4872263E-02 Eh
   gradient norm :     0.0259540 Eh/α   predicted    -0.3575352E-02 ( -26.62%)
   displ. norm   :     0.3907603 α      lambda       -0.4563571E-02
   maximum displ.:     0.2942616 α      in ANC's #2, #8, #9, ...

........................................................................
.............................. CYCLE   14 ..............................
........................................................................
   1    -11.1147756 -0.111148E+02  0.215E+00    1.82       0.0  T
   2    -11.0794390  0.353366E-01  0.192E+00    1.73       1.0  T
   3    -11.0118023  0.676367E-01  0.308E+00    2.17       1.0  T
   4    -11.1102414 -0.984391E-01  0.141E+00    1.78       1.0  T
   5    -11.1101064  0.135027E-03  0.893E-01    1.88       1.0  T
   6    -11.1155518 -0.544536E-02  0.513E-01    1.84       1.0  T
   7    -11.1158882 -0.336394E-03  0.463E-01    1.84       1.0  T
   8    -11.1164498 -0.561636E-03  0.288E-01    1.83       1.0  T
   9    -11.1167394 -0.289603E-03  0.727E-02    1.82       1.0  T
  10    -11.1167460 -0.658677E-05  0.422E-02    1.82       1.1  T
  11    -11.1167516 -0.565652E-05  0.235E-03    1.82      19.1  T
  12    -11.1167517 -0.542193E-08  0.148E-03    1.82      30.3  T
  13    -11.1167517 -0.175067E-07  0.109E-04    1.82     409.3  T
  14    -11.1167517 -0.252580E-10  0.200E-05    1.82    2231.1  T
     SCC iter.                  ...        0 min,  0.001 sec
     gradient                   ...        0 min,  0.001 sec
 * total energy  :   -10.9777666 Eh     change       -0.3051407E-02 Eh
   gradient norm :     0.0497887 Eh/α   predicted    -0.2630198E-02 ( -13.80%)
   displ. norm   :     0.2743755 α      lambda       -0.3925654E-02
   maximum displ.:     0.1729083 α      in ANC's #2, #8, #9, ...

........................................................................
.............................. CYCLE   15 ..............................
........................................................................
   1    -11.1192619 -0.111193E+02  0.149E+00    1.81       0.0  T
   2    -11.1186933  0.568589E-03  0.889E-01    1.80       1.0  T
   3    -11.0880808  0.306125E-01  0.158E+00    2.00       1.0  T
   4    -11.1133271 -0.252463E-01  0.777E-01    1.75       1.0  T
   5    -11.1192960 -0.596888E-02  0.229E-01    1.84       1.0  T
   6    -11.1197835 -0.487456E-03  0.694E-02    1.83       1.0  T
   7    -11.1198029 -0.193913E-04  0.395E-02    1.83       1.1  T
   8    -11.1198035 -0.605927E-06  0.274E-02    1.83       1.6  T
   9    -11.1198071 -0.367715E-05  0.373E-03    1.83      12.0  T
  10    -11.1198072 -0.369244E-07  0.119E-03    1.83      37.7  T
  11    -11.1198072 -0.580470E-08  0.252E-04    1.83     177.3  T
  12    -11.1198072 -0.882050E-10  0.484E-05    1.83     924.5  T
     SCC iter.                  ...        0 min,  0.001 sec
     gradient                   ...        0 min,  0.001 sec
 * total energy  :   -10.9806961 Eh     change       -0.2929516E-02 Eh
   gradient norm :     0.0653616 Eh/α   predicted    -0.2110591E-02 ( -27.95%)
   displ. norm   :     0.3101321 α      lambda       -0.8220138E-02
   maximum displ.:     0.2139560 α      in ANC's #8, #9, #2, ...

........................................................................
.............................. CYCLE   16 ..............................
........................................................................
   1    -11.1460508 -0.111461E+02  0.181E+00    2.03       0.0  T
   2    -11.1450926  0.958110E-03  0.122E+00    2.02       1.0  T
   3    -11.1307111  0.143816E-01  0.136E+00    2.16       1.0  T
   4    -11.1105241  0.201870E-01  0.178E+00    1.92       1.0  T
   5    -11.1468297 -0.363056E-01  0.218E-01    2.06       1.0  T
   6    -11.1471407 -0.311062E-03  0.147E-01    2.04       1.0  T
   7    -11.1472824 -0.141700E-03  0.646E-02    2.05       1.0  T
   8    -11.1473091 -0.266888E-04  0.200E-02    2.05       2.2  T
   9    -11.1473100 -0.849903E-06  0.657E-03    2.06       6.8  T
  10    -11.1473100 -0.245060E-07  0.633E-04    2.06      70.6  T
  11    -11.1473100  0.504095E-10  0.263E-04    2.06     170.3  T
     SCC iter.                  ...        0 min,  0.001 sec
     gradient                   ...        0 min,  0.001 sec
 * total energy  :   -10.9864291 Eh     change       -0.5732936E-02 Eh
   gradient norm :     0.0817910 Eh/α   predicted    -0.4505386E-02 ( -21.41%)
   displ. norm   :     0.5304864 α      lambda       -0.1220548E-01
   maximum displ.:     0.3188848 α      in ANC's #8, #2, #9, ...

........................................................................
.............................. CYCLE   17 ..............................
........................................................................
   1    -11.1299015 -0.111299E+02  0.222E+00    2.16       0.0  T
   2    -10.9621247  0.167777E+00  0.407E+00    2.15       1.0  T
   3    -11.1252133 -0.163089E+00  0.157E+00    2.07       1.0  T
   4    -11.1386472 -0.134340E-01  0.753E-01    2.21       1.0  T
   5    -11.1421512 -0.350398E-02  0.294E-01    2.16       1.0  T
   6    -11.1428525 -0.701258E-03  0.100E-01    2.15       1.0  T
   7    -11.1428656 -0.130664E-04  0.806E-02    2.16       1.0  T
   8    -11.1428848 -0.192616E-04  0.182E-02    2.16       2.5  T
   9    -11.1428879 -0.308682E-05  0.519E-03    2.16       8.6  T
  10    -11.1428880 -0.602593E-07  0.969E-04    2.16      46.2  T
  11    -11.1428880 -0.835636E-09  0.432E-04    2.16     103.5  T
     SCC iter.                  ...        0 min,  0.001 sec
     gradient                   ...        0 min,  0.001 sec
 * total energy  :   -10.9915980 Eh     change       -0.5168936E-02 Eh
   gradient norm :     0.0673669 Eh/α   predicted    -0.7820143E-02 (  51.29%)
   displ. norm   :     0.3435448 α      lambda       -0.2006089E-01
   maximum displ.:     0.2733636 α      in ANC's #2, #6, #4, ...

........................................................................
.............................. CYCLE   18 ..............................
........................................................................
   1    -11.2231933 -0.112232E+02  0.175E+00    2.83       0.0  T
   2    -11.1980823  0.251110E-01  0.179E+00    2.83       1.0  T
   3    -11.1816623  0.164201E-01  0.213E+00    2.79       1.0  T
   4    -11.2212417 -0.395795E-01  0.804E-01    2.82       1.0  T
   5    -11.2255435 -0.430179E-02  0.199E-01    2.83       1.0  T
   6    -11.2257679 -0.224342E-03  0.991E-02    2.83       1.0  T
   7    -11.2258209 -0.530137E-04  0.350E-02    2.83       1.3  T
   8    -11.2258227 -0.188135E-05  0.754E-03    2.83       5.9  T
   9    -11.2258230 -0.301763E-06  0.406E-03    2.83      11.0  T
  10    -11.2258231 -0.238064E-07  0.366E-04    2.83     122.1  T
  11    -11.2258231 -0.342931E-09  0.873E-05    2.83     512.5  T
     SCC iter.                  ...        0 min,  0.001 sec
     gradient                   ...        0 min,  0.001 sec
 * total energy  :   -10.9853970 Eh     change        0.6201010E-02 Eh
   gradient norm :     0.2319721 Eh/α   predicted    -0.1121427E-01 (-280.85%)
   displ. norm   :     0.1878926 α      lambda       -0.3045747E-01
   maximum displ.:     0.1147849 α      in ANC's #2, #3, #8, ...

........................................................................
.............................. CYCLE   19 ..............................
........................................................................
   1    -11.1738578 -0.111739E+02  0.942E-01    2.42       0.0  T
   2    -11.1716896  0.216814E-02  0.845E-01    2.40       1.0  T
   3    -11.1670745  0.461516E-02  0.853E-01    2.45       1.0  T
   4    -11.1616005  0.547395E-02  0.114E+00    2.37       1.0  T
   5    -11.1747378 -0.131373E-01  0.201E-01    2.41       1.0  T
   6    -11.1749659 -0.228127E-03  0.731E-02    2.42       1.0  T
   7    -11.1749787 -0.127695E-04  0.428E-02    2.41       1.0  T
   8    -11.1749850 -0.631967E-05  0.885E-03    2.41       5.1  T
   9    -11.1749851 -0.128423E-06  0.504E-03    2.41       8.9  T
  10    -11.1749853 -0.157567E-06  0.413E-04    2.41     108.3  T
  11    -11.1749853 -0.969008E-09  0.137E-04    2.41     326.6  T
     SCC iter.                  ...        0 min,  0.001 sec
     gradient                   ...        0 min,  0.001 sec
 * total energy  :   -10.9970768 Eh     change       -0.1167976E-01 Eh
   gradient norm :     0.0523579 Eh/α   predicted    -0.1576636E-01 (  34.99%)
   displ. norm   :     0.2776839 α      lambda       -0.9722244E-02
   maximum displ.:     0.2119850 α      in ANC's #1, #8, #3, ...

........................................................................
.............................. CYCLE   20 ..............................
........................................................................
   1    -11.1492703 -0.111493E+02  0.159E+00    2.45       0.0  T
   2    -11.1117024  0.375680E-01  0.227E+00    2.12       1.0  T
   3    -11.1284276 -0.167253E-01  0.161E+00    2.31       1.0  T
   4    -11.1382215 -0.979383E-02  0.137E+00    2.41       1.0  T
   5    -11.1561197 -0.178982E-01  0.118E-01    2.34       1.0  T
   6    -11.1561631 -0.434578E-04  0.646E-02    2.34       1.0  T
   7    -11.1561641 -0.103588E-05  0.384E-02    2.34       1.2  T
   8    -11.1561685 -0.431636E-05  0.144E-02    2.35       3.1  T
   9    -11.1561701 -0.162304E-05  0.389E-03    2.34      11.5  T
  10    -11.1561701 -0.540010E-07  0.426E-04    2.34     104.9  T
  11    -11.1561701  0.176007E-09  0.252E-04    2.34     177.8  T
     SCC iter.                  ...        0 min,  0.001 sec
     gradient                   ...        0 min,  0.001 sec
 * total energy  :   -10.9971255 Eh     change       -0.4873428E-04 Eh
   gradient norm :     0.0487748 Eh/α   predicted    -0.5235952E-02 (*******%)
   displ. norm   :     0.1446405 α      lambda       -0.5781193E-02
   maximum displ.:     0.0832200 α      in ANC's #2, #1, #8, ...
 * RMSD in coord.:     1.4156098 α      energy gain  -0.1127887E+00 Eh

generating ANC from model Hessian ...
Using Lindh-Hessian (1995)
 Shifting diagonal of input Hessian by    0.0000000000000000     
 Lowest  eigenvalues of input Hessian
   -0.000000   -0.000000   -0.000000   -0.000000    0.000000    0.000000
    0.051478    0.092624    0.240086    0.374962    0.880635    1.081121
    1.311807    1.665620    2.194483
 Highest eigenvalues
    0.374962    0.880635    1.081121    1.311807    1.665620    2.194483


........................................................................
.............................. CYCLE   21 ..............................
........................................................................
   1    -11.1712867 -0.111713E+02  0.733E-01    2.30       0.0  T
   2    -11.1566355  0.146511E-01  0.128E+00    2.30       1.0  T
   3    -11.1682816 -0.116461E-01  0.721E-01    2.31       1.0  T
   4    -11.1714382 -0.315654E-02  0.448E-01    2.31       1.0  T
   5    -11.1730082 -0.157000E-02  0.698E-02    2.31       1.0  T
   6    -11.1730368 -0.286268E-04  0.323E-02    2.31       1.4  T
   7    -11.1730387 -0.186680E-05  0.178E-02    2.31       2.5  T
   8    -11.1730398 -0.115337E-05  0.457E-03    2.31       9.8  T
   9    -11.1730399 -0.137626E-06  0.155E-03    2.31      28.8  T
  10    -11.1730400 -0.705765E-08  0.223E-04    2.31     200.1  T
  11    -11.1730400 -0.113561E-09  0.383E-05    2.31    1167.0  T
     SCC iter.                  ...        0 min,  0.001 sec
     gradient                   ...        0 min,  0.001 sec
 * total energy  :   -11.0007874 Eh     change       -0.3661861E-02 Eh
   gradient norm :     0.0216180 Eh/α   predicted     0.0000000E+00 (-100.00%)
   displ. norm   :     0.1054103 α      lambda       -0.1280198E-02
   maximum displ.:     0.0788112 α      in ANC's #2, #1, #4, ...

........................................................................
.............................. CYCLE   22 ..............................
........................................................................
   1    -11.1737022 -0.111737E+02  0.455E-01    2.31       0.0  T
   2    -11.1736905  0.116897E-04  0.279E-01    2.31       1.0  T
   3    -11.1731761  0.514408E-03  0.282E-01    2.30       1.0  T
   4    -11.1736150 -0.438922E-03  0.103E-01    2.30       1.0  T
   5    -11.1737018 -0.867750E-04  0.564E-02    2.31       1.0  T
   6    -11.1737317 -0.298643E-04  0.183E-02    2.31       2.4  T
   7    -11.1737329 -0.122480E-05  0.451E-03    2.31       9.9  T
   8    -11.1737330 -0.111596E-06  0.179E-03    2.31      25.0  T
   9    -11.1737330 -0.113734E-07  0.454E-04    2.31      98.6  T
  10    -11.1737330 -0.270838E-09  0.148E-04    2.31     302.9  T
     SCC iter.                  ...        0 min,  0.001 sec
     gradient                   ...        0 min,  0.001 sec
 * total energy  :   -11.0016715 Eh     change       -0.8841720E-03 Eh
   gradient norm :     0.0135590 Eh/α   predicted    -0.6472119E-03 ( -26.80%)
   displ. norm   :     0.0660772 α      lambda       -0.6035018E-03
   maximum displ.:     0.0436055 α      in ANC's #2, #4, #1, ...

........................................................................
.............................. CYCLE   23 ..............................
........................................................................
   1    -11.1744867 -0.111745E+02  0.319E-01    2.16       0.0  T
   2    -11.1743589  0.127816E-03  0.223E-01    2.15       1.0  T
   3    -11.1715614  0.279743E-02  0.505E-01    2.16       1.0  T
   4    -11.1740418 -0.248036E-02  0.221E-01    2.15       1.0  T
   5    -11.1745100 -0.468185E-03  0.318E-02    2.16       1.4  T
   6    -11.1745162 -0.625675E-05  0.131E-02    2.15       3.4  T
   7    -11.1745161  0.104937E-06  0.867E-03    2.15       5.2  T
   8    -11.1745165 -0.339465E-06  0.156E-03    2.15      28.8  T
   9    -11.1745165 -0.114185E-08  0.729E-04    2.15      61.3  T
  10    -11.1745165 -0.167603E-08  0.982E-05    2.15     455.3  T
     SCC iter.                  ...        0 min,  0.001 sec
     gradient                   ...        0 min,  0.001 sec
 * total energy  :   -11.0020616 Eh     change       -0.3900517E-03 Eh
   gradient norm :     0.0085961 Eh/α   predicted    -0.3030696E-03 ( -22.30%)
   displ. norm   :     0.0348993 α      lambda       -0.2377484E-03
   maximum displ.:     0.0292079 α      in ANC's #4, #5, #6, ...

........................................................................
.............................. CYCLE   24 ..............................
........................................................................
   1    -11.1745649 -0.111746E+02  0.207E-01    2.05       0.0  T
   2    -11.1745645  0.429408E-06  0.121E-01    2.05       1.0  T
   3    -11.1744232  0.141264E-03  0.128E-01    2.04       1.0  T
   4    -11.1744516 -0.283709E-04  0.997E-02    2.05       1.0  T
   5    -11.1745697 -0.118090E-03  0.158E-02    2.05       2.8  T
   6    -11.1745695  0.137011E-06  0.115E-02    2.05       3.9  T
   7    -11.1745701 -0.507307E-06  0.361E-03    2.05      12.4  T
   8    -11.1745701 -0.917865E-07  0.106E-03    2.05      42.3  T
   9    -11.1745701 -0.133377E-08  0.233E-04    2.05     191.6  T
  10    -11.1745701 -0.619416E-10  0.442E-05    2.05    1012.2  T
     SCC iter.                  ...        0 min,  0.001 sec
     gradient                   ...        0 min,  0.001 sec
 * total energy  :   -11.0022374 Eh     change       -0.1758095E-03 Eh
   gradient norm :     0.0074077 Eh/α   predicted    -0.1190204E-03 ( -32.30%)
   displ. norm   :     0.0424051 α      lambda       -0.2061812E-03
   maximum displ.:     0.0283170 α      in ANC's #4, #5, #2, ...

........................................................................
.............................. CYCLE   25 ..............................
........................................................................
   1    -11.1733767 -0.111734E+02  0.258E-01    1.94       0.0  T
   2    -11.1730994  0.277234E-03  0.214E-01    1.94       1.0  T
   3    -11.1710395  0.205996E-02  0.444E-01    1.93       1.0  T
   4    -11.1733110 -0.227159E-02  0.110E-01    1.94       1.0  T
   5    -11.1734020 -0.909112E-04  0.223E-02    1.94       2.0  T
   6    -11.1734031 -0.111168E-05  0.147E-02    1.94       3.0  T
   7    -11.1734037 -0.608779E-06  0.364E-03    1.94      12.3  T
   8    -11.1734037 -0.211207E-07  0.162E-03    1.94      27.6  T
   9    -11.1734037 -0.148161E-07  0.610E-04    1.94      73.3  T
  10    -11.1734037 -0.161080E-08  0.654E-05    1.94     683.8  T
     SCC iter.                  ...        0 min,  0.001 sec
     gradient                   ...        0 min,  0.001 sec
 * total energy  :   -11.0023654 Eh     change       -0.1279669E-03 Eh
   gradient norm :     0.0048685 Eh/α   predicted    -0.1032760E-03 ( -19.29%)
   displ. norm   :     0.0139358 α      lambda       -0.3588304E-04
   maximum displ.:     0.0088398 α      in ANC's #2, #5, #4, ...

........................................................................
.............................. CYCLE   26 ..............................
........................................................................
   1    -11.1723800 -0.111724E+02  0.877E-02    1.91       0.0  T
   2    -11.1722662  0.113758E-03  0.113E-01    1.92       1.0  T
   3    -11.1722826 -0.163903E-04  0.984E-02    1.91       1.0  T
   4    -11.1723620 -0.793242E-04  0.589E-02    1.91       1.0  T
   5    -11.1723896 -0.275882E-04  0.114E-02    1.91       3.9  T
   6    -11.1723901 -0.559896E-06  0.366E-03    1.91      12.2  T
   7    -11.1723901  0.135958E-07  0.208E-03    1.91      21.5  T
   8    -11.1723901 -0.248153E-07  0.491E-04    1.91      91.1  T
   9    -11.1723901 -0.866985E-09  0.155E-04    1.91     289.1  T
     SCC iter.                  ...        0 min,  0.001 sec
     gradient                   ...        0 min,  0.001 sec
 * total energy  :   -11.0023873 Eh     change       -0.2192661E-04 Eh
   gradient norm :     0.0021852 Eh/α   predicted    -0.1794536E-04 ( -18.16%)
   displ. norm   :     0.0039589 α      lambda       -0.6015196E-05
   maximum displ.:     0.0020675 α      in ANC's #7, #1, #2, ...

........................................................................
.............................. CYCLE   27 ..............................
........................................................................
   1    -11.1721279 -0.111721E+02  0.241E-02    1.92       0.0  T
   2    -11.1721218  0.606911E-05  0.306E-02    1.92       1.5  T
   3    -11.1721236 -0.175079E-05  0.227E-02    1.92       2.0  T
   4    -11.1721228  0.790692E-06  0.243E-02    1.92       1.8  T
   5    -11.1721290 -0.622743E-05  0.282E-03    1.92      15.9  T
   6    -11.1721291 -0.322818E-07  0.114E-03    1.92      39.2  T
   7    -11.1721291 -0.102268E-08  0.402E-04    1.92     111.2  T
   8    -11.1721291 -0.133289E-08  0.113E-04    1.92     394.8  T
     SCC iter.                  ...        0 min,  0.001 sec
     gradient                   ...        0 min,  0.001 sec
 * total energy  :   -11.0023910 Eh     change       -0.3760723E-05 Eh
   gradient norm :     0.0009449 Eh/α   predicted    -0.3007022E-05 ( -20.04%)
   displ. norm   :     0.0028225 α      lambda       -0.1136850E-05
   maximum displ.:     0.0017888 α      in ANC's #4, #1, #7, ...

   *** GEOMETRY OPTIMIZATION CONVERGED AFTER 27 ITERATIONS ***

------------------------------------------------------------------------
 total energy gain   :        -0.1180543 Eh      -74.0802 kcal/mol
 total RMSD          :         1.4141741 a0        0.7483 Å
 total power (kW/mol):       -11.4796846 (step)-3044.4758 (real)
------------------------------------------------------------------------

 ANCopt (total)                0 d,  0 h,  0 min,  0.102 sec
 optimizer setup                ...        0 min,  0.000 sec (  0.064%)
 model hessian                  ...        0 min,  0.000 sec (  0.122%)
 ANC generation                 ...        0 min,  0.000 sec (  0.085%)
 coordinate transformation      ...        0 min,  0.000 sec (  0.049%)
 single point calculation       ...        0 min,  0.100 sec ( 97.876%)
 optimization log               ...        0 min,  0.001 sec (  0.576%)
 hessian update                 ...        0 min,  0.000 sec (  0.050%)
 rational function              ...        0 min,  0.001 sec (  0.507%)

================
 final structure:
================
5
 xtb: 6.2.2 (9d81278992624c895f80dd42a50cac0aa55982e2)
C         1.85669852620756   -0.00992925822672   -0.41437504103279
C         0.60976065753702    0.01396040097445   -0.17785264478904
C        -1.44867358411352   -0.02305600234941    0.39593191146863
N        -0.30222800797649   -0.35144079283930    0.91465122401298
C        -0.71555859165457    0.37046665244098   -0.71835544965979

 Bond Distances (Angstroems)
 ---------------------------
C1-C2=1.2694         C2-C1=1.2694         C2-N4=1.4693         C2-C5=1.4750         C3-N4=1.3005         C3-C5=1.3907         
N4-C2=1.4693         N4-C3=1.3005         N4-C5=1.8327         C5-C2=1.4750         C5-C3=1.3907         C5-N4=1.8327         
 C  C  Rav=1.3784 sigma=0.0844  Rmin=1.2694  Rmax=1.4750     3
 N  C  Rav=1.5341 sigma=0.2221  Rmin=1.3005  Rmax=1.8327     3

 selected bond angles (degree)
 --------------------
N4-C2-C1=138.04                C5-C2-C1=144.97                C5-C2-N4= 76.99                C5-C3-N4= 85.77                
C3-N4-C2=100.82                C5-N4-C2= 51.65                C5-N4-C3= 49.18                C3-C5-C2= 96.41                
N4-C5-C2= 51.36                N4-C5-C3= 45.05                

 selected dihedral angles (degree)
 ---------------------------------
C3-N4-C2-C1=180.00            C3-N4-C2-C5=  0.06            C5-N4-C2-C1=179.95            C2-N4-C3-C5=359.94            
C3-C5-C2-C1=180.01            C3-C5-C2-N4=359.95            N4-C5-C2-C1=180.06            C2-C5-C3-N4=  0.06            
           -------------------------------------------------
          |                Final Singlepoint                |
           -------------------------------------------------

          ...................................................
          :                      SETUP                      :
          :.................................................:
          :  # basis functions                  20          :
          :  # atomic orbitals                  20          :
          :  # shells                           10          :
          :  # electrons                        21          :
          :  max. iterations                   250          :
          :  Hamiltonian                  GFN2-xTB          :
          :  restarted?                      false          :
          :  GBSA solvation                  false          :
          :  PC potential                    false          :
          :  electronic temp.          300.0000000     K    :
          :  accuracy                    1.0000000          :
          :  -> integral cutoff          0.2500000E+02      :
          :  -> integral neglect         0.1000000E-07      :
          :  -> SCF convergence          0.1000000E-05 Eh   :
          :  -> wf. convergence          0.1000000E-03 e    :
          :  Broyden damping             0.4000000          :
          ...................................................

 iter      E             dE          RMSdq      gap      omega  full diag
   1    -11.1721291 -0.111721E+02  0.338E-05    1.92       0.0  T
   2    -11.1721291  0.760636E-11  0.398E-05    1.92    1124.2  T
   3    -11.1721291 -0.418510E-11  0.194E-05    1.92    2309.6  T

   *** convergence criteria satisfied after 3 iterations ***

         #    Occupation            Energy/Eh            Energy/eV
      -------------------------------------------------------------
         1        2.0000           -0.7523423             -20.4723
       ...           ...                  ...                  ...
         6        2.0000           -0.5712867             -15.5455
         7        2.0000           -0.5099940             -13.8776
         8        2.0000           -0.4703420             -12.7987
         9        2.0000           -0.4661244             -12.6839
        10        1.0000           -0.4237938             -11.5320
        11        1.0000           -0.4126963             -11.2300
        12        1.0000           -0.4097680             -11.1504 (HOMO)
        13                         -0.3393219              -9.2334 (LUMO)
        14                         -0.3038872              -8.2692
        15                         -0.1801351              -4.9017
        16                         -0.0086469              -0.2353
        17                          0.1076950               2.9305
       ...                                ...                  ...
        20                          0.8321442              22.6438
      -------------------------------------------------------------
                  HL-Gap            0.0704462 Eh            1.9169 eV
             Fermi-level           -0.4097492 Eh          -11.1498 eV

 SCC (total)                   0 d,  0 h,  0 min,  0.003 sec
 SCC setup                      ...        0 min,  0.000 sec (  1.694%)
 Dispersion                     ...        0 min,  0.000 sec (  0.298%)
 integral evaluation            ...        0 min,  0.001 sec ( 41.382%)
 zeroth order Hamiltonian       ...        0 min,  0.000 sec (  0.476%)
 iterations                     ...        0 min,  0.000 sec ( 10.654%)
 molecular gradient             ...        0 min,  0.001 sec ( 43.173%)
 printout                       ...        0 min,  0.000 sec (  2.137%)

         :::::::::::::::::::::::::::::::::::::::::::::::::::::
         ::                     SUMMARY                     ::
         :::::::::::::::::::::::::::::::::::::::::::::::::::::
         :: total energy             -11.002391046256 Eh    ::
         :: gradient norm              0.000945523386 Eh/a0 ::
         :: HOMO-LUMO gap              1.916938210023 eV    ::
         ::.................................................::
         :: SCC energy               -11.172129067506 Eh    ::
         :: -> isotropic ES           -0.006998867441 Eh    ::
         :: -> anisotropic ES          0.001898369431 Eh    ::
         :: -> anisotropic XC          0.008031017110 Eh    ::
         :: -> dispersion             -0.002903358280 Eh    ::
         :: repulsion energy           0.169738009392 Eh    ::
         :: add. restraining           0.000000000000 Eh    ::
         :::::::::::::::::::::::::::::::::::::::::::::::::::::

           ------------------------------------------------- 
          |                Numerical Hessian                |
           ------------------------------------------------- 
step length          :   0.00500
SCC accuracy         :   0.30000
Hessian scale factor :   1.00000
frozen atoms in %    :   0.00000    0
RMS gradient         :   0.00095
estimated CPU  time      0.00 min
estimated wall time      0.00 min

writing file <hessian>.

 projected vibrational frequencies (cm-1)
eigval :       -0.00    -0.00    -0.00    -0.00    -0.00     0.00
eigval :      261.01   347.42   428.37   433.36   514.69   905.14
eigval :     1077.23  1479.32  1764.31
           -------------------------------------------------
          |                Property Printout                |
           -------------------------------------------------

    * Orbital Energies and Occupations

         #    Occupation            Energy/Eh            Energy/eV
      -------------------------------------------------------------
         1        2.0000           -0.7523422             -20.4723
         2        2.0000           -0.6853060             -18.6481
         3        2.0000           -0.6414662             -17.4552
         4        2.0000           -0.6270372             -17.0626
         5        2.0000           -0.5784557             -15.7406
         6        2.0000           -0.5712867             -15.5455
         7        2.0000           -0.5099939             -13.8776
         8        2.0000           -0.4703421             -12.7987
         9        2.0000           -0.4661245             -12.6839
        10        1.0000           -0.4237937             -11.5320
        11        1.0000           -0.4126962             -11.2300
        12        1.0000           -0.4097682             -11.1504 (HOMO)
        13                         -0.3393219              -9.2334 (LUMO)
        14                         -0.3038871              -8.2692
        15                         -0.1801351              -4.9017
        16                         -0.0086469              -0.2353
        17                          0.1076950               2.9305
        18                          0.1902809               5.1778
        19                          0.4215730              11.4716
        20                          0.8321441              22.6438
      -------------------------------------------------------------
                  HL-Gap            0.0704462 Eh            1.9169 eV
             Fermi-level           -0.4097493 Eh          -11.1498 eV

     #   Z        covCN         q      C6AA      α(0)
     1   6 C      0.982    -0.101    39.146    10.509
     2   6 C      3.094     0.132    25.010     8.196
     3   6 C      2.119     0.042    29.767     8.817
     4   7 N      2.484    -0.068    22.612     7.062
     5   6 C      2.626    -0.005    28.127     8.675

 Mol. C6AA /au·bohr⁶  :        715.464512
 Mol. C8AA /au·bohr⁸  :      19774.767670
 Mol. α(0) /au        :         43.259109


Wiberg/Mayer (AO) data.
largest (>0.10) Wiberg bond orders for each atom
          total WBO             WBO to atom ...
     1  C   2.448        C    2 2.032    C    3 0.264
     2  C   3.770        C    1 2.032    C    5 0.888    N    4 0.812
     3  C   2.954        N    4 1.455    C    5 1.197    C    1 0.264
     4  N   2.742        C    3 1.455    C    2 0.812    C    5 0.399
     5  C   2.561        C    3 1.197    C    2 0.888    N    4 0.399

MOs/occ written to file <molden.input>


molecular dipole:
                 x           y           z       tot (Debye)
 q only:       -0.273       0.045      -0.045
   full:       -0.428       0.029       0.031       1.094
molecular quadrupole (traceless):
                xx          xy          yy          xz          yz          zz
 q only:       -0.657      -0.009       0.481       0.301       0.117       0.177
  q+dip:       -1.519       0.125       1.360       0.436       0.560       0.159
   full:       -3.577       0.267       2.693       0.921       0.817       0.885

           -------------------------------------------------
          |                Geometry Summary                 |
           -------------------------------------------------

      molecular mass/u    :       62.0496468
   center of mass at/Å    :       -0.0097220      -0.0113046       0.0294219
  moments of inertia/u·Å² :        0.2176470E+02   0.8230318E+02   0.1040679E+03
rotational constants/cm⁻¹ :        0.7745402E+00   0.2048236E+00   0.1619869E+00

 * 2 selected distances

     #   Z        #   Z                                     value/Å
     1   6 C      2   6 C                                 1.2693966 (min)
     3   6 C      4   7 N                                 1.3004783 (max)

 * 2 distinct bonds (by element types)

   Z      Z             #   av. dist./Å        max./Å        min./Å
   6 C    6 C           1     1.2693966     1.2693966     1.2693966
   6 C    7 N           1     1.3004783     1.3004783     1.3004783

           -------------------------------------------------
          |               Frequency Printout                |
           -------------------------------------------------
 projected vibrational frequencies (cm-1)
eigval :       -0.00    -0.00    -0.00    -0.00    -0.00     0.00
eigval :      261.01   347.42   428.37   433.36   514.69   905.14
eigval :     1077.23  1479.32  1764.31
 reduced masses (amu)
   1: 12.31   2: 12.30   3: 12.43   4: 12.39   5: 12.10   6: 13.17   7: 12.21   8: 12.26
   9: 12.37  10: 12.33  11: 12.86  12: 12.38  13: 12.45  14: 12.53  15: 12.04
 IR intensities (amu)
Molecule has the following symmetry elements: (sigma) 
It seems to be the Cs point group
   1:  0.08   2:  0.06   3:  0.07   4:  0.06   5:  0.08   6:  0.04   7:  0.16   8:  0.21
   9:  0.50  10:  0.13  11:  0.54  12:  0.64  13:  1.13  14:  0.77  15:  1.18
 Raman intensities (amu)
   1:  0.00   2:  0.00   3:  0.00   4:  0.00   5:  0.00   6:  0.00   7:  0.00   8:  0.00
   9:  0.00  10:  0.00  11:  0.00  12:  0.00  13:  0.00  14:  0.00  15:  0.00
 output can be read by thermo (or use thermo option).
 writing <g98.out> molden fake output.
 recommended (thermochemical) frequency scaling factor: 1.0
           -------------------------------------------------
          |             Thermodynamic Functions             |
           -------------------------------------------------

cs  symmetry found (for desy threshold:  0.10E+00) used in thermo

          ...................................................
          :                      SETUP                      :
          :.................................................:
          :  # frequencies                           9      :
          :  # imaginary freq.                       0      :
          :  linear?                             false      :
          :  only rotor calc.                    false      :
          :  symmetry                               cs      :
          :  rotational number                       1      :
          :  scaling factor                  1.0000000      :
          :  rotor cutoff                   50.0000000 cm⁻¹ :
          :  imag. cutoff                  -20.0000000 cm⁻¹ :
          :.................................................:

    mode    ω/cm⁻¹     T·S(HO)/kcal·mol⁻¹    T·S(FR)/kcal·mol⁻¹   T·S(vib)
   ------------------------------------------------------------------------
       1    261.01    -0.00000 ( 99.87%)     0.01473 (  0.13%)     0.00002
   ------------------------------------------------------------------------

   temp. (K)  partition function   enthalpy   heat capacity  entropy
                                   cal/mol     cal/K/mol   cal/K/mol   J/K/mol
 298.15  VIB   2.50                 1064.958      8.251      5.390
         ROT  0.330E+05              888.752      2.981     23.656
         INT  0.823E+05             1953.711     11.232     29.046
         TR   0.473E+27             1481.254      4.968     38.278
         TOT                        3434.9645    16.1999    67.3237   281.6822

   temp. (K)  partition function   enthalpy   heat capacity  entropy
                                   cal/mol     cal/K/mol   cal/K/mol   J/K/mol
 120.00  VIB   1.08                   67.083      2.260      0.707
         ROT  0.842E+04              357.707      2.981     20.943
         INT  0.907E+04              424.789      5.241     21.650
         TR   0.121E+27              596.178      4.968     33.759
         TOT                        1020.9673    10.2088    55.4089   231.8306

   temp. (K)  partition function   enthalpy   heat capacity  entropy
                                   cal/mol     cal/K/mol   cal/K/mol   J/K/mol
 100.00  VIB   1.04                   30.541      1.406      0.376
         ROT  0.641E+04              298.089      2.981     20.399
         INT  0.664E+04              328.630      4.387     20.776
         TR   0.919E+26              496.815      4.968     32.853
         TOT                         825.4448     9.3547    53.6291   224.3842

   temp. (K)  partition function   enthalpy   heat capacity  entropy
                                   cal/mol     cal/K/mol   cal/K/mol   J/K/mol
  80.00  VIB   1.01                   10.019      0.678      0.150
         ROT  0.458E+04              238.471      2.981     19.734
         INT  0.464E+04              248.490      3.659     19.884
         TR   0.657E+26              397.452      4.968     31.745
         TOT                         645.9420     8.6270    51.6296   216.0183

   temp. (K)  partition function   enthalpy   heat capacity  entropy
                                   cal/mol     cal/K/mol   cal/K/mol   J/K/mol
  60.00  VIB   1.00                    1.757      0.198      0.034
         ROT  0.298E+04              178.853      2.981     18.877
         INT  0.298E+04              180.610      3.179     18.911
         TR   0.427E+26              298.089      4.968     30.317
         TOT                         478.6990     8.1470    49.2275   205.9677

   temp. (K)  partition function   enthalpy   heat capacity  entropy
                                   cal/mol     cal/K/mol   cal/K/mol   J/K/mol
  40.00  VIB   1.00                    0.067      0.016      0.001
         ROT  0.162E+04              119.236      2.981     17.668
         INT  0.162E+04              119.302      2.997     17.669
         TR   0.232E+26              198.726      4.968     28.303
         TOT                         318.0282     7.9650    45.9727   192.3496

   temp. (K)  partition function   enthalpy   heat capacity  entropy
                                   cal/mol     cal/K/mol   cal/K/mol   J/K/mol
  20.00  VIB   1.00                    0.000      0.000     -0.002
         ROT   573.                   59.618      2.981     15.602
         INT   573.                   59.618      2.981     15.600
         TR   0.822E+25               99.363      4.968     24.861
         TOT                         158.9808     7.9490    40.4611   169.2892

   temp. (K)  partition function   enthalpy   heat capacity  entropy
                                   cal/mol     cal/K/mol   cal/K/mol   J/K/mol
  10.00  VIB   1.00                    0.000      0.000     -0.004
         ROT   203.                   29.809      2.981     13.536
         INT   203.                   29.809      2.981     13.532
         TR   0.290E+25               49.681      4.968     21.419
         TOT                          79.4904     7.9490    34.9514   146.2366

       T/K    H(0)-H(T)+PV         H(T)/Eh          T*S/Eh         G(T)/Eh
   ------------------------------------------------------------------------
    298.15    0.547396E-02    0.219015E-01    0.319876E-01   -0.100862E-01
    120.00    0.162701E-02    0.180545E-01    0.105960E-01    0.745858E-02
    100.00    0.131543E-02    0.177430E-01    0.854634E-02    0.919661E-02
     80.00    0.102937E-02    0.174569E-01    0.658216E-02    0.108747E-01
     60.00    0.762855E-03    0.171904E-01    0.470694E-02    0.124834E-01
     40.00    0.506810E-03    0.169343E-01    0.293048E-02    0.140039E-01
     20.00    0.253352E-03    0.166809E-01    0.128958E-02    0.153913E-01
     10.00    0.126676E-03    0.165542E-01    0.556986E-03    0.159972E-01 (used)
   ------------------------------------------------------------------------

         :::::::::::::::::::::::::::::::::::::::::::::::::::::
         ::                  THERMODYNAMIC                  ::
         :::::::::::::::::::::::::::::::::::::::::::::::::::::
         :: total free energy         -10.986393830429 Eh   ::
         ::.................................................::
         :: total energy              -11.002391045649 Eh   ::
         :: zero point energy           0.016427524902 Eh   ::
         :: G(RRHO) w/o ZPVE           -0.000430309682 Eh   ::
         :: G(RRHO) contrib.            0.015997215220 Eh   ::
         :::::::::::::::::::::::::::::::::::::::::::::::::::::

optimized geometry written to: xtbopt.xyz


           -------------------------------------------------
          | TOTAL ENERGY              -11.002391045649 Eh   |
          | TOTAL ENTHALPY            -10.985836844732 Eh   |
          | TOTAL FREE ENERGY         -10.986393830429 Eh   |
          | GRADIENT NORM               0.000945825359 Eh/α |
          | HOMO-LUMO GAP               1.916939453485 eV   |
           -------------------------------------------------

------------------------------------------------------------------------
 * finished run on 2020/05/12 at 11:44:18.531     
------------------------------------------------------------------------
 total:
 * wall-time:     0 d,  0 h,  0 min,  0.231 sec
 *  cpu-time:     0 d,  0 h,  0 min,  0.231 sec
 * ratio c/w:     0.999 speedup
 SCF:
 * wall-time:     0 d,  0 h,  0 min,  0.005 sec
 *  cpu-time:     0 d,  0 h,  0 min,  0.005 sec
 * ratio c/w:     0.997 speedup
 ANC optimizer:
 * wall-time:     0 d,  0 h,  0 min,  0.105 sec
 *  cpu-time:     0 d,  0 h,  0 min,  0.105 sec
 * ratio c/w:     0.999 speedup
 numerical hessian:
 * wall-time:     0 d,  0 h,  0 min,  0.106 sec
 *  cpu-time:     0 d,  0 h,  0 min,  0.106 sec
 * ratio c/w:     0.999 speedup

