[Molden Format]
[Title]
[Atoms] AU
C      1     6 -0.47359780406964E+00  0.13282830196366E+01 -0.28230439030285E-01
O      2     8 -0.10649593277018E+01 -0.11298369818136E+01 -0.59050637694737E-01
O      3     8  0.15385571317714E+01 -0.19844603782305E+00  0.87281076725021E-01
[GTO]
           1 0
 s           4   1.0000000000000000     
   51.049363095579913      -0.16312063210127389     
   8.7911227406887544      -0.19911024581000730     
  0.70640422258929825       0.31882047753655751     
  0.26922813413411617       0.12706504184240380     
 p           4   1.0000000000000000     
   5.8263656140800002       0.73716451545209605     
   1.5106896018720002       0.68216371614850257     
  0.53256483288000001       0.35783053929253711     
  0.21202323690600003        5.3983030275847881E-002

           2 0
 s           4   1.0000000000000000     
   69.137961906196551      -0.20478756370077797     
   11.906129132707308      -0.24997023136827334     
  0.95670827744340703       0.40025880240639616     
  0.36462520496073686       0.15952206667693555     
 p           4   1.0000000000000000     
   8.2124193257781641        1.1321556799186829     
   2.1293576997098116        1.0476840782254817     
  0.75066448202360914       0.54956508217158984     
  0.29885246543283073        8.2908486592766617E-002

           3 0
 s           4   1.0000000000000000     
   69.137961906196551      -0.20478756370077797     
   11.906129132707308      -0.24997023136827334     
  0.95670827744340703       0.40025880240639616     
  0.36462520496073686       0.15952206667693555     
 p           4   1.0000000000000000     
   8.2124193257781641        1.1321556799186829     
   2.1293576997098116        1.0476840782254817     
  0.75066448202360914       0.54956508217158984     
  0.29885246543283073        8.2908486592766617E-002

[MO]
Sym=     1a
Ene=  -0.82338922819186566     
Spin= Alpha
Occup=     2.00000000
           1 -0.26479216708453407     
           2  -6.6477102232748317E-002
           3  0.18644593469844012     
           4  -3.9625983144150334E-003
           5 -0.42074187329775309     
           6 -0.14771001816545698     
           7 -0.16826944824751924     
           8  -8.1778857624956944E-003
           9 -0.42074189864001793     
          10  0.22070953357319037     
          11  -3.6469827810656795E-002
          12   1.2529274400685391E-002
Sym=     2a
Ene=  -0.75567402758949631     
Spin= Alpha
Occup=     2.00000000
           1  -2.5925410907668668E-008
           2 -0.22289701291268219     
           3  -7.9739951137485207E-002
           4  -1.2528025975770629E-002
           5  0.62859085199992870     
           6 -0.16773519733570580     
           7   1.0773185429858568E-002
           8  -9.5038088323719603E-003
           9 -0.62859081653103099     
          10 -0.12297233889006451     
          11 -0.11477205389868339     
          12  -6.8355636164389886E-003
Sym=     3a
Ene=  -0.69135849686698569     
Spin= Alpha
Occup=     2.00000000
           1 -0.39258142333793938     
           2   4.6293981606579507E-004
           3  -1.2982385030114916E-003
           4   2.7595195773508498E-005
           5  0.37754306936857129     
           6   9.5546592336374719E-002
           7 -0.45775619543479062     
           8   5.8996004893161723E-003
           9  0.37754315148319878     
          10  0.21556914072435440     
          11 -0.41481882838573897     
          12   1.2645531881811844E-002
Sym=     4a
Ene=  -0.65436124632707260     
Spin= Alpha
Occup=     2.00000000
           1   3.6941240627274339E-010
           2  -2.0961035566299628E-002
           3   3.9858049485969038E-004
           4  0.37039905427626463     
           5   1.3980753878321810E-008
           6  -3.2444862519825063E-002
           7   6.1696175441493836E-004
           8  0.57332804377750723     
           9  -1.2644223697267195E-008
          10  -3.2444853305331714E-002
          11   6.1694783424530539E-004
          12  0.57332805869238712     
Sym=     5a
Ene=  -0.64535248754287644     
Spin= Alpha
Occup=     2.00000000
           1 -0.10919437060045506     
           2   2.1914260705367509E-002
           3  -6.1462127553222681E-002
           4   1.3062770307151700E-003
           5 -0.30391277444048298     
           6  0.60456221665453003     
           7   2.3317921031698947E-002
           8   3.4187322785322910E-002
           9 -0.30391258260253495     
          10 -0.48252840012783565     
          11 -0.36558169025390802     
          12  -2.6913069780933104E-002
Sym=     6a
Ene=  -0.60269586782375839     
Spin= Alpha
Occup=     2.00000000
           1   1.5596118825326948E-008
           2  0.42570346488791649     
           3  0.15229263333379989     
           4   2.3926846917449642E-002
           5  0.23581512334021057     
           6   7.6077555314816650E-002
           7 -0.54512607456226869     
           8   4.8918713162366505E-003
           9 -0.23581523470048973     
          10 -0.28588868558755720     
          11  0.47006753081691488     
          12  -1.6684381095202806E-002
Sym=     7a
Ene=  -0.50638671150007475     
Spin= Alpha
Occup=     1.99998075
           1   4.8379044328202629E-009
           2  -3.7183254470076999E-009
           3   6.5771095232742255E-009
           4   2.2687630777627728E-008
           5  -9.6715187478683805E-009
           6   4.1960982961648186E-002
           7  -7.9790817311406123E-004
           8 -0.74148607357607987     
           9  -1.0167994235545407E-008
          10  -4.1960981163896433E-002
          11   7.9790820959046104E-004
          12  0.74148603697722071     
Sym=     8a
Ene=  -0.48575566348319660     
Spin= Alpha
Occup=     1.00001925
           1 -0.69291850501886820     
           2  0.21840817407229951     
           3 -0.61256159075495797     
           4   1.3018976800311180E-002
           5  -4.4709854505019277E-002
           6 -0.13303987821854182     
           7  0.24004025757927797     
           8  -7.7870895122740640E-003
           9  -4.4709886318789298E-002
          10  -4.8868633010855145E-002
          11  0.27015195834864397     
          12  -3.0561986163370010E-003
Sym=     9a
Ene=  -0.35026258303703967     
Spin= Alpha
Occup=     1.00000000
           1  -4.5218291552027390E-010
           2   5.4052210912585580E-002
           3  -1.0278311304326633E-003
           4 -0.95514839328709833     
           5   1.5234104460099090E-009
           6  -2.2003720266694633E-002
           7   4.1841006919563195E-004
           8  0.38882432591283511     
           9  -1.6492713143584073E-009
          10  -2.2003723863381321E-002
          11   4.1841153424434076E-004
          12  0.38882437902877914     
Sym=    10a
Ene=  -0.28044817650051745     
Spin= Alpha
Occup=     0.00000000
           1  -1.9844516540201540E-008
           2 -0.28697039887230796     
           3 -0.10266178354373287     
           4  -1.6129293145704309E-002
           5  0.23107700555291361     
           6  0.80937807863511502     
           7   1.5830437814106171E-002
           8   4.5785980588549317E-002
           9 -0.23107705042572835     
          10  0.63626993269367049     
          11  0.50134070252306873     
          12   3.5467269514027316E-002
Sym=    11a
Ene=   -6.0633695259517638E-002
Spin= Alpha
Occup=     0.00000000
           1   3.5693882438103801E-008
           2 -0.88063362725619798     
           3 -0.31504097636608108     
           4  -4.9496376050501188E-002
           5 -0.41161359012650583     
           6 -0.11810818645155816     
           7 -0.58645969551734511     
           8  -6.0527015527548148E-003
           9  0.41161353555696278     
          10 -0.46228083606835679     
          11  0.37882924853005284     
          12  -2.6568305666159538E-002
Sym=    12a
Ene=   0.28555110828611369     
Spin= Alpha
Occup=     0.00000000
           1 -0.81632613709349688     
           2 -0.33070228224518899     
           3  0.92750873840580050     
           4  -1.9712655728280595E-002
           5  0.43792942520886696     
           6  0.10079706624369991     
           7  0.57270369392672593     
           8   5.0878606636638101E-003
           9  0.43792951476109948     
          10 -0.44018677325313160     
          11  0.37917037289240985     
          12  -2.5318360482642337E-002
