3
 energy: -9.920249220462 gnorm: 0.067722275011 xtb: 6.2.2 (9d81278992624c895f80dd42a50cac0aa55982e2)
C        -0.26906600000000    0.75462600000000   -0.01603800000000
O        -0.49594600000000   -0.60286600000000   -0.02742000000000
O         0.76501200000000   -0.15176000000000    0.04345800000000
3
 energy: -9.923372279757 gnorm: 0.050696343101 xtb: 6.2.2 (9d81278992624c895f80dd42a50cac0aa55982e2)
C        -0.26504210672264    0.74334115962036   -0.01579815170872
O        -0.51407423270925   -0.60298935851514   -0.02844581463053
O         0.77911633943189   -0.14035180110522    0.04424396633925
3
 energy: -9.927918993602 gnorm: 0.016009623128 xtb: 6.2.2 (9d81278992624c895f80dd42a50cac0aa55982e2)
C        -0.24748844996052    0.69411174487399   -0.01475184698340
O        -0.57378530361879   -0.59659688259573   -0.03183196200337
O         0.82127375357932   -0.09751486227826    0.04658380898677
3
 energy: -9.928140058663 gnorm: 0.006144773499 xtb: 6.2.2 (9d81278992624c895f80dd42a50cac0aa55982e2)
C        -0.25175391201648    0.70607394268702   -0.01500609410941
O        -0.56056917285874   -0.59861266315021   -0.03108184475513
O         0.81232308487522   -0.10746127953682    0.04608793886454
3
 energy: -9.928169268583 gnorm: 0.000687636816 xtb: 6.2.2 (9d81278992624c895f80dd42a50cac0aa55982e2)
C        -0.25061651455816    0.70288395734965   -0.01493829814914
O        -0.56383131398057   -0.59798123760539   -0.03126714018152
O         0.81444782853873   -0.10490271974426    0.04620543833065
3
 energy: -9.928169509306 gnorm: 0.000139798553 xtb: 6.2.2 (9d81278992624c895f80dd42a50cac0aa55982e2)
C        -0.25062081650898    0.70289588267143   -0.01493855442170
O        -0.56354901944301   -0.59788693448446   -0.03125126532352
O         0.81416983595199   -0.10500894818696    0.04618981974522
