 Entering Gaussian System
 *********************************************
 Gaussian 98:
 frequency output generated by the xtb code
 *********************************************
                         Standard orientation:
 --------------------------------------------------------------------
  Center     Atomic     Atomic              Coordinates (Angstroms)
  Number     Number      Type              X           Y           Z
 --------------------------------------------------------------------
    1          6             0       -0.250617    0.702897   -0.014939
    2          8             0       -0.563552   -0.597884   -0.031248
    3          8             0        0.814169   -0.105013    0.046187
 --------------------------------------------------------------------
     1 basis functions        1 primitive gaussians
     1 alpha electrons        1 beta electrons

 Harmonic frequencies (cm**-1), IR intensities (KM/Mole),
 Raman scattering activities (A**4/amu), Raman depolarization ratios,
 reduced masses (AMU), force constants (mDyne/A) and normal coordinates:
                      1                      2                      3
                        a                      a                      a 
 Frequencies --   886.4963              1080.7870              1560.7634
 Red. masses --    15.4442                14.2281                13.6545
 Frc consts  --     0.0000                 0.0000                 0.0000
 IR Inten    --     0.4545                 1.2041                 0.4895
 Raman Activ --     0.0000                 0.0000                 0.0000
 Depolar     --     0.0000                 0.0000                 0.0000
 Atom AN      X      Y      Z        X      Y      Z        X      Y      Z
   1   6     0.13  -0.35   0.01    -0.63  -0.22  -0.04    -0.26   0.72  -0.02
   2   8    -0.65  -0.06  -0.04     0.12   0.51   0.01    -0.18  -0.42  -0.01
   3   8     0.54   0.37   0.03     0.42  -0.32   0.02     0.40  -0.21   0.02
