$hessian                                                                        
        0.2874012654  -0.1469441271   0.0164222723  -0.0220509888  -0.0628563737
       -0.0011802343  -0.2653502766   0.2098005008  -0.0152420380
       -0.1469441271   0.6480800081  -0.0090130201  -0.0880181612  -0.4461937748
       -0.0045008336   0.2349622883  -0.2018862333   0.0135138537
        0.0164222723  -0.0090130201   0.0009390415  -0.0011531578  -0.0030769185
       -0.0000619466  -0.0152691145   0.0120899387  -0.0008770949
       -0.0220509888  -0.0880181612  -0.0011531578   0.2605711252   0.1741742970
        0.0145583902  -0.2385201364  -0.0861561358  -0.0134052324
       -0.0628563737  -0.4461937748  -0.0030769185   0.1741742970   0.4440148697
        0.0093787866  -0.1113179233   0.0021789051  -0.0063018681
       -0.0011802343  -0.0045008336  -0.0000619466   0.0145583902   0.0093787866
        0.0008137723  -0.0133781559  -0.0048779530  -0.0007518258
       -0.2653502766   0.2349622883  -0.0152691145  -0.2385201364  -0.1113179233
       -0.0133781559   0.5038704130  -0.1236443650   0.0286472704
        0.2098005008  -0.2018862333   0.0120899387  -0.0861561358   0.0021789051
       -0.0048779530  -0.1236443650   0.1997073282  -0.0072119856
       -0.0152420380   0.0135138537  -0.0008770949  -0.0134052324  -0.0063018681
       -0.0007518258   0.0286472704  -0.0072119856   0.0016289207
