      -----------------------------------------------------------      
     |                   =====================                   |     
     |                           x T B                           |     
     |                   =====================                   |     
     |                         S. Grimme                         |     
     |          Mulliken Center for Theoretical Chemistry        |     
     |                    University of Bonn                     |     
      -----------------------------------------------------------      

   * xtb version 6.2.2 (9d81278992624c895f80dd42a50cac0aa55982e2) compiled by '@Darwin' on 04/03/2020

   xtb is free software: you can redistribute it and/or modify it under
   the terms of the GNU Lesser General Public License as published by
   the Free Software Foundation, either version 3 of the License, or
   (at your option) any later version.
   
   xtb is distributed in the hope that it will be useful,
   but WITHOUT ANY WARRANTY; without even the implied warranty of
   MERCHANTABILITY or FITNESS FOR A PARTICULAR PURPOSE.  See the
   GNU Lesser General Public License for more details.
   
   Cite this work as:
   * S. Grimme, C. Bannwarth, P. Shushkov, J. Chem. Theory Comput., 2017,
     13, 1989-2009. DOI: 10.1021/acs.jctc.7b00118
   * C. Bannwarth, S. Ehlert and S. Grimme., J. Chem. Theory Comput., 2019,
     15, 1652-1671. DOI: 10.1021/acs.jctc.8b01176
   * P. Pracht, E. Caldeweyher, S. Ehlert, S. Grimme, ChemRxiv, 2019, preprint.
     DOI: 10.26434/chemrxiv.8326202.v1
   
   for DFT-D4:
   * E. Caldeweyher, C. Bannwarth and S. Grimme, J. Chem. Phys., 2017,
     147, 034112. DOI: 10.1063/1.4993215
   * E. Caldeweyher, S. Ehlert, A. Hansen, H. Neugebauer, S. Spicher,
     C. Bannwarth and S. Grimme, J. Chem. Phys., 2019, 150, 154122.
     DOI: 10.1063/1.5090222
   
   for sTDA-xTB:
   * S. Grimme and C. Bannwarth, J. Chem. Phys., 2016, 145, 054103.
     DOI: 10.1063/1.4959605
   
   in the mass-spec context:
   * V. Asgeirsson, C. Bauer and S. Grimme, Chem. Sci., 2017, 8, 4879.
     DOI: 10.1039/c7sc00601b
   
   for metadynamics refer to:
   * S. Grimme, J. Chem. Theory Comput., 2019, 155, 2847-2862
     DOI: 10.1021/acs.jctc.9b00143
   
   with help from (in alphabetical order)
   C. Bannwarth, F. Bohle, G. Brandenburg, E. Caldeweyher, M. Checinski,
   S. Dohm, S. Ehlert, S. Ehrlich, F. März, H. Neugebauer, J. Pisarek,
   P. Pracht, P. Shushkov, and S. Spicher.
   
 * started run on 2020/05/12 at 11:45:23.853     

           -------------------------------------------------
          |                Calculation Setup                |
           -------------------------------------------------

          program call               : xtb --input H2C1N2_12_S_0.input H2C1N2_12_S_0.xyz --ohess --molden --namespace H2C1N2_12_S_0 output.out
          calculation namespace      : H2C1N2_12_S_0
          coordinate file            : H2C1N2_12_S_0.xyz
          number of atoms            :                     5
          number of electrons        :                    16
          charge                     :                     0
          spin                       :                   0.0
          first test random number   :      0.20639112774308

   ID    Z sym.   atoms
    1    7 N      1, 3
    2    6 C      2
    3    1 H      4, 5

           -------------------------------------------------
          |                 G F N 2 - x T B                 |
           -------------------------------------------------

        Reference                      10.1021/acs.jctc.8b01176
      * Hamiltonian:
        H0-scaling (s, p, d)           1.850000    2.230000    2.230000
        zeta-weighting                 0.500000
      * Dispersion:
        s8                             2.700000
        a1                             0.520000
        a2                             5.000000
        s9                             5.000000
      * Repulsion:
        kExp                           1.500000    1.000000
        rExp                           1.000000
      * Coulomb:
        alpha                          2.000000
        third order                    shell-resolved
        anisotropic                    true
        a3                             3.000000
        a5                             4.000000
        cn-shift                       1.200000
        cn-exp                         4.000000
        max-rad                        5.000000


          ...................................................
          :                      SETUP                      :
          :.................................................:
          :  # basis functions                  14          :
          :  # atomic orbitals                  14          :
          :  # shells                            8          :
          :  # electrons                        16          :
          :  max. iterations                   250          :
          :  Hamiltonian                  GFN2-xTB          :
          :  restarted?                      false          :
          :  GBSA solvation                  false          :
          :  PC potential                    false          :
          :  electronic temp.          300.0000000     K    :
          :  accuracy                    1.0000000          :
          :  -> integral cutoff          0.2500000E+02      :
          :  -> integral neglect         0.1000000E-07      :
          :  -> SCF convergence          0.1000000E-05 Eh   :
          :  -> wf. convergence          0.1000000E-03 e    :
          :  Broyden damping             0.4000000          :
          ...................................................

 iter      E             dE          RMSdq      gap      omega  full diag
   1     -8.8618497 -0.886185E+01  0.650E+00    2.02       0.0  T
   2     -8.8687711 -0.692144E-02  0.452E+00    2.61       1.0  T
   3     -8.8555234  0.132477E-01  0.180E+00    1.51       1.0  T
   4     -8.8764987 -0.209753E-01  0.392E-01    2.18       1.0  T
   5     -8.8765589 -0.601872E-04  0.141E-01    2.14       1.0  T
   6     -8.8765598 -0.852463E-06  0.392E-02    2.15       1.1  T
   7     -8.8765614 -0.160089E-05  0.959E-03    2.14       4.7  T
   8     -8.8765611  0.256384E-06  0.106E-02    2.15       4.2  T
   9     -8.8765617 -0.602494E-06  0.473E-04    2.14      94.5  T
  10     -8.8765617  0.930829E-10  0.404E-04    2.14     110.6  T

   *** convergence criteria satisfied after 10 iterations ***

         #    Occupation            Energy/Eh            Energy/eV
      -------------------------------------------------------------
         1        2.0000           -0.7320263             -19.9195
         2        2.0000           -0.6184130             -16.8279
         3        2.0000           -0.5997516             -16.3201
         4        2.0000           -0.5570454             -15.1580
         5        2.0000           -0.5355242             -14.5724
         6        2.0000           -0.4611100             -12.5474
         7        2.0000           -0.4442064             -12.0875
         8        2.0000           -0.4084793             -11.1153 (HOMO)
         9                         -0.3296738              -8.9709 (LUMO)
        10                         -0.1237067              -3.3662
        11                          0.0063528               0.1729
        12                          0.0716862               1.9507
        13                          0.0843370               2.2949
        14                          0.2017973               5.4912
      -------------------------------------------------------------
                  HL-Gap            0.0788055 Eh            2.1444 eV
             Fermi-level           -0.3690766 Eh          -10.0431 eV

 SCC (total)                   0 d,  0 h,  0 min,  0.003 sec
 SCC setup                      ...        0 min,  0.000 sec (  3.394%)
 Dispersion                     ...        0 min,  0.000 sec (  0.498%)
 integral evaluation            ...        0 min,  0.001 sec ( 28.473%)
 zeroth order Hamiltonian       ...        0 min,  0.000 sec (  0.610%)
 iterations                     ...        0 min,  0.001 sec ( 36.000%)
 molecular gradient             ...        0 min,  0.001 sec ( 28.516%)
 printout                       ...        0 min,  0.000 sec (  2.122%)

         :::::::::::::::::::::::::::::::::::::::::::::::::::::
         ::                     SUMMARY                     ::
         :::::::::::::::::::::::::::::::::::::::::::::::::::::
         :: total energy              -8.815419106430 Eh    ::
         :: gradient norm              0.088225297391 Eh/a0 ::
         :: HOMO-LUMO gap              2.144406741044 eV    ::
         ::.................................................::
         :: SCC energy                -8.876561698639 Eh    ::
         :: -> isotropic ES           -0.000568058775 Eh    ::
         :: -> anisotropic ES          0.002354830279 Eh    ::
         :: -> anisotropic XC          0.014720608438 Eh    ::
         :: -> dispersion             -0.001422176596 Eh    ::
         :: repulsion energy           0.061142575978 Eh    ::
         :: add. restraining           0.000000000000 Eh    ::
         :::::::::::::::::::::::::::::::::::::::::::::::::::::

      ----------------------------------------------------------- 
     |                   =====================                   |
     |                        A N C O P T                        |
     |                   =====================                   |
     |               Approximate Normal Coordinate               |
     |                Rational Function Optimizer                |
      ----------------------------------------------------------- 

          ...................................................
          :                      SETUP                      :
          :.................................................:
          :   optimization level            normal          :
          :   max. optcycles                   200          :
          :   ANC micro-cycles                  20          :
          :   degrees of freedom                 9          :
          :.................................................:
          :   RF solver                   davidson          :
          :   write xtbopt.log                true          :
          :   linear?                        false          :
          :   energy convergence         0.5000000E-05 Eh   :
          :   grad. convergence          0.1000000E-02 Eh/α :
          :   maximium RF displ.         1.0000000          :
          :   Hlow (freq-cutoff)         0.1000000E-01      :
          :   Hmax (freq-cutoff)         5.0000000          :
          :   S6 in model hess.         20.0000000          :
          ...................................................

generating ANC from model Hessian ...
Using Lindh-Hessian (1995)
 Shifting diagonal of input Hessian by    0.0000000000000000     
 Lowest  eigenvalues of input Hessian
   -0.000000   -0.000000   -0.000000    0.000000    0.000000    0.000000
    0.072393    0.123307    0.199276    0.203867    0.874818    0.950154
    1.059921    1.131076    1.687227
 Highest eigenvalues
    0.203867    0.874818    0.950154    1.059921    1.131076    1.687227


........................................................................
.............................. CYCLE    1 ..............................
........................................................................
   1     -8.8765617 -0.887656E+01  0.123E-05    2.14       0.0  T
   2     -8.8765617 -0.497380E-13  0.717E-06    2.14    6236.2  T
   3     -8.8765617 -0.355271E-14  0.273E-06    2.14   16355.3  T
     SCC iter.                  ...        0 min,  0.000 sec
     gradient                   ...        0 min,  0.001 sec
 * total energy  :    -8.8154191 Eh     change       -0.1658226E-08 Eh
   gradient norm :     0.0882209 Eh/α   predicted     0.0000000E+00 (-100.00%)
   displ. norm   :     0.1315941 α      lambda       -0.8729142E-02
   maximum displ.:     0.0929772 α      in ANC's #3, #7, #1, ...

........................................................................
.............................. CYCLE    2 ..............................
........................................................................
   1     -8.8924388 -0.889244E+01  0.828E-01    2.38       0.0  T
   2     -8.8925430 -0.104193E-03  0.464E-01    2.43       1.0  T
   3     -8.8924520  0.910616E-04  0.175E-01    2.34       1.0  T
   4     -8.8925940 -0.142034E-03  0.398E-02    2.40       1.1  T
   5     -8.8925944 -0.374930E-06  0.779E-03    2.40       5.7  T
   6     -8.8925944 -0.231456E-07  0.178E-03    2.40      25.1  T
   7     -8.8925944 -0.148349E-08  0.822E-04    2.40      54.4  T
   8     -8.8925944 -0.228766E-09  0.482E-05    2.40     926.9  T
     SCC iter.                  ...        0 min,  0.001 sec
     gradient                   ...        0 min,  0.001 sec
 * total energy  :    -8.8219394 Eh     change       -0.6520292E-02 Eh
   gradient norm :     0.0470511 Eh/α   predicted    -0.4440152E-02 ( -31.90%)
   displ. norm   :     0.1892851 α      lambda       -0.6231220E-02
   maximum displ.:     0.1324287 α      in ANC's #3, #1, #7, ...

........................................................................
.............................. CYCLE    3 ..............................
........................................................................
   1     -8.9088016 -0.890880E+01  0.990E-01    2.62       0.0  T
   2     -8.9088930 -0.913880E-04  0.559E-01    2.64       1.0  T
   3     -8.9088846  0.839406E-05  0.113E-01    2.58       1.0  T
   4     -8.9089308 -0.462415E-04  0.420E-02    2.61       1.1  T
   5     -8.9089312 -0.348947E-06  0.694E-03    2.61       6.4  T
   6     -8.9089312 -0.184079E-07  0.202E-03    2.61      22.1  T
   7     -8.9089312 -0.348766E-08  0.726E-04    2.61      61.6  T
   8     -8.9089312 -0.152458E-09  0.860E-05    2.61     519.9  T
     SCC iter.                  ...        0 min,  0.001 sec
     gradient                   ...        0 min,  0.001 sec
 * total energy  :    -8.8255298 Eh     change       -0.3590418E-02 Eh
   gradient norm :     0.0141138 Eh/α   predicted    -0.3227236E-02 ( -10.12%)
   displ. norm   :     0.1035200 α      lambda       -0.8954373E-03
   maximum displ.:     0.0740070 α      in ANC's #1, #3, #7, ...

........................................................................
.............................. CYCLE    4 ..............................
........................................................................
   1     -8.9094186 -0.890942E+01  0.362E-01    2.61       0.0  T
   2     -8.9094367 -0.180689E-04  0.195E-01    2.59       1.0  T
   3     -8.9094310  0.569449E-05  0.567E-02    2.61       1.0  T
   4     -8.9094445 -0.135333E-04  0.109E-02    2.59       4.1  T
   5     -8.9094445 -0.998269E-08  0.102E-03    2.59      43.7  T
   6     -8.9094445 -0.123787E-09  0.388E-04    2.59     115.4  T
   7     -8.9094445 -0.204015E-10  0.447E-05    2.59    1000.8  T
     SCC iter.                  ...        0 min,  0.000 sec
     gradient                   ...        0 min,  0.001 sec
 * total energy  :    -8.8261610 Eh     change       -0.6312315E-03 Eh
   gradient norm :     0.0123493 Eh/α   predicted    -0.4525172E-03 ( -28.31%)
   displ. norm   :     0.0749009 α      lambda       -0.4226918E-03
   maximum displ.:     0.0536152 α      in ANC's #1, #3, #6, ...

........................................................................
.............................. CYCLE    5 ..............................
........................................................................
   1     -8.9095114 -0.890951E+01  0.306E-01    2.57       0.0  T
   2     -8.9095288 -0.173952E-04  0.161E-01    2.54       1.0  T
   3     -8.9095212  0.757946E-05  0.635E-02    2.57       1.0  T
   4     -8.9095368 -0.155538E-04  0.921E-03    2.55       4.9  T
   5     -8.9095368 -0.108116E-07  0.999E-04    2.55      44.8  T
   6     -8.9095368 -0.279892E-09  0.369E-04    2.55     121.4  T
     SCC iter.                  ...        0 min,  0.000 sec
     gradient                   ...        0 min,  0.001 sec
 * total energy  :    -8.8264050 Eh     change       -0.2439659E-03 Eh
   gradient norm :     0.0055019 Eh/α   predicted    -0.2125305E-03 ( -12.89%)
   displ. norm   :     0.0105189 α      lambda       -0.4537244E-04
   maximum displ.:     0.0078471 α      in ANC's #6, #1, #7, ...

........................................................................
.............................. CYCLE    6 ..............................
........................................................................
   1     -8.9102525 -0.891025E+01  0.712E-02    2.54       0.0  T
   2     -8.9102531 -0.601375E-06  0.378E-02    2.54       1.2  T
   3     -8.9102531 -0.120285E-07  0.768E-03    2.54       5.8  T
   4     -8.9102533 -0.200931E-06  0.249E-03    2.54      18.0  T
   5     -8.9102533 -0.834627E-09  0.322E-04    2.54     139.0  T
   6     -8.9102533 -0.860680E-10  0.473E-05    2.54     945.1  T
     SCC iter.                  ...        0 min,  0.001 sec
     gradient                   ...        0 min,  0.001 sec
 * total energy  :    -8.8264322 Eh     change       -0.2723428E-04 Eh
   gradient norm :     0.0020239 Eh/α   predicted    -0.2268943E-04 ( -16.69%)
   displ. norm   :     0.0026363 α      lambda       -0.4634228E-05
   maximum displ.:     0.0021131 α      in ANC's #6, #9, #3, ...

........................................................................
.............................. CYCLE    7 ..............................
........................................................................
   1     -8.9104978 -0.891050E+01  0.181E-02    2.53       0.0  T
   2     -8.9104979 -0.606950E-07  0.102E-02    2.53       4.4  T
   3     -8.9104979  0.377379E-07  0.389E-03    2.53      11.5  T
   4     -8.9104979 -0.660315E-07  0.783E-04    2.53      57.1  T
   5     -8.9104979 -0.107049E-09  0.794E-05    2.53     563.3  T
     SCC iter.                  ...        0 min,  0.000 sec
     gradient                   ...        0 min,  0.001 sec
 * total energy  :    -8.8264349 Eh     change       -0.2691461E-05 Eh
   gradient norm :     0.0005818 Eh/α   predicted    -0.2316986E-05 ( -13.91%)
   displ. norm   :     0.0022815 α      lambda       -0.4001272E-06
   maximum displ.:     0.0020144 α      in ANC's #1, #7, #9, ...

   *** GEOMETRY OPTIMIZATION CONVERGED AFTER 7 ITERATIONS ***

------------------------------------------------------------------------
 total energy gain   :        -0.0110158 Eh       -6.9125 kcal/mol
 total RMSD          :         0.1957404 a0        0.1036 Å
 total power (kW/mol):        -4.1317244 (step)-1798.3805 (real)
------------------------------------------------------------------------

 ANCopt (total)                0 d,  0 h,  0 min,  0.016 sec
 optimizer setup                ...        0 min,  0.000 sec (  0.459%)
 model hessian                  ...        0 min,  0.000 sec (  0.636%)
 ANC generation                 ...        0 min,  0.000 sec (  0.378%)
 coordinate transformation      ...        0 min,  0.000 sec (  0.120%)
 single point calculation       ...        0 min,  0.015 sec ( 94.041%)
 optimization log               ...        0 min,  0.000 sec (  1.105%)
 hessian update                 ...        0 min,  0.000 sec (  0.133%)
 rational function              ...        0 min,  0.000 sec (  1.212%)

================
 final structure:
================
5
 xtb: 6.2.2 (9d81278992624c895f80dd42a50cac0aa55982e2)
N         0.62433212799978   -0.03757447700371    0.40035505736255
C        -0.03033271048771    1.05767805871254   -0.07931371004410
N        -0.61946180348107   -0.13234017394745   -0.38762680046960
H         1.44903532218833   -0.40906357362121   -0.05160013000602
H        -1.42357293621933   -0.47869983414018    0.11818658315718

 Bond Distances (Angstroems)
 ---------------------------
N1-C2=1.3632         N1-N3=1.4754         N1-H4=1.0111         C2-N1=1.3632         C2-N3=1.3632         N3-N1=1.4754         
N3-C2=1.3632         N3-H5=1.0111         H4-N1=1.0111         H5-N3=1.0111         
 N  H  Rav=1.0111 sigma=0.0000  Rmin=1.0111  Rmax=1.0111     2
 N  C  Rav=1.3632 sigma=0.0000  Rmin=1.3632  Rmax=1.3632     2
 N  N  Rav=1.4754 sigma=0.0000  Rmin=1.4754  Rmax=1.4754     1

 selected bond angles (degree)
 --------------------
N3-N1-C2= 57.24                H4-N1-C2=121.98                H4-N1-N3=115.17                N3-C2-N1= 65.53                
C2-N3-N1= 57.24                H5-N3-N1=115.17                H5-N3-C2=121.98                

 selected dihedral angles (degree)
 ---------------------------------
N3-C2-N1-H4=101.21            C2-N3-N1-H4=246.83            H5-N3-N1-C2=246.83            H5-N3-N1-H4=133.66            
H5-N3-C2-N1=101.21            
           -------------------------------------------------
          |                Final Singlepoint                |
           -------------------------------------------------

          ...................................................
          :                      SETUP                      :
          :.................................................:
          :  # basis functions                  14          :
          :  # atomic orbitals                  14          :
          :  # shells                            8          :
          :  # electrons                        16          :
          :  max. iterations                   250          :
          :  Hamiltonian                  GFN2-xTB          :
          :  restarted?                      false          :
          :  GBSA solvation                  false          :
          :  PC potential                    false          :
          :  electronic temp.          300.0000000     K    :
          :  accuracy                    1.0000000          :
          :  -> integral cutoff          0.2500000E+02      :
          :  -> integral neglect         0.1000000E-07      :
          :  -> SCF convergence          0.1000000E-05 Eh   :
          :  -> wf. convergence          0.1000000E-03 e    :
          :  Broyden damping             0.4000000          :
          ...................................................

 iter      E             dE          RMSdq      gap      omega  full diag
   1     -8.9104979 -0.891050E+01  0.201E-05    2.53       0.0  T
   2     -8.9104979 -0.225597E-12  0.104E-05    2.53    4296.1  T
   3     -8.9104979 -0.337508E-13  0.628E-06    2.53    7119.5  T

   *** convergence criteria satisfied after 3 iterations ***

         #    Occupation            Energy/Eh            Energy/eV
      -------------------------------------------------------------
         1        2.0000           -0.7223993             -19.6575
         2        2.0000           -0.6155249             -16.7493
         3        2.0000           -0.5950455             -16.1920
         4        2.0000           -0.5510081             -14.9937
         5        2.0000           -0.5377604             -14.6332
         6        2.0000           -0.4733000             -12.8791
         7        2.0000           -0.4220152             -11.4836
         8        2.0000           -0.3926997             -10.6859 (HOMO)
         9                         -0.2996414              -8.1537 (LUMO)
        10                         -0.1293955              -3.5210
        11                          0.0112500               0.3061
        12                          0.1088686               2.9625
        13                          0.1881962               5.1211
        14                          0.3811977              10.3729
      -------------------------------------------------------------
                  HL-Gap            0.0930584 Eh            2.5322 eV
             Fermi-level           -0.3461705 Eh           -9.4198 eV

 SCC (total)                   0 d,  0 h,  0 min,  0.002 sec
 SCC setup                      ...        0 min,  0.000 sec (  2.977%)
 Dispersion                     ...        0 min,  0.000 sec (  0.571%)
 integral evaluation            ...        0 min,  0.001 sec ( 39.685%)
 zeroth order Hamiltonian       ...        0 min,  0.000 sec (  0.571%)
 iterations                     ...        0 min,  0.000 sec ( 13.113%)
 molecular gradient             ...        0 min,  0.001 sec ( 39.871%)
 printout                       ...        0 min,  0.000 sec (  2.704%)

         :::::::::::::::::::::::::::::::::::::::::::::::::::::
         ::                     SUMMARY                     ::
         :::::::::::::::::::::::::::::::::::::::::::::::::::::
         :: total energy              -8.826434941181 Eh    ::
         :: gradient norm              0.000583453522 Eh/a0 ::
         :: HOMO-LUMO gap              2.532247213150 eV    ::
         ::.................................................::
         :: SCC energy                -8.910497925574 Eh    ::
         :: -> isotropic ES            0.001233093567 Eh    ::
         :: -> anisotropic ES          0.001401141513 Eh    ::
         :: -> anisotropic XC          0.013296995595 Eh    ::
         :: -> dispersion             -0.001425722979 Eh    ::
         :: repulsion energy           0.084062966607 Eh    ::
         :: add. restraining           0.000000000000 Eh    ::
         :::::::::::::::::::::::::::::::::::::::::::::::::::::

           ------------------------------------------------- 
          |                Numerical Hessian                |
           ------------------------------------------------- 
step length          :   0.00500
SCC accuracy         :   0.30000
Hessian scale factor :   1.00000
frozen atoms in %    :   0.00000    0
RMS gradient         :   0.00058
estimated CPU  time      0.00 min
estimated wall time      0.00 min

writing file <hessian>.

 projected vibrational frequencies (cm-1)
eigval :       -0.00    -0.00     0.00     0.00     0.00     0.00
eigval :      390.50   793.43   873.90   993.79  1097.65  1153.41
eigval :     1532.64  3375.29  3380.85
           -------------------------------------------------
          |                Property Printout                |
           -------------------------------------------------

    * Orbital Energies and Occupations

         #    Occupation            Energy/Eh            Energy/eV
      -------------------------------------------------------------
         1        2.0000           -0.7223993             -19.6575
         2        2.0000           -0.6155249             -16.7493
         3        2.0000           -0.5950454             -16.1920
         4        2.0000           -0.5510081             -14.9937
         5        2.0000           -0.5377604             -14.6332
         6        2.0000           -0.4733000             -12.8791
         7        2.0000           -0.4220151             -11.4836
         8        2.0000           -0.3926997             -10.6859 (HOMO)
         9                         -0.2996413              -8.1537 (LUMO)
        10                         -0.1293955              -3.5210
        11                          0.0112500               0.3061
        12                          0.1088686               2.9625
        13                          0.1881962               5.1211
        14                          0.3811977              10.3729
      -------------------------------------------------------------
                  HL-Gap            0.0930584 Eh            2.5322 eV
             Fermi-level           -0.3461705 Eh           -9.4198 eV

     #   Z        covCN         q      C6AA      α(0)
     1   7 N      2.741    -0.144    24.114     7.293
     2   6 C      1.820    -0.045    32.403     9.197
     3   7 N      2.741    -0.144    24.114     7.293
     4   1 H      0.860     0.167     1.293     1.781
     5   1 H      0.860     0.167     1.293     1.781

 Mol. C6AA /au·bohr⁶  :        315.450640
 Mol. C8AA /au·bohr⁸  :       7144.395625
 Mol. α(0) /au        :         27.345794


Wiberg/Mayer (AO) data.
largest (>0.10) Wiberg bond orders for each atom
          total WBO             WBO to atom ...
     1  N   3.188        C    2 1.269    N    3 0.977    H    4 0.926
     2  C   2.578        N    1 1.269    N    3 1.269
     3  N   3.188        C    2 1.269    N    1 0.977    H    5 0.926
     4  H   0.972        N    1 0.926
     5  H   0.972        N    3 0.926

MOs/occ written to file <molden.input>


molecular dipole:
                 x           y           z       tot (Debye)
 q only:        0.009      -0.324       0.024
   full:        0.024      -0.846       0.063       2.158
Molecule has the following symmetry elements: (C2) 
It seems to be the C2 point group
molecular quadrupole (traceless):
                xx          xy          yy          xz          yz          zz
 q only:        2.112       0.042      -0.910      -0.596      -0.039      -1.203
  q+dip:        4.155       0.016      -2.686      -2.407       0.022      -1.470
   full:        4.356       0.037      -3.374      -2.467       0.109      -0.982

           -------------------------------------------------
          |                Geometry Summary                 |
           -------------------------------------------------

      molecular mass/u    :       42.0400238
   center of mass at/Å    :       -0.0064317       0.2242800      -0.0168229
  moments of inertia/u·Å² :        0.1319125E+02   0.1942141E+02   0.3022564E+02
rotational constants/cm⁻¹ :        0.1277940E+01   0.8679924E+00   0.5577262E+00

 * 4 selected distances

     #   Z        #   Z                                     value/Å
     1   7 N      2   6 C                                 1.3631751
     2   6 C      3   7 N                                 1.3631850 (max)
     1   7 N      4   1 H                                 1.0111395 (min)
     3   7 N      5   1 H                                 1.0111414

 * 2 distinct bonds (by element types)

   Z      Z             #   av. dist./Å        max./Å        min./Å
   1 H    7 N           2     1.0111404     1.0111414     1.0111395
   6 C    7 N           2     1.3631801     1.3631850     1.3631751

           -------------------------------------------------
          |               Frequency Printout                |
           -------------------------------------------------
 projected vibrational frequencies (cm-1)
eigval :       -0.00    -0.00     0.00     0.00     0.00     0.00
eigval :      390.50   793.43   873.90   993.79  1097.65  1153.41
eigval :     1532.64  3375.29  3380.85
 reduced masses (amu)
   1: 11.46   2: 11.78   3: 12.56   4: 12.36   5: 12.46   6: 11.60   7:  7.76   8:  3.07
   9:  3.65  10: 12.41  11:  7.58  12:  3.15  13: 12.53  14:  1.88  15:  1.87
 IR intensities (amu)
   1:  0.21   2:  0.25   3:  0.27   4:  0.34   5:  0.10   6:  0.20   7:  1.81   8:  0.55
   9:  0.53  10:  0.12  11:  1.09  12:  0.04  13:  0.44  14:  0.15  15:  0.01
 Raman intensities (amu)
   1:  0.00   2:  0.00   3:  0.00   4:  0.00   5:  0.00   6:  0.00   7:  0.00   8:  0.00
   9:  0.00  10:  0.00  11:  0.00  12:  0.00  13:  0.00  14:  0.00  15:  0.00
 output can be read by thermo (or use thermo option).
 writing <g98.out> molden fake output.
 recommended (thermochemical) frequency scaling factor: 1.0
           -------------------------------------------------
          |             Thermodynamic Functions             |
           -------------------------------------------------

c2  symmetry found (for desy threshold:  0.10E+00) used in thermo

          ...................................................
          :                      SETUP                      :
          :.................................................:
          :  # frequencies                           9      :
          :  # imaginary freq.                       0      :
          :  linear?                             false      :
          :  only rotor calc.                    false      :
          :  symmetry                               c2      :
          :  rotational number                       2      :
          :  scaling factor                  1.0000000      :
          :  rotor cutoff                   50.0000000 cm⁻¹ :
          :  imag. cutoff                  -20.0000000 cm⁻¹ :
          :.................................................:

    mode    ω/cm⁻¹     T·S(HO)/kcal·mol⁻¹    T·S(FR)/kcal·mol⁻¹   T·S(vib)
   ------------------------------------------------------------------------
   ------------------------------------------------------------------------

   temp. (K)  partition function   enthalpy   heat capacity  entropy
                                   cal/mol     cal/K/mol   cal/K/mol   J/K/mol
 298.15  VIB   1.25                  342.618      3.659      1.585
         ROT  0.336E+04              888.752      2.981     19.117
         INT  0.419E+04             1231.371      6.640     20.703
         TR   0.264E+27             1481.254      4.968     37.118
         TOT                        2712.6246    11.6082    57.8209   241.9226

   temp. (K)  partition function   enthalpy   heat capacity  entropy
                                   cal/mol     cal/K/mol   cal/K/mol   J/K/mol
 120.00  VIB   1.01                   10.702      0.433      0.108
         ROT   858.                  357.707      2.981     16.405
         INT   866.                  368.409      3.414     16.513
         TR   0.673E+26              596.178      4.968     32.599
         TOT                         964.5872     8.3824    49.1114   205.4822

   temp. (K)  partition function   enthalpy   heat capacity  entropy
                                   cal/mol     cal/K/mol   cal/K/mol   J/K/mol
 100.00  VIB   1.00                    4.104      0.234      0.048
         ROT   653.                  298.089      2.981     15.861
         INT   655.                  302.193      3.215     15.909
         TR   0.512E+26              496.815      4.968     31.693
         TOT                         799.0083     8.1827    47.6029   199.1707

   temp. (K)  partition function   enthalpy   heat capacity  entropy
                                   cal/mol     cal/K/mol   cal/K/mol   J/K/mol
  80.00  VIB   1.00                    0.998      0.088      0.014
         ROT   467.                  238.471      2.981     15.196
         INT   468.                  239.469      3.069     15.210
         TR   0.367E+26              397.452      4.968     30.585
         TOT                         636.9209     8.0369    45.7956   191.6088

   temp. (K)  partition function   enthalpy   heat capacity  entropy
                                   cal/mol     cal/K/mol   cal/K/mol   J/K/mol
  60.00  VIB   1.00                    0.096      0.015      0.002
         ROT   303.                  178.853      2.981     14.338
         INT   303.                  178.949      2.996     14.340
         TR   0.238E+26              298.089      4.968     29.157
         TOT                         477.0382     7.9640    43.4969   181.9912

   temp. (K)  partition function   enthalpy   heat capacity  entropy
                                   cal/mol     cal/K/mol   cal/K/mol   J/K/mol
  40.00  VIB   1.00                    0.001      0.000     -0.000
         ROT   165.                  119.236      2.981     13.130
         INT   165.                  119.236      2.981     13.130
         TR   0.130E+26              198.726      4.968     27.143
         TOT                         317.9625     7.9494    40.2730   168.5022

   temp. (K)  partition function   enthalpy   heat capacity  entropy
                                   cal/mol     cal/K/mol   cal/K/mol   J/K/mol
  20.00  VIB   1.00                    0.000      0.000     -0.000
         ROT   58.4                   59.618      2.981     11.064
         INT   58.4                   59.618      2.981     11.063
         TR   0.458E+25               99.363      4.968     23.701
         TOT                         158.9808     7.9490    34.7646   145.4550

   temp. (K)  partition function   enthalpy   heat capacity  entropy
                                   cal/mol     cal/K/mol   cal/K/mol   J/K/mol
  10.00  VIB   1.00                    0.000      0.000     -0.001
         ROT   20.6                   29.809      2.981      8.997
         INT   20.6                   29.809      2.981      8.997
         TR   0.162E+25               49.681      4.968     20.259
         TOT                          79.4904     7.9490    29.2562   122.4079

       T/K    H(0)-H(T)+PV         H(T)/Eh          T*S/Eh         G(T)/Eh
   ------------------------------------------------------------------------
    298.15    0.432284E-02    0.352865E-01    0.274726E-01    0.781390E-02
    120.00    0.153717E-02    0.325008E-01    0.939168E-02    0.231091E-01
    100.00    0.127330E-02    0.322369E-01    0.758601E-02    0.246509E-01
     80.00    0.101500E-02    0.319786E-01    0.583839E-02    0.261402E-01
     60.00    0.760209E-03    0.317238E-01    0.415901E-02    0.275648E-01
     40.00    0.506705E-03    0.314703E-01    0.256716E-02    0.289032E-01
     20.00    0.253352E-03    0.312170E-01    0.110802E-02    0.301090E-01
     10.00    0.126676E-03    0.310903E-01    0.466227E-03    0.306241E-01 (used)
   ------------------------------------------------------------------------

         :::::::::::::::::::::::::::::::::::::::::::::::::::::
         ::                  THERMODYNAMIC                  ::
         :::::::::::::::::::::::::::::::::::::::::::::::::::::
         :: total free energy          -8.795810856529 Eh   ::
         ::.................................................::
         :: total energy               -8.826434941162 Eh   ::
         :: zero point energy           0.030963635736 Eh   ::
         :: G(RRHO) w/o ZPVE           -0.000339551103 Eh   ::
         :: G(RRHO) contrib.            0.030624084633 Eh   ::
         :::::::::::::::::::::::::::::::::::::::::::::::::::::

optimized geometry written to: xtbopt.xyz


           -------------------------------------------------
          | TOTAL ENERGY               -8.826434941162 Eh   |
          | TOTAL ENTHALPY             -8.795344629411 Eh   |
          | TOTAL FREE ENERGY          -8.795810856529 Eh   |
          | GRADIENT NORM               0.000583495442 Eh/α |
          | HOMO-LUMO GAP               2.532247325087 eV   |
           -------------------------------------------------

------------------------------------------------------------------------
 * finished run on 2020/05/12 at 11:45:23.954     
------------------------------------------------------------------------
 total:
 * wall-time:     0 d,  0 h,  0 min,  0.101 sec
 *  cpu-time:     0 d,  0 h,  0 min,  0.101 sec
 * ratio c/w:     0.999 speedup
 SCF:
 * wall-time:     0 d,  0 h,  0 min,  0.003 sec
 *  cpu-time:     0 d,  0 h,  0 min,  0.003 sec
 * ratio c/w:     1.000 speedup
 ANC optimizer:
 * wall-time:     0 d,  0 h,  0 min,  0.019 sec
 *  cpu-time:     0 d,  0 h,  0 min,  0.019 sec
 * ratio c/w:     0.999 speedup
 numerical hessian:
 * wall-time:     0 d,  0 h,  0 min,  0.061 sec
 *  cpu-time:     0 d,  0 h,  0 min,  0.061 sec
 * ratio c/w:     0.999 speedup

