 Entering Gaussian System, Link 0=g16
 Initial command:
 /applis/site/cecic/gaussian16/B.01/nehalem/g16/l1.exe "/bettik/tinaccil/g16/12753561_C/Gau-104871.inp" -scrdir="/bettik/tinaccil/g16/12753561_C/"
 Entering Link 1 = /applis/site/cecic/gaussian16/B.01/nehalem/g16/l1.exe PID=    104876.
  
 Copyright (c) 1988-2017, Gaussian, Inc.  All Rights Reserved.
  
 This is part of the Gaussian(R) 16 program.  It is based on
 the Gaussian(R) 09 system (copyright 2009, Gaussian, Inc.),
 the Gaussian(R) 03 system (copyright 2003, Gaussian, Inc.),
 the Gaussian(R) 98 system (copyright 1998, Gaussian, Inc.),
 the Gaussian(R) 94 system (copyright 1995, Gaussian, Inc.),
 the Gaussian 92(TM) system (copyright 1992, Gaussian, Inc.),
 the Gaussian 90(TM) system (copyright 1990, Gaussian, Inc.),
 the Gaussian 88(TM) system (copyright 1988, Gaussian, Inc.),
 the Gaussian 86(TM) system (copyright 1986, Carnegie Mellon
 University), and the Gaussian 82(TM) system (copyright 1983,
 Carnegie Mellon University). Gaussian is a federally registered
 trademark of Gaussian, Inc.
  
 This software contains proprietary and confidential information,
 including trade secrets, belonging to Gaussian, Inc.
  
 This software is provided under written license and may be
 used, copied, transmitted, or stored only in accord with that
 written license.
  
 The following legend is applicable only to US Government
 contracts under FAR:
  
                    RESTRICTED RIGHTS LEGEND
  
 Use, reproduction and disclosure by the US Government is
 subject to restrictions as set forth in subparagraphs (a)
 and (c) of the Commercial Computer Software - Restricted
 Rights clause in FAR 52.227-19.
  
 Gaussian, Inc.
 340 Quinnipiac St., Bldg. 40, Wallingford CT 06492
  
  
 ---------------------------------------------------------------
 Warning -- This program may not be used in any manner that
 competes with the business of Gaussian, Inc. or will provide
 assistance to any competitor of Gaussian, Inc.  The licensee
 of this program is prohibited from giving any competitor of
 Gaussian, Inc. access to this program.  By using this program,
 the user acknowledges that Gaussian, Inc. is engaged in the
 business of creating and licensing software in the field of
 computational chemistry and represents and warrants to the
 licensee that it is not a competitor of Gaussian, Inc. and that
 it will not use this program in any manner prohibited above.
 ---------------------------------------------------------------
  

 Cite this work as:
 Gaussian 16, Revision B.01,
 M. J. Frisch, G. W. Trucks, H. B. Schlegel, G. E. Scuseria, 
 M. A. Robb, J. R. Cheeseman, G. Scalmani, V. Barone, 
 G. A. Petersson, H. Nakatsuji, X. Li, M. Caricato, A. V. Marenich, 
 J. Bloino, B. G. Janesko, R. Gomperts, B. Mennucci, H. P. Hratchian, 
 J. V. Ortiz, A. F. Izmaylov, J. L. Sonnenberg, D. Williams-Young, 
 F. Ding, F. Lipparini, F. Egidi, J. Goings, B. Peng, A. Petrone, 
 T. Henderson, D. Ranasinghe, V. G. Zakrzewski, J. Gao, N. Rega, 
 G. Zheng, W. Liang, M. Hada, M. Ehara, K. Toyota, R. Fukuda, 
 J. Hasegawa, M. Ishida, T. Nakajima, Y. Honda, O. Kitao, H. Nakai, 
 T. Vreven, K. Throssell, J. A. Montgomery, Jr., J. E. Peralta, 
 F. Ogliaro, M. J. Bearpark, J. J. Heyd, E. N. Brothers, K. N. Kudin, 
 V. N. Staroverov, T. A. Keith, R. Kobayashi, J. Normand, 
 K. Raghavachari, A. P. Rendell, J. C. Burant, S. S. Iyengar, 
 J. Tomasi, M. Cossi, J. M. Millam, M. Klene, C. Adamo, R. Cammi, 
 J. W. Ochterski, R. L. Martin, K. Morokuma, O. Farkas, 
 J. B. Foresman, and D. J. Fox, Gaussian, Inc., Wallingford CT, 2016.
 
 ******************************************
 Gaussian 16:  ES64L-G16RevB.01 20-Dec-2017
                 5-Oct-2020 
 ******************************************
 %nosave
 %nproc=8
 Will use up to    8 processors via shared memory.
 %mem=2gb
 %chk=input
 ------------------------
 #P ROCCSD(T)/aug-cc-pvtz
 ------------------------
 1/38=1,172=1/1;
 2/12=2,17=6,18=5,40=1/2;
 3/5=16,6=1,7=10,11=2,25=1,30=1,116=101/1,2,3;
 4//1;
 5/5=2,38=5/2;
 8/5=-1,6=4,9=120000,10=1/1,4;
 9/5=7,14=2/13;
 6/7=2,8=2,9=2,10=2/1;
 99/5=1,9=1/99;
 Leave Link    1 at Mon Oct  5 21:20:02 2020, MaxMem=   268435456 cpu:               0.9 elap:               0.2
 (Enter /applis/site/cecic/gaussian16/B.01/nehalem/g16/l101.exe)
 -----
 Title
 -----
 Symbolic Z-matrix:
 Charge =  0 Multiplicity = 3
 C
 
 ITRead=  0
 MicOpt= -1
 NAtoms=      1 NQM=        1 NQMF=       0 NMMI=      0 NMMIF=      0
                NMic=       0 NMicF=      0.
                    Isotopes and Nuclear Properties:
 (Nuclear quadrupole moments (NQMom) in fm**2, nuclear magnetic moments (NMagM)
  in nuclear magnetons)

  Atom         1
 IAtWgt=          12
 AtmWgt=  12.0000000
 NucSpn=           0
 AtZEff=  -0.0000000
 NQMom=    0.0000000
 NMagM=    0.0000000
 AtZNuc=   6.0000000
 Leave Link  101 at Mon Oct  5 21:20:03 2020, MaxMem=   268435456 cpu:               1.8 elap:               0.3
 (Enter /applis/site/cecic/gaussian16/B.01/nehalem/g16/l202.exe)
                          Input orientation:                          
 ---------------------------------------------------------------------
 Center     Atomic      Atomic             Coordinates (Angstroms)
 Number     Number       Type             X           Y           Z
 ---------------------------------------------------------------------
      1          6           0        0.000000    0.000000    0.000000
 ---------------------------------------------------------------------
 Stoichiometry    C(3)
 Framework group  OH[O(C)]
 Deg. of freedom     0
 Full point group                 OH      NOp  48
 Largest Abelian subgroup         D2H     NOp   8
 Largest concise Abelian subgroup C1      NOp   1
                         Standard orientation:                         
 ---------------------------------------------------------------------
 Center     Atomic      Atomic             Coordinates (Angstroms)
 Number     Number       Type             X           Y           Z
 ---------------------------------------------------------------------
      1          6           0        0.000000    0.000000    0.000000
 ---------------------------------------------------------------------
 Leave Link  202 at Mon Oct  5 21:20:03 2020, MaxMem=   268435456 cpu:               0.1 elap:               0.1
 (Enter /applis/site/cecic/gaussian16/B.01/nehalem/g16/l301.exe)
 Standard basis: Aug-CC-pVTZ (5D, 7F)
 Ernie: Thresh=  0.10000D-02 Tol=  0.10000D-05 Strict=F.
 Ernie:  3 primitive shells out of 30 were deleted.
 There are    14 symmetry adapted cartesian basis functions of AG  symmetry.
 There are     3 symmetry adapted cartesian basis functions of B1G symmetry.
 There are     3 symmetry adapted cartesian basis functions of B2G symmetry.
 There are     3 symmetry adapted cartesian basis functions of B3G symmetry.
 There are     2 symmetry adapted cartesian basis functions of AU  symmetry.
 There are    10 symmetry adapted cartesian basis functions of B1U symmetry.
 There are    10 symmetry adapted cartesian basis functions of B2U symmetry.
 There are    10 symmetry adapted cartesian basis functions of B3U symmetry.
 There are    11 symmetry adapted basis functions of AG  symmetry.
 There are     3 symmetry adapted basis functions of B1G symmetry.
 There are     3 symmetry adapted basis functions of B2G symmetry.
 There are     3 symmetry adapted basis functions of B3G symmetry.
 There are     2 symmetry adapted basis functions of AU  symmetry.
 There are     8 symmetry adapted basis functions of B1U symmetry.
 There are     8 symmetry adapted basis functions of B2U symmetry.
 There are     8 symmetry adapted basis functions of B3U symmetry.
    46 basis functions,    72 primitive gaussians,    55 cartesian basis functions
     4 alpha electrons        2 beta electrons
       nuclear repulsion energy         0.0000000000 Hartrees.
 IExCor=    0 DFT=F Ex=HF Corr=None ExCW=0 ScaHFX=  1.000000
 ScaDFX=  1.000000  1.000000  1.000000  1.000000 ScalE2=  1.000000  1.000000
 IRadAn=      5 IRanWt=     -1 IRanGd=            0 ICorTp=0 IEmpDi=  4
 NAtoms=    1 NActive=    1 NUniq=    1 SFac= 1.00D+00 NAtFMM=   60 NAOKFM=F Big=F
 Integral buffers will be    131072 words long.
 Raffenetti 2 integral format.
 Two-electron integral symmetry is turned on.
 Leave Link  301 at Mon Oct  5 21:20:03 2020, MaxMem=   268435456 cpu:               0.9 elap:               0.2
 (Enter /applis/site/cecic/gaussian16/B.01/nehalem/g16/l302.exe)
 NPDir=0 NMtPBC=     1 NCelOv=     1 NCel=       1 NClECP=     1 NCelD=      1
         NCelK=      1 NCelE2=     1 NClLst=     1 CellRange=     0.0.
 One-electron integrals computed using PRISM.
 One-electron integral symmetry used in STVInt
 NBasis=    46 RedAO= T EigKep=  2.98D-02  NBF=    11     3     3     3     2     8     8     8
 NBsUse=    46 1.00D-06 EigRej= -1.00D+00 NBFU=    11     3     3     3     2     8     8     8
 Leave Link  302 at Mon Oct  5 21:20:03 2020, MaxMem=   268435456 cpu:               1.7 elap:               0.3
 (Enter /applis/site/cecic/gaussian16/B.01/nehalem/g16/l303.exe)
 DipDrv:  MaxL=1.
 Leave Link  303 at Mon Oct  5 21:20:04 2020, MaxMem=   268435456 cpu:               1.1 elap:               0.3
 (Enter /applis/site/cecic/gaussian16/B.01/nehalem/g16/l401.exe)
 ExpMin= 3.57D-02 ExpMax= 8.24D+03 ExpMxC= 2.81D+02 IAcc=3 IRadAn=         5 AccDes= 0.00D+00
 Harris functional with IExCor=  205 and IRadAn=       5 diagonalized for initial guess.
 HarFok:  IExCor=  205 AccDes= 0.00D+00 IRadAn=         5 IDoV= 1 UseB2=F ITyADJ=14
 ICtDFT=  3500011 ScaDFX=  1.000000  1.000000  1.000000  1.000000
 FoFCou: FMM=F IPFlag=           0 FMFlag=      100000 FMFlg1=           0
         NFxFlg=           0 DoJE=T BraDBF=F KetDBF=T FulRan=T
         wScrn=  0.000000 ICntrl=       500 IOpCl=  0 I1Cent=   200000004 NGrid=           0
         NMat0=    1 NMatS0=      1 NMatT0=    0 NMatD0=    1 NMtDS0=    0 NMtDT0=    0
 Petite list used in FoFCou.
 Harris En= -37.5353383727789    
 JPrj=0 DoOrth=F DoCkMO=F.
 Initial guess orbital symmetries:
       Occupied  (A1G) (A1G) (T1U) (T1U)
       Virtual   (T1U) (A1G) (T1U) (T1U) (T1U) (T2G) (T2G) (T2G)
                 (EG) (EG) (T1U) (T1U) (T1U) (A1G) (T2G) (T2G)
                 (T2G) (EG) (EG) (T2U) (T2U) (T2U) (A2U) (T1U)
                 (T1U) (T1U) (T1U) (T1U) (T1U) (T2G) (T2G) (T2G)
                 (EG) (EG) (T2U) (T2U) (T2U) (A2U) (T1U) (T1U)
                 (T1U) (A1G)
 Leave Link  401 at Mon Oct  5 21:20:05 2020, MaxMem=   268435456 cpu:               3.5 elap:               0.6
 (Enter /applis/site/cecic/gaussian16/B.01/nehalem/g16/l502.exe)
 Keep R1 and R2 ints in memory in symmetry-blocked form, NReq=4488473.
 FoFCou: FMM=F IPFlag=           0 FMFlag=           0 FMFlg1=           0
         NFxFlg=           0 DoJE=F BraDBF=F KetDBF=F FulRan=T
         wScrn=  0.000000 ICntrl=       600 IOpCl=  0 I1Cent=           0 NGrid=           0
         NMat0=    1 NMatS0=   1081 NMatT0=    0 NMatD0=    1 NMtDS0=    0 NMtDT0=    0
 Petite list used in FoFCou.
 Restricted open shell SCF:
 Using DIIS extrapolation, IDIIS=  1040.
 NGot=   268435456 LenX=   268267006 LenY=   268263540
 Requested convergence on RMS density matrix=1.00D-08 within 128 cycles.
 Requested convergence on MAX density matrix=1.00D-06.
 Requested convergence on             energy=1.00D-06.
 No special actions if energy rises.

 Cycle   1  Pass 1  IDiag  1:
 Density matrix breaks symmetry, PCut= 1.00D-07
 Density has only Abelian symmetry.
 E= -37.6753440367276    
 DIIS: error= 5.62D-02 at cycle   1 NSaved=   1.
 NSaved= 1 IEnMin= 1 EnMin= -37.6753440367276     IErMin= 1 ErrMin= 5.62D-02
 ErrMax= 5.62D-02  0.00D+00 EMaxC= 1.00D-01 BMatC= 3.98D-02 BMatP= 3.98D-02
 IDIUse=3 WtCom= 4.38D-01 WtEn= 5.62D-01
 Coeff-Com:  0.100D+01
 Coeff-En:   0.100D+01
 Coeff:      0.100D+01
 Gap=     0.141 Goal=   None    Shift=    0.000
 GapD=    0.141 DampG=1.000 DampE=0.500 DampFc=0.5000 IDamp=-1.
 Damping current iteration by 5.00D-01
 RMSDP=3.08D-03 MaxDP=6.02D-02              OVMax= 1.20D-01

 Cycle   2  Pass 1  IDiag  1:
 Density matrix breaks symmetry, PCut= 1.00D-07
 Density has only Abelian symmetry.
 E= -37.6789524102887     Delta-E=       -0.003608373561 Rises=F Damp=T
 DIIS: error= 2.81D-02 at cycle   2 NSaved=   2.
 NSaved= 2 IEnMin= 2 EnMin= -37.6789524102887     IErMin= 2 ErrMin= 2.81D-02
 ErrMax= 2.81D-02  0.00D+00 EMaxC= 1.00D-01 BMatC= 1.02D-02 BMatP= 3.98D-02
 IDIUse=3 WtCom= 7.19D-01 WtEn= 2.81D-01
 Coeff-Com: -0.598D+00 0.160D+01
 Coeff-En:   0.251D+00 0.749D+00
 Coeff:     -0.359D+00 0.136D+01
 Gap=     0.104 Goal=   None    Shift=    0.000
 RMSDP=4.17D-03 MaxDP=8.61D-02 DE=-3.61D-03 OVMax= 1.98D-01

 Cycle   3  Pass 1  IDiag  1:
 Density matrix breaks symmetry, PCut= 1.00D-07
 Density has only Abelian symmetry.
 E= -37.6694379589680     Delta-E=        0.009514451321 Rises=F Damp=F
 DIIS: error= 2.59D-02 at cycle   3 NSaved=   3.
 NSaved= 3 IEnMin= 2 EnMin= -37.6789524102887     IErMin= 3 ErrMin= 2.59D-02
 ErrMax= 2.59D-02  0.00D+00 EMaxC= 1.00D-01 BMatC= 7.40D-03 BMatP= 1.02D-02
 IDIUse=3 WtCom= 7.41D-01 WtEn= 2.59D-01
 Coeff-Com: -0.525D+00 0.100D+01 0.522D+00
 Coeff-En:   0.000D+00 0.688D+00 0.312D+00
 Coeff:     -0.389D+00 0.921D+00 0.468D+00
 Gap=     0.111 Goal=   None    Shift=    0.000
 RMSDP=2.82D-03 MaxDP=5.86D-02 DE= 9.51D-03 OVMax= 1.05D-01

 Cycle   4  Pass 1  IDiag  1:
 Density matrix breaks symmetry, PCut= 1.00D-07
 Density has only Abelian symmetry.
 E= -37.6852626739704     Delta-E=       -0.015824715002 Rises=F Damp=F
 DIIS: error= 7.71D-03 at cycle   4 NSaved=   4.
 NSaved= 4 IEnMin= 4 EnMin= -37.6852626739704     IErMin= 4 ErrMin= 7.71D-03
 ErrMax= 7.71D-03  0.00D+00 EMaxC= 1.00D-01 BMatC= 6.27D-04 BMatP= 7.40D-03
 IDIUse=3 WtCom= 9.23D-01 WtEn= 7.71D-02
 Coeff-Com: -0.315D+00 0.598D+00 0.159D+00 0.558D+00
 Coeff-En:   0.000D+00 0.000D+00 0.000D+00 0.100D+01
 Coeff:     -0.291D+00 0.552D+00 0.147D+00 0.592D+00
 Gap=     0.111 Goal=   None    Shift=    0.000
 RMSDP=4.87D-04 MaxDP=1.02D-02 DE=-1.58D-02 OVMax= 1.97D-02

 Cycle   5  Pass 1  IDiag  1:
 Density matrix breaks symmetry, PCut= 1.00D-07
 Density has only Abelian symmetry.
 E= -37.6863203394608     Delta-E=       -0.001057665490 Rises=F Damp=F
 DIIS: error= 4.57D-03 at cycle   5 NSaved=   5.
 NSaved= 5 IEnMin= 5 EnMin= -37.6863203394608     IErMin= 5 ErrMin= 4.57D-03
 ErrMax= 4.57D-03  0.00D+00 EMaxC= 1.00D-01 BMatC= 2.05D-04 BMatP= 6.27D-04
 IDIUse=3 WtCom= 9.54D-01 WtEn= 4.57D-02
 Coeff-Com: -0.131D+00 0.254D+00 0.127D+00-0.941D+00 0.169D+01
 Coeff-En:   0.000D+00 0.000D+00 0.000D+00 0.000D+00 0.100D+01
 Coeff:     -0.125D+00 0.242D+00 0.121D+00-0.898D+00 0.166D+01
 Gap=     0.111 Goal=   None    Shift=    0.000
 RMSDP=3.06D-04 MaxDP=5.92D-03 DE=-1.06D-03 OVMax= 1.31D-02

 Cycle   6  Pass 1  IDiag  1:
 Density matrix breaks symmetry, PCut= 1.00D-07
 Density has only Abelian symmetry.
 E= -37.6867120384807     Delta-E=       -0.000391699020 Rises=F Damp=F
 DIIS: error= 2.18D-03 at cycle   6 NSaved=   6.
 NSaved= 6 IEnMin= 6 EnMin= -37.6867120384807     IErMin= 6 ErrMin= 2.18D-03
 ErrMax= 2.18D-03  0.00D+00 EMaxC= 1.00D-01 BMatC= 4.74D-05 BMatP= 2.05D-04
 IDIUse=3 WtCom= 9.78D-01 WtEn= 2.18D-02
 Coeff-Com:  0.796D-01-0.146D+00-0.934D-01 0.250D+00-0.154D+01 0.245D+01
 Coeff-En:   0.000D+00 0.000D+00 0.000D+00 0.000D+00 0.000D+00 0.100D+01
 Coeff:      0.778D-01-0.143D+00-0.913D-01 0.245D+00-0.151D+01 0.242D+01
 Gap=     0.109 Goal=   None    Shift=    0.000
 RMSDP=5.64D-04 MaxDP=1.21D-02 DE=-3.92D-04 OVMax= 2.27D-02

 Cycle   7  Pass 1  IDiag  1:
 Density matrix breaks symmetry, PCut= 1.00D-07
 Density has only Abelian symmetry.
 E= -37.6867647961329     Delta-E=       -0.000052757652 Rises=F Damp=F
 DIIS: error= 1.55D-03 at cycle   7 NSaved=   7.
 NSaved= 7 IEnMin= 7 EnMin= -37.6867647961329     IErMin= 7 ErrMin= 1.55D-03
 ErrMax= 1.55D-03  0.00D+00 EMaxC= 1.00D-01 BMatC= 2.66D-05 BMatP= 4.74D-05
 IDIUse=3 WtCom= 9.84D-01 WtEn= 1.55D-02
 Coeff-Com:  0.748D-02-0.146D-01-0.473D-02 0.137D+00-0.415D+00 0.738D+00
 Coeff-Com:  0.552D+00
 Coeff-En:   0.000D+00 0.000D+00 0.000D+00 0.000D+00 0.000D+00 0.419D+00
 Coeff-En:   0.581D+00
 Coeff:      0.737D-02-0.144D-01-0.466D-02 0.134D+00-0.408D+00 0.733D+00
 Coeff:      0.553D+00
 Gap=     0.110 Goal=   None    Shift=    0.000
 RMSDP=2.37D-04 MaxDP=5.15D-03 DE=-5.28D-05 OVMax= 9.21D-03

 Cycle   8  Pass 1  IDiag  1:
 Density matrix breaks symmetry, PCut= 1.00D-07
 Density has only Abelian symmetry.
 E= -37.6868364011410     Delta-E=       -0.000071605008 Rises=F Damp=F
 DIIS: error= 1.19D-04 at cycle   8 NSaved=   8.
 NSaved= 8 IEnMin= 8 EnMin= -37.6868364011410     IErMin= 8 ErrMin= 1.19D-04
 ErrMax= 1.19D-04  0.00D+00 EMaxC= 1.00D-01 BMatC= 1.37D-07 BMatP= 2.66D-05
 IDIUse=3 WtCom= 9.99D-01 WtEn= 1.19D-03
 Coeff-Com:  0.259D-03-0.674D-03 0.115D-02 0.751D-02 0.148D-01 0.153D-03
 Coeff-Com:  0.330D-01 0.944D+00
 Coeff-En:   0.000D+00 0.000D+00 0.000D+00 0.000D+00 0.000D+00 0.000D+00
 Coeff-En:   0.000D+00 0.100D+01
 Coeff:      0.258D-03-0.673D-03 0.115D-02 0.751D-02 0.148D-01 0.153D-03
 Coeff:      0.329D-01 0.944D+00
 Gap=     0.110 Goal=   None    Shift=    0.000
 RMSDP=1.67D-05 MaxDP=3.55D-04 DE=-7.16D-05 OVMax= 6.94D-04

 Cycle   9  Pass 1  IDiag  1:
 Density matrix breaks symmetry, PCut= 1.00D-07
 Density has only Abelian symmetry.
 E= -37.6868367453661     Delta-E=       -0.000000344225 Rises=F Damp=F
 DIIS: error= 3.93D-06 at cycle   9 NSaved=   9.
 NSaved= 9 IEnMin= 9 EnMin= -37.6868367453661     IErMin= 9 ErrMin= 3.93D-06
 ErrMax= 3.93D-06  0.00D+00 EMaxC= 1.00D-01 BMatC= 2.97D-10 BMatP= 1.37D-07
 IDIUse=1 WtCom= 1.00D+00 WtEn= 0.00D+00
 Coeff-Com: -0.109D-03 0.204D-03-0.216D-04 0.312D-02-0.117D-01 0.138D-01
 Coeff-Com:  0.309D-01-0.414D+00 0.138D+01
 Coeff:     -0.109D-03 0.204D-03-0.216D-04 0.312D-02-0.117D-01 0.138D-01
 Coeff:      0.309D-01-0.414D+00 0.138D+01
 Gap=     0.110 Goal=   None    Shift=    0.000
 RMSDP=7.49D-07 MaxDP=1.61D-05 DE=-3.44D-07 OVMax= 1.55D-05

 Cycle  10  Pass 1  IDiag  1:
 Density matrix breaks symmetry, PCut= 1.00D-07
 Density has only Abelian symmetry.
 E= -37.6868367458545     Delta-E=       -0.000000000488 Rises=F Damp=F
 DIIS: error= 2.00D-06 at cycle  10 NSaved=  10.
 NSaved=10 IEnMin=10 EnMin= -37.6868367458545     IErMin=10 ErrMin= 2.00D-06
 ErrMax= 2.00D-06  0.00D+00 EMaxC= 1.00D-01 BMatC= 4.22D-11 BMatP= 2.97D-10
 IDIUse=1 WtCom= 1.00D+00 WtEn= 0.00D+00
 Coeff-Com:  0.849D-05-0.164D-04 0.212D-04-0.468D-03 0.180D-02-0.240D-02
 Coeff-Com: -0.410D-02 0.722D-01-0.260D+00 0.119D+01
 Coeff:      0.849D-05-0.164D-04 0.212D-04-0.468D-03 0.180D-02-0.240D-02
 Coeff:     -0.410D-02 0.722D-01-0.260D+00 0.119D+01
 Gap=     0.110 Goal=   None    Shift=    0.000
 RMSDP=3.25D-07 MaxDP=6.97D-06 DE=-4.88D-10 OVMax= 1.30D-05

 Cycle  11  Pass 1  IDiag  1:
 Density matrix breaks symmetry, PCut= 1.00D-07
 Density has only Abelian symmetry.
 E= -37.6868367459679     Delta-E=       -0.000000000113 Rises=F Damp=F
 DIIS: error= 1.21D-07 at cycle  11 NSaved=  11.
 NSaved=11 IEnMin=11 EnMin= -37.6868367459679     IErMin=11 ErrMin= 1.21D-07
 ErrMax= 1.21D-07  0.00D+00 EMaxC= 1.00D-01 BMatC= 1.45D-13 BMatP= 4.22D-11
 IDIUse=1 WtCom= 1.00D+00 WtEn= 0.00D+00
 Coeff-Com:  0.127D-05-0.251D-05-0.112D-05 0.139D-05 0.361D-04 0.157D-04
 Coeff-Com: -0.108D-03 0.154D-02-0.487D-02-0.352D-01 0.104D+01
 Coeff:      0.127D-05-0.251D-05-0.112D-05 0.139D-05 0.361D-04 0.157D-04
 Coeff:     -0.108D-03 0.154D-02-0.487D-02-0.352D-01 0.104D+01
 Gap=     0.110 Goal=   None    Shift=    0.000
 RMSDP=1.35D-08 MaxDP=2.73D-07 DE=-1.13D-10 OVMax= 5.63D-07

 Cycle  12  Pass 1  IDiag  1:
 Density matrix breaks symmetry, PCut= 1.00D-07
 Density has only Abelian symmetry.
 E= -37.6868367459683     Delta-E=       -0.000000000000 Rises=F Damp=F
 DIIS: error= 2.23D-08 at cycle  12 NSaved=  12.
 NSaved=12 IEnMin=12 EnMin= -37.6868367459683     IErMin=12 ErrMin= 2.23D-08
 ErrMax= 2.23D-08  0.00D+00 EMaxC= 1.00D-01 BMatC= 4.96D-15 BMatP= 1.45D-13
 IDIUse=1 WtCom= 1.00D+00 WtEn= 0.00D+00
 Coeff-Com:  0.797D-07-0.157D-06 0.744D-07 0.175D-05-0.758D-05 0.862D-05
 Coeff-Com:  0.110D-04-0.120D-03 0.301D-03 0.453D-02-0.139D+00 0.113D+01
 Coeff:      0.797D-07-0.157D-06 0.744D-07 0.175D-05-0.758D-05 0.862D-05
 Coeff:      0.110D-04-0.120D-03 0.301D-03 0.453D-02-0.139D+00 0.113D+01
 Gap=     0.110 Goal=   None    Shift=    0.000
 RMSDP=3.10D-09 MaxDP=6.65D-08 DE=-3.69D-13 OVMax= 1.26D-07

 Density matrix breaks symmetry, PCut= 1.00D-07
 Density has only Abelian symmetry.
 SCF Done:  E(ROHF) =  -37.6868367460     A.U. after   12 cycles
            NFock= 12  Conv=0.31D-08     -V/T= 2.0002
 <Sx>= 0.0000 <Sy>= 0.0000 <Sz>= 1.0000 <S**2>= 2.0000 S= 1.0000
 <L.S>= 0.000000000000E+00
 KE= 3.767784489090D+01 PE=-8.811921278439D+01 EE= 1.275453114753D+01
 Annihilation of the first spin contaminant:
 S**2 before annihilation     2.0000,   after     2.0000
 Leave Link  502 at Mon Oct  5 21:20:05 2020, MaxMem=   268435456 cpu:               5.4 elap:               0.8
 (Enter /applis/site/cecic/gaussian16/B.01/nehalem/g16/l801.exe)
 Windowed orbitals will be sorted by symmetry type.
 Density matrix breaks symmetry, PCut= 1.00D-07
 Density has only Abelian symmetry.
 GenMOA:  NOpAll= 48 NOp2=8 NOpUse=  8 JSym2X=1
 FoFJK:  IHMeth= 1 ICntrl=       0 DoSepK=F KAlg= 0 I1Cent=           0 FoldK=F
 IRaf=         0 NMat=       1 IRICut=       1 DoRegI=T DoRafI=F ISym2E= 1 IDoP0=0 IntGTp=1.
 FoFCou: FMM=F IPFlag=           0 FMFlag=      100000 FMFlg1=           0
         NFxFlg=           0 DoJE=F BraDBF=F KetDBF=F FulRan=T
         wScrn=  0.000000 ICntrl=         0 IOpCl=  1 I1Cent=           0 NGrid=           0
         NMat0=    1 NMatS0=      1 NMatT0=    0 NMatD0=    1 NMtDS0=    0 NMtDT0=    0
 Petite list used in FoFCou.
 <Sx>= 0.0000 <Sy>= 0.0000 <Sz>= 1.0000 <S**2>= 2.0000 S= 1.0000
 ExpMin= 3.57D-02 ExpMax= 8.24D+03 ExpMxC= 2.81D+02 IAcc=3 IRadAn=         5 AccDes= 0.00D+00
 HarFok:  IExCor=  205 AccDes= 0.00D+00 IRadAn=         5 IDoV=-2 UseB2=F ITyADJ=14
 ICtDFT= 12500011 ScaDFX=  1.000000  1.000000  1.000000  1.000000
 Largest valence mixing into a core orbital is  2.06D-04
 Largest core mixing into a valence orbital is  4.34D-05
 Largest valence mixing into a core orbital is  2.87D-04
 Largest core mixing into a valence orbital is  1.24D-04
 Range of M.O.s used for correlation:     2    46
 NBasis=    46 NAE=     4 NBE=     2 NFC=     1 NFV=     0
 NROrb=     45 NOA=     3 NOB=     1 NVA=    42 NVB=    44
 Singles contribution to E2=   -0.3223155964D-02
 Leave Link  801 at Mon Oct  5 21:20:06 2020, MaxMem=   268435456 cpu:               3.9 elap:               0.6
 (Enter /applis/site/cecic/gaussian16/B.01/nehalem/g16/l804.exe)
 Open-shell transformation, MDV=   268435456 ITran=4 ISComp=2.
 Unit  1 TFree=         71204 TCopy=        252054.
 Semi-Direct transformation.
 ModeAB=           2 MOrb=             3 LenV=     268163321
 LASXX=        16350 LTotXX=       16350 LenRXX=       16350
 LTotAB=       17992 MaxLAS=      207900 LenRXY=      207900
 NonZer=      227745 LenScr=      720896 LnRSAI=           0
 LnScr1=           0 LExtra=           0 Total=       945146
 MaxDsk=          -1 SrtSym=           F ITran=            4
 DoSDTr:  NPSUse=  8
 JobTyp=1 Pass  1:  I=   1 to   3.
 (rs|ai) integrals will be sorted in core.
 Complete sort for first half transformation.
 First half transformation complete.
 Complete sort for second half transformation.
 Second half transformation complete.
 ModeAB=           2 MOrb=             1 LenV=     268163321
 LASXX=         5722 LTotXX=        5722 LenRXX=       69300
 LTotAB=        5471 MaxLAS=       69300 LenRXY=        5471
 NonZer=       75915 LenScr=      720896 LnRSAI=           0
 LnScr1=           0 LExtra=           0 Total=       795667
 MaxDsk=          -1 SrtSym=           F ITran=            4
 DoSDTr:  NPSUse=  8
 JobTyp=2 Pass  1:  I=   1 to   1.
 (rs|ai) integrals will be sorted in core.
 Complete sort for first half transformation.
 First half transformation complete.
 Complete sort for second half transformation.
 Second half transformation complete.
 Spin components of T(2) and E(2):
     alpha-alpha T2 =       0.4438180548D-02 E2=     -0.1308796064D-01
     alpha-beta  T2 =       0.2189451768D-01 E2=     -0.5626530484D-01
     beta-beta   T2 =       0.0000000000D+00 E2=      0.0000000000D+00
 ANorm=    0.1014099359D+01
 E2 =    -0.7257642144D-01 EUMP2 =    -0.37759413167413D+02
 (S**2,0)=  0.20000D+01           (S**2,1)=  0.20000D+01
 E(PUHF)=      -0.37686836746D+02        E(PMP2)=      -0.37759413167D+02
 Leave Link  804 at Mon Oct  5 21:20:07 2020, MaxMem=   268435456 cpu:               3.3 elap:               0.5
 (Enter /applis/site/cecic/gaussian16/B.01/nehalem/g16/l913.exe)
 CIDS:  MDV=   268435456.
 Frozen-core window:  NFC=   1 NFV=   0.
 IFCWin=0 IBDFC=1 NFBD=     0     0 NFCmp=     0     0 NFFFC=     0     0
 Using original routines for 1st iteration.
 Using DD4UQ or CC4UQ for 2nd and later iterations.
 Keep R2 and R3 ints in memory in symmetry-blocked form, NReq=4491939.
 FoFCou: FMM=F IPFlag=           0 FMFlag=           0 FMFlg1=           0
         NFxFlg=           0 DoJE=F BraDBF=F KetDBF=F FulRan=T
         wScrn=  0.000000 ICntrl=       600 IOpCl=  0 I1Cent=           0 NGrid=           0
         NMat0=    1 NMatS0=   1081 NMatT0=    0 NMatD0=    1 NMtDS0=    0 NMtDT0=    0
 Petite list used in FoFCou.
 CIDS: In Core Option IDoMem=           1.
 CCSD(T)
 =======
 Iterations=  50 Convergence= 0.100D-06
 Produce multiple copies of IABC intergrals
 Iteration Nr.   1
 **********************
 DD1Dir will call FoFMem   1 times, MxPair=        10
 NAB=     3 NAA=     3 NBB=     0.
 DD1Dir will call FoFMem   1 times, MxPair=        10
 NAB=     3 NAA=     3 NBB=     0.
 MP4(R+Q)=  0.16972329D-01
 Maximum subspace dimension=  5
 A-vector RMS=  4.3158627D-04 Max=  1.6340700D-03 conv= 1.00D-05.
 RLE energy=       -0.0709283042
 E3=       -0.15316003D-01        EROMP3=      -0.37774729170D+02
 E4(SDQ)=  -0.33403034D-02        ROMP4(SDQ)=  -0.37778069474D+02
 VARIATIONAL ENERGIES WITH THE FIRST-ORDER WAVEFUNCTION:
 DE(Corr)= -0.70887616E-01 E(Corr)=     -37.757724362    
 NORM(A)=   0.10133113D+01
 Iteration Nr.   2
 **********************
 DD1Dir will call FoFMem   1 times, MxPair=        10
 NAB=     3 NAA=     3 NBB=     0.
 A-vector RMS=  3.0397403D-03 Max=  1.6548839D-02 conv= 1.00D-05.
 RLE energy=       -0.0724188682
 DE(Corr)= -0.85811988E-01 E(CORR)=     -37.772648734     Delta=-1.49D-02
 NORM(A)=   0.10140071D+01
 Iteration Nr.   3
 **********************
 DD1Dir will call FoFMem   1 times, MxPair=        10
 NAB=     3 NAA=     3 NBB=     0.
 A-vector RMS=  2.8354141D-03 Max=  1.5736764D-02 conv= 1.00D-05.
 RLE energy=       -0.0872746527
 DE(Corr)= -0.86223906E-01 E(CORR)=     -37.773060652     Delta=-4.12D-04
 NORM(A)=   0.10232174D+01
 Iteration Nr.   4
 **********************
 DD1Dir will call FoFMem   1 times, MxPair=        10
 NAB=     3 NAA=     3 NBB=     0.
 A-vector RMS=  7.4486019D-04 Max=  5.1784094D-03 conv= 1.00D-05.
 RLE energy=       -0.0961458494
 DE(Corr)= -0.90855282E-01 E(CORR)=     -37.777692028     Delta=-4.63D-03
 NORM(A)=   0.10307546D+01
 Iteration Nr.   5
 **********************
 DD1Dir will call FoFMem   1 times, MxPair=        10
 NAB=     3 NAA=     3 NBB=     0.
 A-vector RMS=  5.2999097D-04 Max=  2.5848472D-03 conv= 1.00D-05.
 RLE energy=       -0.0958558034
 DE(Corr)= -0.93693872E-01 E(CORR)=     -37.780530618     Delta=-2.84D-03
 NORM(A)=   0.10305202D+01
 Iteration Nr.   6
 **********************
 DD1Dir will call FoFMem   1 times, MxPair=        10
 NAB=     3 NAA=     3 NBB=     0.
 A-vector RMS=  4.6044651D-04 Max=  2.4922593D-03 conv= 1.00D-05.
 RLE energy=       -0.0925967542
 DE(Corr)= -0.93614706E-01 E(CORR)=     -37.780451452     Delta= 7.92D-05
 NORM(A)=   0.10277141D+01
 Iteration Nr.   7
 **********************
 DD1Dir will call FoFMem   1 times, MxPair=        10
 NAB=     3 NAA=     3 NBB=     0.
 A-vector RMS=  9.9547177D-06 Max=  6.5841919D-05 conv= 1.00D-05.
 RLE energy=       -0.0926673008
 DE(Corr)= -0.92626043E-01 E(CORR)=     -37.779462789     Delta= 9.89D-04
 NORM(A)=   0.10277874D+01
 Iteration Nr.   8
 **********************
 DD1Dir will call FoFMem   1 times, MxPair=        10
 NAB=     3 NAA=     3 NBB=     0.
 A-vector RMS=  3.8667424D-06 Max=  2.9424198D-05 conv= 1.00D-05.
 RLE energy=       -0.0926428373
 DE(Corr)= -0.92652034E-01 E(CORR)=     -37.779488780     Delta=-2.60D-05
 NORM(A)=   0.10277629D+01
 Iteration Nr.   9
 **********************
 DD1Dir will call FoFMem   1 times, MxPair=        10
 NAB=     3 NAA=     3 NBB=     0.
 A-vector RMS=  6.1430197D-07 Max=  2.1496969D-06 conv= 1.00D-05.
 RLE energy=       -0.0926431743
 DE(Corr)= -0.92643074E-01 E(CORR)=     -37.779479820     Delta= 8.96D-06
 NORM(A)=   0.10277632D+01
 Iteration Nr.  10
 **********************
 DD1Dir will call FoFMem   1 times, MxPair=        10
 NAB=     3 NAA=     3 NBB=     0.
 A-vector RMS=  1.2582036D-07 Max=  3.7432272D-07 conv= 1.00D-05.
 RLE energy=       -0.0926431841
 DE(Corr)= -0.92643177E-01 E(CORR)=     -37.779479923     Delta=-1.03D-07
 NORM(A)=   0.10277633D+01
 Iteration Nr.  11
 **********************
 DD1Dir will call FoFMem   1 times, MxPair=        10
 NAB=     3 NAA=     3 NBB=     0.
 A-vector RMS=  2.7253422D-08 Max=  1.0188880D-07 conv= 1.00D-05.
 RLE energy=       -0.0926431886
 DE(Corr)= -0.92643186E-01 E(CORR)=     -37.779479932     Delta=-8.78D-09
 NORM(A)=   0.10277633D+01
 CI/CC converged in   11 iterations to DelEn=-8.78D-09 Conv= 1.00D-07 ErrA1= 2.73D-08 Conv= 1.00D-05
 Wavefunction amplitudes converged. E(Corr)=     -37.779479932    
 Largest amplitude= 7.13D-02
 Time for triples=      360.58 seconds.
 T4(CCSD)= -0.22412561D-02
 T5(CCSD)= -0.37930438D-04
 CCSD(T)= -0.37781759119D+02
 Discarding MO integrals.
 Leave Link  913 at Mon Oct  5 21:21:02 2020, MaxMem=   268435456 cpu:             376.8 elap:              55.0
 (Enter /applis/site/cecic/gaussian16/B.01/nehalem/g16/l601.exe)
 Copying SCF densities to generalized density rwf, IOpCl= 0 IROHF=1.
 SCF density gives NOpUse=  8 NOpAll= 48.
 Marking SCF density as not fully symmetric.

 **********************************************************************

            Population analysis using the SCF Density.

 **********************************************************************

 Orbital symmetries:
       Occupied  (A1G) (A1G) (?A) (?A)
       Virtual   (?A) (?B) (?A) (?A) (?A) (?B) (T2G) (T2G) (?B)
                 (T2G) (?A) (?A) (?A) (?B) (?B) (T2G) (T2G) (T2G)
                 (?B) (?A) (?A) (?A) (A2U) (?A) (?A) (?A) (?A)
                 (?A) (?A) (EG) (T2G) (T2G) (T2G) (EG) (?A) (?A)
                 (?A) (A2U) (?A) (?A) (?A) (A1G)
 Unable to determine electronic state:  an orbital has unidentified symmetry.
 Alpha  occ. eigenvalues --  -11.34826  -0.82105  -0.43325  -0.43325
 Alpha virt. eigenvalues --    0.01204   0.09447   0.09662   0.09662   0.12200
 Alpha virt. eigenvalues --    0.30299   0.30311   0.30311   0.30397   0.30397
 Alpha virt. eigenvalues --    0.53094   0.53094   0.58143   0.72700   1.01965
 Alpha virt. eigenvalues --    1.01965   1.03151   1.03151   1.03586   1.07901
 Alpha virt. eigenvalues --    1.08066   1.08066   1.08566   1.08566   1.09410
 Alpha virt. eigenvalues --    1.09410   2.33738   2.33738   2.36992   3.37939
 Alpha virt. eigenvalues --    3.37939   3.38270   3.38270   3.38392   3.43094
 Alpha virt. eigenvalues --    3.43369   3.43369   3.44194   3.44194   3.45578
 Alpha virt. eigenvalues --    3.45578   4.62755
          Condensed to atoms (all electrons):
               1
     1  C    6.000000
          Atomic-Atomic Spin Densities.
               1
     1  C    2.000000
 Mulliken charges and spin densities:
               1          2
     1  C    0.000000   2.000000
 Sum of Mulliken charges =   0.00000   2.00000
 Mulliken charges and spin densities with hydrogens summed into heavy atoms:
               1          2
     1  C    0.000000   2.000000
 Electronic spatial extent (au):  <R**2>=             13.8273
 Charge=              0.0000 electrons
 Dipole moment (field-independent basis, Debye):
    X=              0.0000    Y=              0.0000    Z=              0.0000  Tot=              0.0000
 Quadrupole moment (field-independent basis, Debye-Ang):
   XX=             -6.8924   YY=             -4.8134   ZZ=             -6.8924
   XY=             -0.0000   XZ=              0.0000   YZ=              0.0000
 Traceless Quadrupole moment (field-independent basis, Debye-Ang):
   XX=             -0.6930   YY=              1.3861   ZZ=             -0.6930
   XY=             -0.0000   XZ=              0.0000   YZ=              0.0000
 Octapole moment (field-independent basis, Debye-Ang**2):
  XXX=              0.0000  YYY=              0.0000  ZZZ=              0.0000  XYY=              0.0000
  XXY=              0.0000  XXZ=              0.0000  XZZ=              0.0000  YZZ=              0.0000
  YYZ=              0.0000  XYZ=              0.0000
 Hexadecapole moment (field-independent basis, Debye-Ang**3):
 XXXX=             -9.0319 YYYY=             -4.7309 ZZZZ=             -9.0319 XXXY=             -0.0000
 XXXZ=              0.0000 YYYX=             -0.0000 YYYZ=              0.0000 ZZZX=              0.0000
 ZZZY=              0.0000 XXYY=             -2.2936 XXZZ=             -3.0106 YYZZ=             -2.2936
 XXYZ=              0.0000 YYXZ=              0.0000 ZZXY=             -0.0000
 N-N= 0.000000000000D+00 E-N=-8.811921258761D+01  KE= 3.767784489090D+01
 Symmetry AG   KE= 3.517645382431D+01
 Symmetry B1G  KE= 2.415675288092D-37
 Symmetry B2G  KE= 4.918083013190D-54
 Symmetry B3G  KE= 2.415675288092D-37
 Symmetry AU   KE= 8.170524173835D-41
 Symmetry B1U  KE= 1.250695533292D+00
 Symmetry B2U  KE= 4.689357398080D-33
 Symmetry B3U  KE= 1.250695533292D+00
 Symmetry AG   SP= 0.000000000000D+00
 Symmetry B1G  SP= 0.000000000000D+00
 Symmetry B2G  SP= 0.000000000000D+00
 Symmetry B3G  SP= 0.000000000000D+00
 Symmetry AU   SP= 2.134718005561D-41
 Symmetry B1U  SP= 1.000000000000D+00
 Symmetry B2U  SP= 3.749399520696D-33
 Symmetry B3U  SP= 1.000000000000D+00
                          Isotropic Fermi Contact Couplings
        Atom                 a.u.       MegaHertz       Gauss      10(-4) cm-1
     1  C(13)              0.00000       0.00000       0.00000       0.00000
 --------------------------------------------------------
       Center         ----  Spin Dipole Couplings  ----
                      3XX-RR        3YY-RR        3ZZ-RR
 --------------------------------------------------------
     1   Atom        0.661471     -1.322941      0.661471
 --------------------------------------------------------
                        XY            XZ            YZ
 --------------------------------------------------------
     1   Atom        0.000000      0.000000      0.000000
 --------------------------------------------------------


 ---------------------------------------------------------------------------------
              Anisotropic Spin Dipole Couplings in Principal Axis System
 ---------------------------------------------------------------------------------

       Atom             a.u.   MegaHertz   Gauss  10(-4) cm-1        Axes

              Baa    -1.3229  -177.526   -63.346   -59.216 -0.0000  1.0000  0.0000
     1 C(13)  Bbb     0.6615    88.763    31.673    29.608  1.0000  0.0000  0.0000
              Bcc     0.6615    88.763    31.673    29.608  0.0000  0.0000  1.0000
 

 ---------------------------------------------------------------------------------

 No NMR shielding tensors so no spin-rotation constants.
 Leave Link  601 at Mon Oct  5 21:21:02 2020, MaxMem=   268435456 cpu:               2.9 elap:               0.4
 (Enter /applis/site/cecic/gaussian16/B.01/nehalem/g16/l9999.exe)
 1\1\GINC-DAHU134\SP\ROCCSD(T)-FC\Aug-CC-pVTZ\C1(3)\TINACCIL\05-Oct-202
 0\0\\#P ROCCSD(T)/aug-cc-pvtz\\Title\\0,3\C\\Version=ES64L-G16RevB.01\
 HF=-37.6868367\MP2=-37.7594132\MP3=-37.7747292\PUHF=-37.6868367\PMP2-0
 =-37.7594132\MP4SDQ=-37.7780695\CCSD=-37.7794799\CCSD(T)=-37.7817591\R
 MSD=3.100e-09\PG=OH [O(C1)]\\@


 The hours that make us happy make us wise.
                         -- John Masefield
 Job cpu time:       0 days  0 hours  6 minutes 43.0 seconds.
 Elapsed time:       0 days  0 hours  0 minutes 59.4 seconds.
 File lengths (MBytes):  RWF=     20 Int=      0 D2E=      0 Chk=      2 Scr=      1
 Normal termination of Gaussian 16 at Mon Oct  5 21:21:02 2020.
