$hessian                                                                        
        0.4853964502  -0.0017414911  -0.0711534409  -0.3692716461   0.0002137382
        0.0971247092  -0.0578836998   0.0255097324  -0.0124586008  -0.0582411043
       -0.0239819795  -0.0135126674
       -0.0017414911   0.0215204730   0.0005603728   0.0010376071  -0.0286940793
       -0.0006438035   0.0138052624   0.0035916406  -0.0032473773  -0.0131013785
        0.0035819658   0.0033308080
       -0.0711534409   0.0005603728   0.0172476445   0.0676033381  -0.0004418868
       -0.0263261606   0.0020207341  -0.0088942621   0.0042782328   0.0015293687
        0.0087757761   0.0048002833
       -0.3692716461   0.0010376071   0.0676033381   0.7281375123  -0.0038590145
       -0.0448330153  -0.1785058364   0.1106347023  -0.0089017193  -0.1803600298
       -0.1078132948  -0.0138686035
        0.0002137382  -0.0286940793  -0.0004418868  -0.0038590145   0.0613811309
        0.0004265613   0.0047949354  -0.0180138182   0.0069966247  -0.0011496591
       -0.0146732334  -0.0069812992
        0.0971247092  -0.0006438035  -0.0263261606  -0.0448330153   0.0004265613
        0.0475520466  -0.0258523192   0.0317150597  -0.0097705887  -0.0264393747
       -0.0314978175  -0.0114552973
       -0.0578836998   0.0138052624   0.0020207341  -0.1785058364   0.0047949354
       -0.0258523192   0.1450607333  -0.0728887436   0.0108233779   0.0913288029
        0.0542885457   0.0130082072
        0.0255097324   0.0035916406  -0.0088942621   0.1106347023  -0.0180138182
        0.0317150597  -0.0728887436   0.5130920972  -0.0019670618  -0.0632556911
       -0.4986699196  -0.0208537358
       -0.0124586008  -0.0032473773   0.0042782328  -0.0089017193   0.0069966247
       -0.0097705887   0.0108233779  -0.0019670618   0.0035129681   0.0105369423
       -0.0017821856   0.0019793878
       -0.0582411043  -0.0131013785   0.0015293687  -0.1803600298  -0.0011496591
       -0.0264393747   0.0913288029  -0.0632556911   0.0105369423   0.1472723312
        0.0775067286   0.0143730638
       -0.0239819795   0.0035819658   0.0087757761  -0.1078132948  -0.0146732334
       -0.0314978175   0.0542885457  -0.4986699196  -0.0017821856   0.0775067286
        0.5097611872   0.0245042271
       -0.0135126674   0.0033308080   0.0048002833  -0.0138686035  -0.0069812992
       -0.0114552973   0.0130082072  -0.0208537358   0.0019793878   0.0143730638
        0.0245042271   0.0046756263
