 Entering Gaussian System
 *********************************************
 Gaussian 98:
 frequency output generated by the xtb code
 *********************************************
                         Standard orientation:
 --------------------------------------------------------------------
  Center     Atomic     Atomic              Coordinates (Angstroms)
  Number     Number      Type              X           Y           Z
 --------------------------------------------------------------------
    1          6             0        1.561389   -0.010230   -0.039428
    2          7             0        0.300815   -0.004752    0.116554
    3          6             0       -0.926267    0.686609   -0.023349
    4          6             0       -0.935935   -0.671626   -0.053777
 --------------------------------------------------------------------
     1 basis functions        1 primitive gaussians
     1 alpha electrons        1 beta electrons

 Harmonic frequencies (cm**-1), IR intensities (KM/Mole),
 Raman scattering activities (A**4/amu), Raman depolarization ratios,
 reduced masses (AMU), force constants (mDyne/A) and normal coordinates:
                      1                      2                      3
                        a                      a                      a 
 Frequencies --   256.0147               382.8317               410.6712
 Red. masses --    13.3319                12.0149                13.3771
 Frc consts  --     0.0000                 0.0000                 0.0000
 IR Inten    --     0.8632                 0.8614                 1.0101
 Raman Activ --     0.0000                 0.0000                 0.0000
 Depolar     --     0.0000                 0.0000                 0.0000
 Atom AN      X      Y      Z        X      Y      Z        X      Y      Z
   1   6     0.20  -0.01   0.43    -0.00  -0.32  -0.01     0.00   0.43   0.01
   2   7    -0.03   0.01  -0.81    -0.00  -0.05  -0.00    -0.01  -0.83  -0.01
   3   6    -0.08   0.02   0.22    -0.64   0.19  -0.00    -0.01   0.23  -0.10
   4   6    -0.08  -0.02   0.22     0.64   0.18   0.01     0.02   0.23   0.11
                      4                      5                      6
                        a                      a                      a 
 Frequencies --   922.6660              1392.5887              1572.4376
 Red. masses --    12.3025                12.7700                12.4611
 Frc consts  --     0.0000                 0.0000                 0.0000
 IR Inten    --     0.2365                 0.8036                 0.8678
 Raman Activ --     0.0000                 0.0000                 0.0000
 Depolar     --     0.0000                 0.0000                 0.0000
 Atom AN      X      Y      Z        X      Y      Z        X      Y      Z
   1   6    -0.57   0.00   0.06    -0.61   0.00   0.10     0.18  -0.00  -0.03
   2   7    -0.35   0.01  -0.15     0.61  -0.00  -0.12    -0.47   0.00  -0.01
   3   6     0.48   0.19   0.06    -0.03  -0.35   0.00     0.16  -0.59   0.00
   4   6     0.47  -0.20   0.05    -0.02   0.35   0.02     0.17   0.58   0.03
