      -----------------------------------------------------------      
     |                   =====================                   |     
     |                           x T B                           |     
     |                   =====================                   |     
     |                         S. Grimme                         |     
     |          Mulliken Center for Theoretical Chemistry        |     
     |                    University of Bonn                     |     
      -----------------------------------------------------------      

   * xtb version 6.2.2 (9d81278992624c895f80dd42a50cac0aa55982e2) compiled by '@Darwin' on 04/03/2020

   xtb is free software: you can redistribute it and/or modify it under
   the terms of the GNU Lesser General Public License as published by
   the Free Software Foundation, either version 3 of the License, or
   (at your option) any later version.
   
   xtb is distributed in the hope that it will be useful,
   but WITHOUT ANY WARRANTY; without even the implied warranty of
   MERCHANTABILITY or FITNESS FOR A PARTICULAR PURPOSE.  See the
   GNU Lesser General Public License for more details.
   
   Cite this work as:
   * S. Grimme, C. Bannwarth, P. Shushkov, J. Chem. Theory Comput., 2017,
     13, 1989-2009. DOI: 10.1021/acs.jctc.7b00118
   * C. Bannwarth, S. Ehlert and S. Grimme., J. Chem. Theory Comput., 2019,
     15, 1652-1671. DOI: 10.1021/acs.jctc.8b01176
   * P. Pracht, E. Caldeweyher, S. Ehlert, S. Grimme, ChemRxiv, 2019, preprint.
     DOI: 10.26434/chemrxiv.8326202.v1
   
   for DFT-D4:
   * E. Caldeweyher, C. Bannwarth and S. Grimme, J. Chem. Phys., 2017,
     147, 034112. DOI: 10.1063/1.4993215
   * E. Caldeweyher, S. Ehlert, A. Hansen, H. Neugebauer, S. Spicher,
     C. Bannwarth and S. Grimme, J. Chem. Phys., 2019, 150, 154122.
     DOI: 10.1063/1.5090222
   
   for sTDA-xTB:
   * S. Grimme and C. Bannwarth, J. Chem. Phys., 2016, 145, 054103.
     DOI: 10.1063/1.4959605
   
   in the mass-spec context:
   * V. Asgeirsson, C. Bauer and S. Grimme, Chem. Sci., 2017, 8, 4879.
     DOI: 10.1039/c7sc00601b
   
   for metadynamics refer to:
   * S. Grimme, J. Chem. Theory Comput., 2019, 155, 2847-2862
     DOI: 10.1021/acs.jctc.9b00143
   
   with help from (in alphabetical order)
   C. Bannwarth, F. Bohle, G. Brandenburg, E. Caldeweyher, M. Checinski,
   S. Dohm, S. Ehlert, S. Ehrlich, F. März, H. Neugebauer, J. Pisarek,
   P. Pracht, P. Shushkov, and S. Spicher.
   
 * started run on 2020/05/12 at 11:45:05.468     

           -------------------------------------------------
          |                Calculation Setup                |
           -------------------------------------------------

          program call               : xtb --input C3N1_5_S_3.input C3N1_5_S_3.xyz --ohess --molden --namespace C3N1_5_S_3 output.out
          calculation namespace      : C3N1_5_S_3
          coordinate file            : C3N1_5_S_3.xyz
          number of atoms            :                     4
          number of electrons        :                    17
          charge                     :                     0
          spin                       :                   1.5
          first test random number   :      0.20971299511847

   ID    Z sym.   atoms
    1    6 C      1, 3, 4
    2    7 N      2

           -------------------------------------------------
          |                 G F N 2 - x T B                 |
           -------------------------------------------------

        Reference                      10.1021/acs.jctc.8b01176
      * Hamiltonian:
        H0-scaling (s, p, d)           1.850000    2.230000    2.230000
        zeta-weighting                 0.500000
      * Dispersion:
        s8                             2.700000
        a1                             0.520000
        a2                             5.000000
        s9                             5.000000
      * Repulsion:
        kExp                           1.500000    1.000000
        rExp                           1.000000
      * Coulomb:
        alpha                          2.000000
        third order                    shell-resolved
        anisotropic                    true
        a3                             3.000000
        a5                             4.000000
        cn-shift                       1.200000
        cn-exp                         4.000000
        max-rad                        5.000000


          ...................................................
          :                      SETUP                      :
          :.................................................:
          :  # basis functions                  16          :
          :  # atomic orbitals                  16          :
          :  # shells                            8          :
          :  # electrons                        17          :
          :  max. iterations                   250          :
          :  Hamiltonian                  GFN2-xTB          :
          :  restarted?                      false          :
          :  GBSA solvation                  false          :
          :  PC potential                    false          :
          :  electronic temp.          300.0000000     K    :
          :  accuracy                    1.0000000          :
          :  -> integral cutoff          0.2500000E+02      :
          :  -> integral neglect         0.1000000E-07      :
          :  -> SCF convergence          0.1000000E-05 Eh   :
          :  -> wf. convergence          0.1000000E-03 e    :
          :  Broyden damping             0.4000000          :
          ...................................................

 iter      E             dE          RMSdq      gap      omega  full diag
   1     -8.8457967 -0.884580E+01  0.915E+00    0.32       0.0  T
   2     -8.8525668 -0.677013E-02  0.640E+00    0.12       1.0  T
   3     -8.7270816  0.125485E+00  0.483E+00    0.45       1.0  T
   4     -8.4387401  0.288341E+00  0.805E+00    0.19       1.0  T
   5     -8.8709891 -0.432249E+00  0.935E-01    0.14       1.0  T
   6     -8.8711896 -0.200538E-03  0.442E-01    0.14       1.0  T
   7     -8.8710186  0.171088E-03  0.221E-01    0.14       1.0  T
   8     -8.8711728 -0.154267E-03  0.922E-02    0.14       1.0  T
   9     -8.8712083 -0.354725E-04  0.334E-02    0.14       1.5  T
  10     -8.8712080  0.283791E-06  0.262E-02    0.14       1.9  T
  11     -8.8712093 -0.128790E-05  0.116E-02    0.14       4.3  T
  12     -8.8712097 -0.444012E-06  0.789E-03    0.14       6.3  T
  13     -8.8712101 -0.306367E-06  0.324E-03    0.14      15.4  T
  14     -8.8712101 -0.453763E-07  0.101E-03    0.14      49.6  T
  15     -8.8712101 -0.427654E-08  0.171E-04    0.14     292.4  T
  16     -8.8712101 -0.770157E-10  0.252E-05    0.14    1981.5  T

   *** convergence criteria satisfied after 16 iterations ***

         #    Occupation            Energy/Eh            Energy/eV
      -------------------------------------------------------------
         1        2.0000           -0.7541637             -20.5218
       ...           ...                  ...                  ...
         4        2.0000           -0.6033879             -16.4190
         5        2.0000           -0.5415109             -14.7353
         6        2.0000           -0.5210943             -14.1797
         7        2.0000           -0.4955505             -13.4846
         8        1.0000           -0.4550809             -12.3834
         9        1.0000           -0.4215869             -11.4720
        10        0.9323           -0.3896592             -10.6032 (HOMO)
        11        0.0677           -0.3846756             -10.4676 (LUMO)
        12                         -0.3266596              -8.8889
        13                         -0.1471964              -4.0054
        14                         -0.0063557              -0.1729
        15                          0.0415179               1.1298
        16                          0.1895991               5.1593
      -------------------------------------------------------------
                  HL-Gap            0.0049836 Eh            0.1356 eV
             Fermi-level           -0.4312416 Eh          -11.7347 eV

 SCC (total)                   0 d,  0 h,  0 min,  0.004 sec
 SCC setup                      ...        0 min,  0.000 sec (  2.144%)
 Dispersion                     ...        0 min,  0.000 sec (  0.305%)
 integral evaluation            ...        0 min,  0.001 sec ( 31.714%)
 zeroth order Hamiltonian       ...        0 min,  0.000 sec (  0.460%)
 iterations                     ...        0 min,  0.001 sec ( 37.745%)
 molecular gradient             ...        0 min,  0.001 sec ( 25.079%)
 printout                       ...        0 min,  0.000 sec (  2.281%)

         :::::::::::::::::::::::::::::::::::::::::::::::::::::
         ::                     SUMMARY                     ::
         :::::::::::::::::::::::::::::::::::::::::::::::::::::
         :: total energy              -8.818587055792 Eh    ::
         :: gradient norm              0.170397553291 Eh/a0 ::
         :: HOMO-LUMO gap              0.135609898400 eV    ::
         ::.................................................::
         :: SCC energy                -8.871210102818 Eh    ::
         :: -> isotropic ES           -0.022782359892 Eh    ::
         :: -> anisotropic ES          0.001200688157 Eh    ::
         :: -> anisotropic XC          0.004551089727 Eh    ::
         :: -> dispersion             -0.001862335706 Eh    ::
         :: repulsion energy           0.052623031597 Eh    ::
         :: add. restraining           0.000000000000 Eh    ::
         :::::::::::::::::::::::::::::::::::::::::::::::::::::

      ----------------------------------------------------------- 
     |                   =====================                   |
     |                        A N C O P T                        |
     |                   =====================                   |
     |               Approximate Normal Coordinate               |
     |                Rational Function Optimizer                |
      ----------------------------------------------------------- 

          ...................................................
          :                      SETUP                      :
          :.................................................:
          :   optimization level            normal          :
          :   max. optcycles                   200          :
          :   ANC micro-cycles                  20          :
          :   degrees of freedom                 6          :
          :.................................................:
          :   RF solver                   davidson          :
          :   write xtbopt.log                true          :
          :   linear?                        false          :
          :   energy convergence         0.5000000E-05 Eh   :
          :   grad. convergence          0.1000000E-02 Eh/α :
          :   maximium RF displ.         1.0000000          :
          :   Hlow (freq-cutoff)         0.1000000E-01      :
          :   Hmax (freq-cutoff)         5.0000000          :
          :   S6 in model hess.         20.0000000          :
          ...................................................

generating ANC from model Hessian ...
Using Lindh-Hessian (1995)
 Shifting diagonal of input Hessian by    0.0000000000000000     
 Lowest  eigenvalues of input Hessian
   -0.000000   -0.000000   -0.000000    0.000000    0.000000    0.000000
    0.079832    0.149698    0.782846    0.816677    1.032097    1.465950
 Highest eigenvalues
    0.079832    0.149698    0.782846    0.816677    1.032097    1.465950


........................................................................
.............................. CYCLE    1 ..............................
........................................................................
   1     -8.8712101 -0.887121E+01  0.168E-05    0.14       0.0  T
   2     -8.8712101  0.364686E-11  0.284E-05    0.14    1760.6  T
   3     -8.8712101 -0.477662E-11  0.611E-06    0.14    8182.7  T
     SCC iter.                  ...        0 min,  0.000 sec
     gradient                   ...        0 min,  0.001 sec
 * total energy  :    -8.8185871 Eh     change        0.1510809E-09 Eh
   gradient norm :     0.1703978 Eh/α   predicted     0.0000000E+00 (-100.00%)
   displ. norm   :     0.1796409 α      lambda       -0.2777001E-01
   maximum displ.:     0.1515098 α      in ANC's #5, #2, #6, ...

........................................................................
.............................. CYCLE    2 ..............................
........................................................................
   1     -8.9130463 -0.891305E+01  0.181E+00    0.14       0.0  T
   2     -8.8930874  0.199589E-01  0.201E+00    0.20       1.0  T
   3     -8.9148140 -0.217266E-01  0.126E+00    0.10       1.0  T
   4     -8.9199413 -0.512724E-02  0.475E-01    0.14       1.0  T
   5     -8.9202862 -0.344972E-03  0.136E-01    0.14       1.0  T
   6     -8.9202919 -0.563205E-05  0.419E-02    0.13       1.2  T
   7     -8.9202964 -0.450805E-05  0.159E-02    0.13       3.1  T
   8     -8.9202960  0.353411E-06  0.120E-02    0.13       4.2  T
   9     -8.9202965 -0.440319E-06  0.539E-03    0.13       9.3  T
  10     -8.9202966 -0.131355E-06  0.639E-04    0.13      78.2  T
  11     -8.9202966  0.974154E-11  0.432E-04    0.13     115.7  T
     SCC iter.                  ...        0 min,  0.001 sec
     gradient                   ...        0 min,  0.001 sec
 * total energy  :    -8.8423287 Eh     change       -0.2374164E-01 Eh
   gradient norm :     0.1057622 Eh/α   predicted    -0.1433309E-01 ( -39.63%)
   displ. norm   :     0.5482940 α      lambda       -0.4733375E-01
   maximum displ.:     0.4379682 α      in ANC's #2, #5, #3, ...

........................................................................
.............................. CYCLE    3 ..............................
........................................................................
   1     -9.0080302 -0.900803E+01  0.347E+00    0.75       0.0  T
   2     -8.9750852  0.329449E-01  0.310E+00    0.72       1.0  T
   3     -8.9885410 -0.134558E-01  0.245E+00    0.65       1.0  T
   4     -9.0184356 -0.298946E-01  0.544E-01    0.71       1.0  T
   5     -9.0196159 -0.118029E-02  0.179E-01    0.68       1.0  T
   6     -9.0196472 -0.312481E-04  0.510E-02    0.67       1.0  T
   7     -9.0196475 -0.358793E-06  0.136E-02    0.67       3.7  T
   8     -9.0196477 -0.196684E-06  0.562E-03    0.67       8.9  T
   9     -9.0196478 -0.977574E-07  0.199E-03    0.67      25.1  T
  10     -9.0196478 -0.166619E-07  0.887E-04    0.67      56.4  T
  11     -9.0196478 -0.249479E-08  0.127E-04    0.67     393.2  T
     SCC iter.                  ...        0 min,  0.001 sec
     gradient                   ...        0 min,  0.001 sec
 * total energy  :    -8.8578642 Eh     change       -0.1553546E-01 Eh
   gradient norm :     0.1813036 Eh/α   predicted    -0.3078177E-01 (  98.14%)
   displ. norm   :     0.1375341 α      lambda       -0.2194355E-01
   maximum displ.:     0.0894430 α      in ANC's #2, #5, #3, ...

........................................................................
.............................. CYCLE    4 ..............................
........................................................................
   1     -8.9868749 -0.898687E+01  0.125E+00    0.83       0.0  T
   2     -8.9826235  0.425144E-02  0.103E+00    0.88       1.0  T
   3     -8.9832017 -0.578162E-03  0.998E-01    0.86       1.0  T
   4     -8.9884579 -0.525625E-02  0.214E-01    0.85       1.0  T
   5     -8.9884982 -0.403110E-04  0.660E-02    0.86       1.0  T
   6     -8.9885027 -0.451541E-05  0.156E-02    0.86       3.2  T
   7     -8.9885034 -0.637196E-06  0.374E-03    0.86      13.4  T
   8     -8.9885034  0.780123E-08  0.123E-03    0.86      40.5  T
   9     -8.9885034 -0.755260E-08  0.543E-04    0.86      92.1  T
  10     -8.9885034 -0.155688E-08  0.134E-04    0.86     373.1  T
     SCC iter.                  ...        0 min,  0.001 sec
     gradient                   ...        0 min,  0.001 sec
 * total energy  :    -8.8708420 Eh     change       -0.1297780E-01 Eh
   gradient norm :     0.0535317 Eh/α   predicted    -0.1117932E-01 ( -13.86%)
   displ. norm   :     0.1818728 α      lambda       -0.6514878E-02
   maximum displ.:     0.1458450 α      in ANC's #2, #3, #5, ...

........................................................................
.............................. CYCLE    5 ..............................
........................................................................
   1     -8.9830761 -0.898308E+01  0.111E+00    1.14       0.0  T
   2     -8.9779478  0.512830E-02  0.984E-01    0.73       1.0  T
   3     -8.9812145 -0.326672E-02  0.839E-01    1.22       1.0  T
   4     -8.9845664 -0.335193E-02  0.106E-01    1.02       1.0  T
   5     -8.9845834 -0.169512E-04  0.746E-02    1.01       1.0  T
   6     -8.9846001 -0.167014E-04  0.639E-03    1.00       7.8  T
   7     -8.9846001 -0.421114E-07  0.363E-03    1.00      13.8  T
   8     -8.9846001  0.104926E-07  0.170E-03    1.00      29.5  T
   9     -8.9846001 -0.173065E-07  0.429E-04    1.00     116.5  T
  10     -8.9846001 -0.470600E-09  0.184E-04    1.00     271.5  T
     SCC iter.                  ...        0 min,  0.001 sec
     gradient                   ...        0 min,  0.001 sec
 * total energy  :    -8.8753510 Eh     change       -0.4508998E-02 Eh
   gradient norm :     0.0327649 Eh/α   predicted    -0.3365188E-02 ( -25.37%)
   displ. norm   :     0.1226337 α      lambda       -0.2944379E-02
   maximum displ.:     0.0986068 α      in ANC's #3, #2, #6, ...

........................................................................
.............................. CYCLE    6 ..............................
........................................................................
   1     -8.9836933 -0.898369E+01  0.952E-01    0.90       0.0  T
   2     -8.9799346  0.375867E-02  0.872E-01    0.51       1.0  T
   3     -8.9832936 -0.335905E-02  0.644E-01    0.93       1.0  T
   4     -8.9850647 -0.177108E-02  0.113E-01    0.77       1.0  T
   5     -8.9850755 -0.107869E-04  0.569E-02    0.77       1.0  T
   6     -8.9850844 -0.889318E-05  0.900E-03    0.76       5.6  T
   7     -8.9850847 -0.271709E-06  0.233E-03    0.76      21.5  T
   8     -8.9850846  0.135979E-07  0.157E-03    0.76      31.9  T
   9     -8.9850847 -0.146745E-07  0.392E-04    0.76     127.7  T
  10     -8.9850847 -0.336609E-09  0.282E-05    0.76    1770.1  T
     SCC iter.                  ...        0 min,  0.001 sec
     gradient                   ...        0 min,  0.001 sec
 * total energy  :    -8.8772318 Eh     change       -0.1880881E-02 Eh
   gradient norm :     0.0217016 Eh/α   predicted    -0.1494330E-02 ( -20.55%)
   displ. norm   :     0.0818366 α      lambda       -0.7837008E-03
   maximum displ.:     0.0553001 α      in ANC's #2, #3, #6, ...

........................................................................
.............................. CYCLE    7 ..............................
........................................................................
   1     -8.9865809 -0.898658E+01  0.530E-01    0.78       0.0  T
   2     -8.9857327  0.848189E-03  0.434E-01    0.56       1.0  T
   3     -8.9865099 -0.777174E-03  0.352E-01    0.79       1.0  T
   4     -8.9870021 -0.492147E-03  0.434E-02    0.70       1.2  T
   5     -8.9870041 -0.199387E-05  0.258E-02    0.70       1.9  T
   6     -8.9870053 -0.120688E-05  0.565E-03    0.69       8.9  T
   7     -8.9870054 -0.110239E-06  0.136E-03    0.69      36.8  T
   8     -8.9870054  0.232955E-08  0.707E-04    0.69      70.7  T
   9     -8.9870054 -0.304403E-08  0.121E-04    0.69     413.5  T
     SCC iter.                  ...        0 min,  0.001 sec
     gradient                   ...        0 min,  0.001 sec
 * total energy  :    -8.8777437 Eh     change       -0.5118877E-03 Eh
   gradient norm :     0.0117342 Eh/α   predicted    -0.3944728E-03 ( -22.94%)
   displ. norm   :     0.0371213 α      lambda       -0.2165758E-03
   maximum displ.:     0.0251052 α      in ANC's #3, #5, #2, ...

........................................................................
.............................. CYCLE    8 ..............................
........................................................................
   1     -8.9898709 -0.898987E+01  0.256E-01    0.70       0.0  T
   2     -8.9896991  0.171791E-03  0.208E-01    0.59       1.0  T
   3     -8.9899008 -0.201695E-03  0.155E-01    0.70       1.0  T
   4     -8.9899927 -0.919303E-04  0.304E-02    0.66       1.6  T
   5     -8.9899933 -0.657857E-06  0.899E-03    0.66       5.6  T
   6     -8.9899935 -0.148803E-06  0.775E-04    0.66      64.6  T
   7     -8.9899935  0.503757E-10  0.444E-04    0.66     112.7  T
     SCC iter.                  ...        0 min,  0.001 sec
     gradient                   ...        0 min,  0.001 sec
 * total energy  :    -8.8778698 Eh     change       -0.1261105E-03 Eh
   gradient norm :     0.0030757 Eh/α   predicted    -0.1084379E-03 ( -14.01%)
   displ. norm   :     0.0200934 α      lambda       -0.2752855E-04
   maximum displ.:     0.0158301 α      in ANC's #2, #5, #3, ...

........................................................................
.............................. CYCLE    9 ..............................
........................................................................
   1     -8.9904102 -0.899041E+01  0.121E-01    0.67       0.0  T
   2     -8.9903924  0.178266E-04  0.759E-02    0.63       1.0  T
   3     -8.9903877  0.474023E-05  0.882E-02    0.68       1.0  T
   4     -8.9904230 -0.352882E-04  0.114E-02    0.66       4.4  T
   5     -8.9904232 -0.216563E-06  0.547E-03    0.66       9.1  T
   6     -8.9904230  0.152621E-06  0.630E-03    0.66       7.9  T
   7     -8.9904232 -0.229012E-06  0.384E-04    0.66     130.3  T
   8     -8.9904232 -0.365448E-09  0.136E-04    0.66     366.9  T
     SCC iter.                  ...        0 min,  0.001 sec
     gradient                   ...        0 min,  0.001 sec
 * total energy  :    -8.8778829 Eh     change       -0.1301365E-04 Eh
   gradient norm :     0.0010044 Eh/α   predicted    -0.1376879E-04 (   5.80%)
   displ. norm   :     0.0031617 α      lambda       -0.1577256E-05
   maximum displ.:     0.0029135 α      in ANC's #3, #5, #2, ...

........................................................................
.............................. CYCLE   10 ..............................
........................................................................
   1     -8.9905914 -0.899059E+01  0.282E-02    0.65       0.0  T
   2     -8.9905907  0.707464E-06  0.180E-02    0.64       2.8  T
   3     -8.9905913 -0.577496E-06  0.167E-02    0.65       3.0  T
   4     -8.9905925 -0.127387E-05  0.400E-03    0.65      12.5  T
   5     -8.9905926 -0.106348E-07  0.674E-04    0.65      74.2  T
   6     -8.9905926 -0.806942E-09  0.118E-04    0.65     424.6  T
     SCC iter.                  ...        0 min,  0.000 sec
     gradient                   ...        0 min,  0.001 sec
 * total energy  :    -8.8778836 Eh     change       -0.6967509E-06 Eh
   gradient norm :     0.0004520 Eh/α   predicted    -0.7890619E-06 (  13.25%)
   displ. norm   :     0.0010905 α      lambda       -0.2644415E-06
   maximum displ.:     0.0010612 α      in ANC's #2, #3, #5, ...

   *** GEOMETRY OPTIMIZATION CONVERGED AFTER 10 ITERATIONS ***

------------------------------------------------------------------------
 total energy gain   :        -0.0592965 Eh      -37.2091 kcal/mol
 total RMSD          :         0.5627564 a0        0.2978 Å
 total power (kW/mol):       -15.5682929 (step)-5888.4458 (real)
------------------------------------------------------------------------

 ANCopt (total)                0 d,  0 h,  0 min,  0.026 sec
 optimizer setup                ...        0 min,  0.000 sec (  0.246%)
 model hessian                  ...        0 min,  0.000 sec (  0.280%)
 ANC generation                 ...        0 min,  0.000 sec (  0.163%)
 coordinate transformation      ...        0 min,  0.000 sec (  0.086%)
 single point calculation       ...        0 min,  0.025 sec ( 96.250%)
 optimization log               ...        0 min,  0.000 sec (  0.823%)
 hessian update                 ...        0 min,  0.000 sec (  0.071%)
 rational function              ...        0 min,  0.000 sec (  0.862%)

================
 final structure:
================
4
 xtb: 6.2.2 (9d81278992624c895f80dd42a50cac0aa55982e2)
C         1.56138904666453   -0.01022218950377   -0.03942241670736
N         0.30081430464103   -0.00475104339226    0.11655509429026
C        -0.92627090373467    0.68660374518889   -0.02335115307133
C        -0.93593144757089   -0.67163051229285   -0.05378152451157

 Bond Distances (Angstroems)
 ---------------------------
C1-N2=1.2702         N2-C1=1.2702         N2-C3=1.4154         N2-C4=1.4154         C3-N2=1.4154         C3-C4=1.3586         
C4-N2=1.4154         C4-C3=1.3586         
 C  C  Rav=1.3586 sigma=0.0000  Rmin=1.3586  Rmax=1.3586     1
 N  C  Rav=1.3670 sigma=0.0684  Rmin=1.2702  Rmax=1.4154     3

 selected bond angles (degree)
 --------------------
C3-N2-C1=148.25                C4-N2-C1=148.25                C4-N2-C3= 57.36                C4-C3-N2= 61.32                
C3-C4-N2= 61.32                

 selected dihedral angles (degree)
 ---------------------------------
C4-C3-N2-C1=152.14            C3-C4-N2-C1=207.86            
           -------------------------------------------------
          |                Final Singlepoint                |
           -------------------------------------------------

          ...................................................
          :                      SETUP                      :
          :.................................................:
          :  # basis functions                  16          :
          :  # atomic orbitals                  16          :
          :  # shells                            8          :
          :  # electrons                        17          :
          :  max. iterations                   250          :
          :  Hamiltonian                  GFN2-xTB          :
          :  restarted?                      false          :
          :  GBSA solvation                  false          :
          :  PC potential                    false          :
          :  electronic temp.          300.0000000     K    :
          :  accuracy                    1.0000000          :
          :  -> integral cutoff          0.2500000E+02      :
          :  -> integral neglect         0.1000000E-07      :
          :  -> SCF convergence          0.1000000E-05 Eh   :
          :  -> wf. convergence          0.1000000E-03 e    :
          :  Broyden damping             0.4000000          :
          ...................................................

 iter      E             dE          RMSdq      gap      omega  full diag
   1     -8.9905926 -0.899059E+01  0.140E-04    0.65       0.0  T
   2     -8.9905926  0.450864E-09  0.300E-04    0.65     166.6  T
   3     -8.9905926 -0.568471E-09  0.210E-05    0.65    2378.8  T

   *** convergence criteria satisfied after 3 iterations ***

         #    Occupation            Energy/Eh            Energy/eV
      -------------------------------------------------------------
         1        2.0000           -0.7588192             -20.6485
       ...           ...                  ...                  ...
         4        2.0000           -0.5990553             -16.3011
         5        2.0000           -0.5812416             -15.8164
         6        2.0000           -0.4949971             -13.4696
         7        2.0000           -0.4679974             -12.7349
         8        1.0000           -0.4451710             -12.1137
         9        1.0000           -0.4396926             -11.9646
        10        1.0000           -0.3352619              -9.1229 (HOMO)
        11        0.0000           -0.3114002              -8.4736 (LUMO)
        12                         -0.2696436              -7.3374
        13                         -0.0717608              -1.9527
        14                         -0.0187134              -0.5092
        15                          0.3982327              10.8365
        16                          0.5562412              15.1361
      -------------------------------------------------------------
                  HL-Gap            0.0238617 Eh            0.6493 eV
             Fermi-level           -0.3899584 Eh          -10.6113 eV

 SCC (total)                   0 d,  0 h,  0 min,  0.002 sec
 SCC setup                      ...        0 min,  0.000 sec (  2.491%)
 Dispersion                     ...        0 min,  0.000 sec (  0.332%)
 integral evaluation            ...        0 min,  0.001 sec ( 38.216%)
 zeroth order Hamiltonian       ...        0 min,  0.000 sec (  0.553%)
 iterations                     ...        0 min,  0.000 sec ( 19.088%)
 molecular gradient             ...        0 min,  0.001 sec ( 36.920%)
 printout                       ...        0 min,  0.000 sec (  1.939%)

         :::::::::::::::::::::::::::::::::::::::::::::::::::::
         ::                     SUMMARY                     ::
         :::::::::::::::::::::::::::::::::::::::::::::::::::::
         :: total energy              -8.877883551753 Eh    ::
         :: gradient norm              0.000454872338 Eh/a0 ::
         :: HOMO-LUMO gap              0.649308618584 eV    ::
         ::.................................................::
         :: SCC energy                -8.990592557593 Eh    ::
         :: -> isotropic ES           -0.013503971454 Eh    ::
         :: -> anisotropic ES          0.001885805325 Eh    ::
         :: -> anisotropic XC          0.006851321829 Eh    ::
         :: -> dispersion             -0.001850962739 Eh    ::
         :: repulsion energy           0.112708997817 Eh    ::
         :: add. restraining           0.000000000000 Eh    ::
         :::::::::::::::::::::::::::::::::::::::::::::::::::::

           ------------------------------------------------- 
          |                Numerical Hessian                |
           ------------------------------------------------- 
step length          :   0.00500
SCC accuracy         :   0.30000
Hessian scale factor :   1.00000
frozen atoms in %    :   0.00000    0
RMS gradient         :   0.00045
estimated CPU  time      0.00 min
estimated wall time      0.00 min

writing file <hessian>.

 projected vibrational frequencies (cm-1)
eigval :       -0.00    -0.00     0.00     0.00     0.00     0.00
eigval :      256.01   382.83   410.67   922.67  1392.59  1572.44
           -------------------------------------------------
          |                Property Printout                |
           -------------------------------------------------

    * Orbital Energies and Occupations

         #    Occupation            Energy/Eh            Energy/eV
      -------------------------------------------------------------
         1        2.0000           -0.7588194             -20.6485
         2        2.0000           -0.6959115             -18.9367
         3        2.0000           -0.6262534             -17.0412
         4        2.0000           -0.5990553             -16.3011
         5        2.0000           -0.5812417             -15.8164
         6        2.0000           -0.4949972             -13.4696
         7        2.0000           -0.4679971             -12.7348
         8        1.0000           -0.4451712             -12.1137
         9        1.0000           -0.4396926             -11.9646
        10        1.0000           -0.3352616              -9.1229 (HOMO)
        11        0.0000           -0.3114005              -8.4736 (LUMO)
        12                         -0.2696434              -7.3374
        13                         -0.0717609              -1.9527
        14                         -0.0187134              -0.5092
        15                          0.3982325              10.8365
        16                          0.5562414              15.1361
      -------------------------------------------------------------
                  HL-Gap            0.0238612 Eh            0.6493 eV
             Fermi-level           -0.3899583 Eh          -10.6113 eV

     #   Z        covCN         q      C6AA      α(0)
     1   6 C      0.912    -0.171    41.035    10.721
     2   7 N      2.728     0.162    18.519     6.391
     3   6 C      1.890     0.004    31.007     8.993
     4   6 C      1.890     0.004    31.007     8.993

 Mol. C6AA /au·bohr⁶  :        476.261812
 Mol. C8AA /au·bohr⁸  :      13097.772328
 Mol. α(0) /au        :         35.099483
Molecule has the following symmetry elements: (sigma) 
It seems to be the Cs point group


Wiberg/Mayer (AO) data.
largest (>0.10) Wiberg bond orders for each atom
          total WBO             WBO to atom ...
     1  C   1.695        N    2 1.562
     2  N   3.552        C    1 1.562    C    4 0.995    C    3 0.995
     3  C   2.486        C    4 1.425    N    2 0.995
     4  C   2.486        C    3 1.425    N    2 0.995

MOs/occ written to file <molden.input>


molecular dipole:
                 x           y           z       tot (Debye)
 q only:       -0.428       0.002       0.048
   full:       -0.402      -0.001       0.171       1.110
molecular quadrupole (traceless):
                xx          xy          yy          xz          yz          zz
 q only:       -1.419       0.013       0.715       0.089      -0.000       0.704
  q+dip:       -4.737       0.044       2.480       0.322       0.003       2.257
   full:       -5.879       0.046       1.542       0.310      -0.065       4.337

           -------------------------------------------------
          |                Geometry Summary                 |
           -------------------------------------------------

      molecular mass/u    :       50.0389109
   center of mass at/Å    :        0.0119992      -0.0001896       0.0046491
  moments of inertia/u·Å² :        0.1132122E+02   0.5161357E+02   0.6246199E+02
rotational constants/cm⁻¹ :        0.1489029E+01   0.3266124E+00   0.2698862E+00

 * 1 selected distances

     #   Z        #   Z                                     value/Å
     1   6 C      2   7 N                                 1.2701998 (max)

 * 1 distinct bonds (by element types)

   Z      Z             #   av. dist./Å        max./Å        min./Å
   6 C    7 N           1     1.2701998     1.2701998     1.2701998

           -------------------------------------------------
          |               Frequency Printout                |
           -------------------------------------------------
 projected vibrational frequencies (cm-1)
eigval :       -0.00    -0.00     0.00     0.00     0.00     0.00
eigval :      256.01   382.83   410.67   922.67  1392.59  1572.44
 reduced masses (amu)
   1: 12.12   2: 12.17   3: 12.47   4: 12.47   5: 12.43   6: 12.20   7: 13.33   8: 12.01
   9: 13.38  10: 12.30  11: 12.77  12: 12.46
 IR intensities (amu)
   1:  0.11   2:  0.07   3:  0.07   4:  0.06   5:  0.02   6:  0.11   7:  0.86   8:  0.86
   9:  1.01  10:  0.24  11:  0.80  12:  0.87
 Raman intensities (amu)
   1:  0.00   2:  0.00   3:  0.00   4:  0.00   5:  0.00   6:  0.00   7:  0.00   8:  0.00
   9:  0.00  10:  0.00  11:  0.00  12:  0.00
 output can be read by thermo (or use thermo option).
 writing <g98.out> molden fake output.
 recommended (thermochemical) frequency scaling factor: 1.0
           -------------------------------------------------
          |             Thermodynamic Functions             |
           -------------------------------------------------

cs  symmetry found (for desy threshold:  0.10E+00) used in thermo

          ...................................................
          :                      SETUP                      :
          :.................................................:
          :  # frequencies                           6      :
          :  # imaginary freq.                       0      :
          :  linear?                             false      :
          :  only rotor calc.                    false      :
          :  symmetry                               cs      :
          :  rotational number                       1      :
          :  scaling factor                  1.0000000      :
          :  rotor cutoff                   50.0000000 cm⁻¹ :
          :  imag. cutoff                  -20.0000000 cm⁻¹ :
          :.................................................:

    mode    ω/cm⁻¹     T·S(HO)/kcal·mol⁻¹    T·S(FR)/kcal·mol⁻¹   T·S(vib)
   ------------------------------------------------------------------------
       1    256.01    -0.00000 ( 99.85%)     0.01454 (  0.15%)     0.00002
   ------------------------------------------------------------------------

   temp. (K)  partition function   enthalpy   heat capacity  entropy
                                   cal/mol     cal/K/mol   cal/K/mol   J/K/mol
 298.15  VIB   1.97                  730.748      5.343      3.796
         ROT  0.146E+05              888.752      2.981     22.035
         INT  0.287E+05             1619.500      8.324     25.832
         TR   0.342E+27             1481.254      4.968     37.637
         TOT                        3100.7540    13.2920    63.4690   265.5545

   temp. (K)  partition function   enthalpy   heat capacity  entropy
                                   cal/mol     cal/K/mol   cal/K/mol   J/K/mol
 120.00  VIB   1.07                   55.519      1.749      0.593
         ROT  0.373E+04              357.707      2.981     19.323
         INT  0.398E+04              413.226      4.730     19.916
         TR   0.874E+26              596.178      4.968     33.118
         TOT                        1009.4036     9.6985    53.0335   221.8920

   temp. (K)  partition function   enthalpy   heat capacity  entropy
                                   cal/mol     cal/K/mol   cal/K/mol   J/K/mol
 100.00  VIB   1.03                   26.531      1.150      0.330
         ROT  0.283E+04              298.089      2.981     18.779
         INT  0.293E+04              324.620      4.130     19.109
         TR   0.665E+26              496.815      4.968     32.212
         TOT                         821.4351     9.0986    51.3219   214.7309

   temp. (K)  partition function   enthalpy   heat capacity  entropy
                                   cal/mol     cal/K/mol   cal/K/mol   J/K/mol
  80.00  VIB   1.01                    9.249      0.594      0.140
         ROT  0.203E+04              238.471      2.981     18.114
         INT  0.205E+04              247.721      3.575     18.254
         TR   0.476E+26              397.452      4.968     31.104
         TOT                         645.1727     8.5431    49.3579   206.5137

   temp. (K)  partition function   enthalpy   heat capacity  entropy
                                   cal/mol     cal/K/mol   cal/K/mol   J/K/mol
  60.00  VIB   1.00                    1.757      0.190      0.034
         ROT  0.132E+04              178.853      2.981     17.256
         INT  0.132E+04              180.610      3.171     17.291
         TR   0.309E+26              298.089      4.968     29.676
         TOT                         478.6995     8.1387    46.9664   196.5075

   temp. (K)  partition function   enthalpy   heat capacity  entropy
                                   cal/mol     cal/K/mol   cal/K/mol   J/K/mol
  40.00  VIB   1.00                    0.075      0.017      0.002
         ROT   717.                  119.236      2.981     16.048
         INT   717.                  119.311      2.998     16.049
         TR   0.168E+26              198.726      4.968     27.662
         TOT                         318.0365     7.9665    43.7118   182.8901

   temp. (K)  partition function   enthalpy   heat capacity  entropy
                                   cal/mol     cal/K/mol   cal/K/mol   J/K/mol
  20.00  VIB   1.00                    0.000      0.000     -0.002
         ROT   254.                   59.618      2.981     13.982
         INT   254.                   59.618      2.981     13.980
         TR   0.595E+25               99.363      4.968     24.220
         TOT                         158.9808     7.9490    38.2002   159.8296

   temp. (K)  partition function   enthalpy   heat capacity  entropy
                                   cal/mol     cal/K/mol   cal/K/mol   J/K/mol
  10.00  VIB   1.00                    0.000      0.000     -0.003
         ROT   89.6                   29.809      2.981     11.915
         INT   89.6                   29.809      2.981     11.912
         TR   0.210E+25               49.681      4.968     20.778
         TOT                          79.4904     7.9490    32.6906   136.7777

       T/K    H(0)-H(T)+PV         H(T)/Eh          T*S/Eh         G(T)/Eh
   ------------------------------------------------------------------------
    298.15    0.494137E-02    0.161892E-01    0.301562E-01   -0.139670E-01
    120.00    0.160859E-02    0.128564E-01    0.101417E-01    0.271467E-02
    100.00    0.130904E-02    0.125568E-01    0.817867E-02    0.437816E-02
     80.00    0.102815E-02    0.122759E-01    0.629255E-02    0.598339E-02
     60.00    0.762856E-03    0.120106E-01    0.449075E-02    0.751990E-02
     40.00    0.506823E-03    0.117546E-01    0.278637E-02    0.896825E-02
     20.00    0.253352E-03    0.115011E-01    0.121752E-02    0.102836E-01
     10.00    0.126676E-03    0.113745E-01    0.520959E-03    0.108535E-01 (used)
   ------------------------------------------------------------------------

         :::::::::::::::::::::::::::::::::::::::::::::::::::::
         ::                  THERMODYNAMIC                  ::
         :::::::::::::::::::::::::::::::::::::::::::::::::::::
         :: total free energy          -8.867030042771 Eh   ::
         ::.................................................::
         :: total energy               -8.877883551958 Eh   ::
         :: zero point energy           0.011247791820 Eh   ::
         :: G(RRHO) w/o ZPVE           -0.000394282632 Eh   ::
         :: G(RRHO) contrib.            0.010853509187 Eh   ::
         :::::::::::::::::::::::::::::::::::::::::::::::::::::

optimized geometry written to: xtbopt.xyz


           -------------------------------------------------
          | TOTAL ENERGY               -8.877883551958 Eh   |
          | TOTAL ENTHALPY             -8.866509084123 Eh   |
          | TOTAL FREE ENERGY          -8.867030042771 Eh   |
          | GRADIENT NORM               0.000454758185 Eh/α |
          | HOMO-LUMO GAP               0.649295210222 eV   |
           -------------------------------------------------

------------------------------------------------------------------------
 * finished run on 2020/05/12 at 11:45:05.578     
------------------------------------------------------------------------
 total:
 * wall-time:     0 d,  0 h,  0 min,  0.109 sec
 *  cpu-time:     0 d,  0 h,  0 min,  0.109 sec
 * ratio c/w:     0.999 speedup
 SCF:
 * wall-time:     0 d,  0 h,  0 min,  0.004 sec
 *  cpu-time:     0 d,  0 h,  0 min,  0.004 sec
 * ratio c/w:     1.000 speedup
 ANC optimizer:
 * wall-time:     0 d,  0 h,  0 min,  0.030 sec
 *  cpu-time:     0 d,  0 h,  0 min,  0.030 sec
 * ratio c/w:     0.998 speedup
 numerical hessian:
 * wall-time:     0 d,  0 h,  0 min,  0.056 sec
 *  cpu-time:     0 d,  0 h,  0 min,  0.056 sec
 * ratio c/w:     1.000 speedup

