5
 energy: -9.422237815106 gnorm: 0.263625110588 xtb: 6.2.2 (9d81278992624c895f80dd42a50cac0aa55982e2)
C         1.70967300000000   -0.39025000000000   -0.26928400000000
N         0.51821400000000   -0.13689200000000    0.51932200000000
C        -0.61673900000000   -0.17990300000000   -0.41421600000000
C        -0.07168800000000    1.10557700000000    0.00249700000000
H        -1.53946100000000   -0.39853200000000    0.16168100000000
5
 energy: -9.492613593671 gnorm: 0.209221346661 xtb: 6.2.2 (9d81278992624c895f80dd42a50cac0aa55982e2)
C         1.73019750412371   -0.35610461289889   -0.18933738882934
N         0.58404585808925   -0.18716902672270    0.42254238577917
C        -0.68400457374574   -0.12462880547752   -0.37781617669807
C        -0.05722444177871    1.08237921787286   -0.02684587106626
H        -1.57301534668850   -0.41447677277375    0.17145705081451
5
 energy: -9.460854165286 gnorm: 0.976136275847 xtb: 6.2.2 (9d81278992624c895f80dd42a50cac0aa55982e2)
C         1.70832991002095   -0.40087935034934   -0.03143673759874
N         0.75855002255100   -0.21388062575364    0.19616179036240
C        -0.75294634962806    0.00446184219354   -0.26129734832190
C        -0.11851716898609    1.09569236558430   -0.04963071194449
H        -1.59541741395780   -0.48539423167486    0.14620300750273
5
 energy: -9.561694406386 gnorm: 0.087974925088 xtb: 6.2.2 (9d81278992624c895f80dd42a50cac0aa55982e2)
C         1.85741612486234   -0.42720618632396   -0.02841066370649
N         0.68236674888544   -0.21738409479814    0.16602810915716
C        -0.80623779449244    0.03169044692544   -0.27103131559988
C        -0.12466926830645    1.11478363036561   -0.04872631807436
H        -1.60887681094890   -0.50188379616894    0.18214018822356
5
 energy: -9.571142891011 gnorm: 0.083153123601 xtb: 6.2.2 (9d81278992624c895f80dd42a50cac0aa55982e2)
C         1.84226781576996   -0.49642290792978   -0.01669139799957
N         0.69760735749490   -0.16600664731241    0.13317805748955
C        -0.81792023236752    0.09063636012642   -0.22449302680120
C        -0.11144793188706    1.17336212260728   -0.04656135406088
H        -1.61050800901028   -0.60156892749153    0.15456772137211
5
 energy: -9.582628141790 gnorm: 0.055322140550 xtb: 6.2.2 (9d81278992624c895f80dd42a50cac0aa55982e2)
C         1.81569895971299   -0.55642882015739   -0.03288840771744
N         0.72307682813109   -0.10357947440291    0.10587710299772
C        -0.79769819817342    0.09227503690331   -0.12223137591532
C        -0.13253665793142    1.20343866918066   -0.02836097538063
H        -1.60854193173924   -0.63570541152367    0.07760365601567
5
 energy: -9.590412111638 gnorm: 0.026757693936 xtb: 6.2.2 (9d81278992624c895f80dd42a50cac0aa55982e2)
C         1.76779625343209   -0.59604026977170   -0.02741582729447
N         0.70908169394826   -0.06926047026870    0.05766028956725
C        -0.77799554545674    0.09806520756112   -0.04655127558046
C        -0.14957067273384    1.22208662919825   -0.01568483883693
H        -1.54931272918977   -0.65485109671897    0.03199165214461
5
 energy: -9.592753533455 gnorm: 0.012299853540 xtb: 6.2.2 (9d81278992624c895f80dd42a50cac0aa55982e2)
C         1.71233394474241   -0.61861785294621   -0.02480048990542
N         0.67841043310272   -0.04791567129868    0.02676575786379
C        -0.75902041269723    0.09898042478269    0.00327970603616
C        -0.14359748834631    1.24473393911075   -0.00877121055689
H        -1.48812747680160   -0.67718083964855    0.00352623656236
5
 energy: -9.592667948473 gnorm: 0.029791069738 xtb: 6.2.2 (9d81278992624c895f80dd42a50cac0aa55982e2)
C         1.71560674194821   -0.63599507701094    0.00187294172919
N         0.67831163275965   -0.04907842283851   -0.01918428002616
C        -0.77115410407380    0.12174590079208    0.01952887129084
C        -0.15805206058643    1.25390055747061   -0.00827104784695
H        -1.46471321004763   -0.69057295841325    0.00605351485308
5
 energy: -9.593053996282 gnorm: 0.005914513220 xtb: 6.2.2 (9d81278992624c895f80dd42a50cac0aa55982e2)
C         1.71539179811458   -0.62150519823796   -0.00805052557639
N         0.67786187501668   -0.05581494966444    0.00041043903002
C        -0.76611502251507    0.10899472101426    0.00964422583607
C        -0.15111320244425    1.24706493147744   -0.01033599547631
H        -1.47602644817195   -0.67873950458930    0.00833185618661
5
 energy: -9.593070794252 gnorm: 0.005517487717 xtb: 6.2.2 (9d81278992624c895f80dd42a50cac0aa55982e2)
C         1.70994082229752   -0.62676181766919   -0.01093161116436
N         0.67640613779546   -0.05126995683920    0.00443557928998
C        -0.76232628368381    0.11135408754493    0.00948725449712
C        -0.15036940079071    1.25188268345847   -0.00982388127846
H        -1.47365227561847   -0.68520499649502    0.00683265865572
5
 energy: -9.593094466972 gnorm: 0.003421805244 xtb: 6.2.2 (9d81278992624c895f80dd42a50cac0aa55982e2)
C         1.71143751019542   -0.62637652332209   -0.00834132028486
N         0.67686853168998   -0.05355596990022    0.00082071838266
C        -0.76325323564545    0.11135314411940    0.00877056622732
C        -0.15232243922478    1.25218654824063   -0.00979091771833
H        -1.47273136701516   -0.68360719913773    0.00854095339321
5
 energy: -9.593111089192 gnorm: 0.002299574422 xtb: 6.2.2 (9d81278992624c895f80dd42a50cac0aa55982e2)
C         1.71139894521408   -0.62741543941712   -0.00621360799542
N         0.67698986565879   -0.05549697342079   -0.00176862337970
C        -0.76232909113052    0.11147737370902    0.00651719157962
C        -0.15525741074959    1.25428077996565   -0.00945773101758
H        -1.47080330899277   -0.68284574083675    0.01092277081308
5
 energy: -9.593120053169 gnorm: 0.001306023628 xtb: 6.2.2 (9d81278992624c895f80dd42a50cac0aa55982e2)
C         1.71078610559009   -0.62894885812598   -0.00494583875800
N         0.67723369794853   -0.05679339944884   -0.00314687249289
C        -0.76051958145300    0.11149397209035    0.00420160927598
C        -0.15783874365327    1.25714656137748   -0.00906692951110
H        -1.46966247843235   -0.68289827589302    0.01295803148601
5
 energy: -9.593121326345 gnorm: 0.000545093524 xtb: 6.2.2 (9d81278992624c895f80dd42a50cac0aa55982e2)
C         1.71001870680701   -0.62990864438765   -0.00500536903939
N         0.67713295800133   -0.05691858965931   -0.00292451887292
C        -0.75878094046571    0.11133444457136    0.00285625228036
C        -0.15912570143090    1.25846485368916   -0.00874292906053
H        -1.46924602291173   -0.68297206421357    0.01381656469247
