5
 energy: -9.593121332124 gnorm: 0.000546010316 xtb: 6.2.2 (9d81278992624c895f80dd42a50cac0aa55982e2)
C         1.71001539111096   -0.62991760675099   -0.00501023873271
N         0.67713264975471   -0.05692214022252   -0.00292678317113
C        -0.75878034753535    0.11133842252243    0.00285870661022
C        -0.15911914264751    1.25846567159109   -0.00874457004250
H        -1.46924955068281   -0.68296434713478    0.01382288533961
