[Molden Format]
[Title]
[Atoms] AU
C      1     6  0.32314604582800E+01 -0.11903716473965E+01 -0.94679781453695E-02
N      2     7  0.12795951393579E+01 -0.10756724546803E+00 -0.55308181064569E-02
C      3     6 -0.14338869125543E+01  0.21039910619445E+00  0.54021720627596E-02
C      4     6 -0.30069157289092E+00  0.23781552359054E+01 -0.16524840924763E-01
H      5     1 -0.27764790019186E+01 -0.12906154492254E+01  0.26121465120426E-01
[GTO]
           1 0
 s           4   1.0000000000000000     
   51.049363095579913      -0.16312063210127389     
   8.7911227406887544      -0.19911024581000730     
  0.70640422258929825       0.31882047753655751     
  0.26922813413411617       0.12706504184240380     
 p           4   1.0000000000000000     
   5.8263656140800002       0.73716451545209605     
   1.5106896018720002       0.68216371614850257     
  0.53256483288000001       0.35783053929253711     
  0.21202323690600003        5.3983030275847881E-002

           2 0
 s           4   1.0000000000000000     
   63.594024466941008      -0.19234388414721629     
   10.951417231523665      -0.23478107924953728     
  0.87999310257376984       0.37593753901700888     
  0.33538715296521110       0.14982889271862770     
 p           4   1.0000000000000000     
   7.2965040481495080       0.97658666315667420     
   1.8918745450712575       0.90372226730345739     
  0.66694432110824120       0.47404958461536373     
  0.26552202674130870        7.1516067715011844E-002

           3 0
 s           4   1.0000000000000000     
   51.049363095579913      -0.16312063210127389     
   8.7911227406887544      -0.19911024581000730     
  0.70640422258929825       0.31882047753655751     
  0.26922813413411617       0.12706504184240380     
 p           4   1.0000000000000000     
   5.8263656140800002       0.73716451545209605     
   1.5106896018720002       0.68216371614850257     
  0.53256483288000001       0.35783053929253711     
  0.21202323690600003        5.3983030275847881E-002

           4 0
 s           4   1.0000000000000000     
   51.049363095579913      -0.16312063210127389     
   8.7911227406887544      -0.19911024581000730     
  0.70640422258929825       0.31882047753655751     
  0.26922813413411617       0.12706504184240380     
 p           4   1.0000000000000000     
   5.8263656140800002       0.73716451545209605     
   1.5106896018720002       0.68216371614850257     
  0.53256483288000001       0.35783053929253711     
  0.21202323690600003        5.3983030275847881E-002

           5 0
 s           3   1.0000000000000000     
   3.3702276975336001       0.27359110588908298     
  0.61389118221497996       0.26460540653860526     
  0.16614291148415999        8.2465947534082318E-002

[MO]
Sym=     1a
Ene=  -0.72435029524319994     
Spin= Alpha
Occup=     2.00000000
           1 -0.11916664265023630     
           2   7.6982113127761112E-002
           3  -3.9388376931278481E-002
           4  -1.3186898925971835E-004
           5 -0.47593857936490797     
           6  0.15662968283115924     
           7  -7.5662696301644961E-002
           8  -9.8456036076005594E-005
           9 -0.32708004566325283     
          10 -0.18489821331630116     
          11  -5.3176910718992366E-002
          12   1.3259693151762648E-003
          13 -0.30206807486591547     
          14  -2.6415270763320939E-002
          15  0.14628752578798473     
          16  -9.5848436840956816E-004
          17  -4.3397520319338592E-002
Sym=     2a
Ene=  -0.69457036217574086     
Spin= Alpha
Occup=     2.00000000
           1 -0.49024824585049648     
           2  0.14884975337458084     
           3  -7.3003954248662337E-002
           4  -4.0038334515231811E-004
           5 -0.32577776110157664     
           6 -0.32695821366091071     
           7  0.19976504075467211     
           8   3.7899717995262366E-004
           9  0.18235261316274742     
          10   2.5516306265173264E-002
          11   7.5199269874956051E-002
          12  -6.4375220431382415E-004
          13  0.18290857565180804     
          14  -3.3476452756944913E-002
          15  -5.5389287774699043E-002
          16   6.1131756242747059E-004
          17   3.1453476078498854E-002
Sym=     3a
Ene=  -0.61162522611611880     
Spin= Alpha
Occup=     2.00000000
           1   3.2739519251829656E-002
           2   8.2893485424253913E-002
           3  0.14831307342403555     
           4  -1.5954768821861598E-003
           5  -1.2650880320428432E-002
           6  0.26242435787010215     
           7  0.41151440927427629     
           8  -4.6305781377542071E-003
           9 -0.30323362845746837     
          10   4.7238274292150897E-002
          11  0.31559787892042651     
          12  -2.8319664453655136E-003
          13  0.33716564985169678     
          14  0.10557657171041045     
          15   2.2782914898707290E-002
          16  -7.8414665399515566E-004
          17 -0.27573351485348874     
Sym=     4a
Ene=  -0.57941619853628945     
Spin= Alpha
Occup=     2.00000000
           1  0.30868017126881725     
           2   8.3301238433146740E-002
           3   6.0630852016412785E-003
           4  -7.5320923003700108E-004
           5 -0.28021171013946378     
           6  0.28348303394847724     
           7  -2.6722621162687272E-002
           8  -2.0260079159812477E-003
           9  0.33570390241185216     
          10 -0.35076680037656915     
          11  0.21910578113878287     
          12  -5.8879026073841013E-005
          13  0.29513870446748808     
          14 -0.25085946558827388     
          15   3.4705556514210964E-002
          16   7.9483544606448594E-004
          17  0.23355263093946227     
Sym=     5a
Ene=  -0.57239601670829532     
Spin= Alpha
Occup=     2.00000000
           1   3.8546363070359550E-005
           2   1.9359585925957168E-003
           3   2.4950134821465236E-003
           4  0.31557529909722126     
           5   2.8526185001330560E-004
           6   4.3043012427802724E-003
           7   5.5363762393330620E-003
           8  0.70134164842795943     
           9   1.3931851472162422E-004
          10   1.1407977646734156E-003
          11   2.6407384442369065E-003
          12  0.31900098926084242     
          13   3.7652319954284202E-004
          14   1.1230019415082652E-003
          15   1.8401723185076646E-003
          16  0.23559174750757392     
          17   4.4777641426335159E-004
Sym=     6a
Ene=  -0.53008313466018497     
Spin= Alpha
Occup=     2.00000000
           1 -0.15375993517971759     
           2   8.4461499390494466E-002
           3  0.32681170483593530     
           4  -3.2169205967896488E-003
           5  0.12323126208517685     
           6  0.19982153592739263     
           7  0.47929735138237667     
           8  -5.2126293351861079E-003
           9   8.0211835887739072E-002
          10 -0.20492327314545261     
          11 -0.27195791437149469     
          12   3.1149259491935221E-003
          13 -0.19234881161095671     
          14  0.27263931693534821     
          15  -6.1296964646889232E-002
          16  -1.0269809758718452E-003
          17  0.34092671970503957     
Sym=     7a
Ene=  -0.46916999725973596     
Spin= Alpha
Occup=     2.00000000
           1  0.63958542908412996     
           2  0.56774900982796062     
           3 -0.24465754587600211     
           4  -1.9160396266678158E-003
           5 -0.17086611712808780     
           6 -0.17590926400814205     
           7  0.16832297208068811     
           8  -3.8140550292068115E-004
           9   1.9251738020416832E-002
          10  0.16741281162518604     
          11 -0.12993069003113883     
          12   8.3712794198706529E-004
          13 -0.11487974896147064     
          14  0.17047610995088566     
          15 -0.14102220440616506     
          16   7.7721827326822617E-004
          17  -8.8910624396506006E-003
Sym=     8a
Ene=  -0.43973467376177561     
Spin= Alpha
Occup=     2.00000000
           1   1.4109372914015251E-004
           2   3.9297119424335338E-003
           3   4.9125868198256978E-003
           4  0.47148778969801269     
           5   1.2844540822966183E-004
           6   2.0713673519383250E-003
           7   3.0226405602834087E-003
           8  0.28199888527899136     
           9   1.7648442309806914E-003
          10  -3.0552683006170463E-003
          11  -2.4592940943364296E-003
          12 -0.58758620417433893     
          13  -5.5216067343574916E-003
          14  -5.1009195857393977E-003
          15  -8.7631244789319780E-003
          16 -0.49394608627346620     
          17  -1.8445199999097335E-003
Sym=     9a
Ene=  -0.43626034776271472     
Spin= Alpha
Occup=     2.00000000
           1  -4.2623967605031433E-002
           2   4.7968686737447953E-002
           3  0.19639869213090280     
           4  -5.8201639786841161E-003
           5   1.6918895278148442E-002
           6   7.4616285617617434E-002
           7   7.6543635303505692E-002
           8  -3.3451754441145565E-003
           9  0.14800108263124190     
          10  -7.6561785406218602E-003
          11  0.27125389509270159     
          12   3.1216979043189176E-003
          13 -0.61238950656509150     
          14 -0.33190177285144018     
          15 -0.55749354728113498     
          16   1.0374797301713829E-002
          17 -0.20610794236192170     
Sym=    10a
Ene=  -0.32431931899255712     
Spin= Alpha
Occup=     0.00000000
           1   9.3611755736968758E-003
           2  0.41687338119700251     
           3  0.73344606799492751     
           4  -7.6837314661859120E-003
           5   1.2521020559955472E-002
           6 -0.15117389646789170     
           7 -0.25451473468551972     
           8   2.7025124534296951E-003
           9   4.9225848625551655E-002
          10  0.26683841141095899     
          11 -0.18537758998902787     
          12   5.6253565855155306E-005
          13   8.3880107978892421E-002
          14 -0.34742590449657434     
          15  0.32590260127101345     
          16  -5.9040953990913223E-004
          17  -7.8436437542226359E-002
Sym=    11a
Ene=  -0.25379602184778294     
Spin= Alpha
Occup=     0.00000000
           1   5.2784252254682367E-005
           2  -3.0409093444556568E-003
           3  -4.1045287417030936E-003
           4 -0.56049069569565457     
           5   6.0588897664394666E-004
           6   2.2017411231591536E-003
           7   3.3285275187300307E-003
           8  0.44423243281803365     
           9  -5.6666661628621581E-004
          10   2.1025812031522967E-003
          11   3.6024989174532154E-003
          12  0.42630657689533602     
          13  -1.2816928172172681E-004
          14  -4.3060025100048636E-003
          15  -5.7615186214752491E-003
          16 -0.77703668585111574     
          17   3.3112256978919748E-004
Sym=    12a
Ene=  -0.23928248497510071     
Spin= Alpha
Occup=     0.00000000
           1  -6.3520214997726126E-005
           2   3.6202650171502501E-003
           3   4.9553929171502129E-003
           4  0.65642071528540291     
           5  -7.6342768180394718E-004
           6  -2.9607589136343001E-003
           7  -4.4730086738818484E-003
           8 -0.57288748564398106     
           9  -4.7173168961364210E-004
          10   4.0990170397870000E-003
          11   5.2223170740258659E-003
          12  0.66625446475018490     
          13   5.3624660545369054E-005
          14  -1.8792895788416646E-003
          15  -3.4398055818934069E-003
          16 -0.40025369050936266     
          17   4.4584327338032225E-004
Sym=    13a
Ene=  -0.11444521411508765     
Spin= Alpha
Occup=     0.00000000
           1  -3.5664446515132578E-002
           2  0.10447915712536245     
           3 -0.39781589966282532     
           4   2.9114877262477741E-003
           5  0.64741644816306576     
           6 -0.10320558303600459     
           7  0.59251914577004139     
           8  -4.6707521651546428E-003
           9 -0.24018723957407656     
          10  -7.2285457531034145E-002
          11  -8.5256376199052367E-002
          12   1.0163298572807365E-003
          13 -0.19649747769865122     
          14 -0.71662595559876219     
          15  0.40811269992208793     
          16   6.5382613896770262E-004
          17   9.2120083304267186E-002
Sym=    14a
Ene=   -3.3397996276899863E-002
Spin= Alpha
Occup=     0.00000000
           1  -6.6468553400196834E-002
           2  0.37702262616055743     
           3  0.10817686641845399     
           4  -2.4931197887297901E-003
           5  0.62668157182338213     
           6 -0.53082587118140567     
           7 -0.31768641182716506     
           8   4.4488145387704169E-003
           9 -0.16391763237297066     
          10 -0.75692897723303132     
          11  0.49650332168355626     
          12   2.0990884170900447E-004
          13 -0.12496333617753992     
          14  0.34344237961675861     
          15   9.7951359760802451E-002
          16  -2.3981517574794536E-003
          17  -5.5119428313774588E-002
Sym=    15a
Ene=   0.10319476506715898     
Spin= Alpha
Occup=     0.00000000
           1  -1.7721296438115222E-002
           2   6.6366416972600401E-002
           3   8.0996194509056499E-002
           4  -1.0508981261206651E-003
           5  -1.6676334867548930E-002
           6  -8.1220500611173529E-002
           7 -0.19639852080141509     
           8   2.0706346542166878E-003
           9  -1.0268184390380255     
          10  0.29740022951869255     
          11  0.26858606679161795     
          12  -4.8741096317795000E-003
          13  0.22390615248779597     
          14 -0.17303619095087297     
          15 -0.42458516012997594     
          16   4.5520319796621854E-003
          17   1.0002819859361129     
Sym=    16a
Ene=   0.74332792295942585     
Spin= Alpha
Occup=     0.00000000
           1 -0.45055802272426004     
           2  0.49304434588777263     
           3 -0.23807143281876020     
           4  -1.2356272218571279E-003
           5  0.42181877385985289     
           6  0.43504879521651607     
           7 -0.35151526259706450     
           8  -1.1370962641218499E-004
           9 -0.28341339119424558     
          10 -0.51890508973212657     
          11 -0.91392400601413670     
          12   1.0040314959639810E-002
          13  0.76888964046194674     
          14 -0.27815269765850964     
          15 -0.76484835404196772     
          16   7.0611190761233856E-003
          17 -0.55573719239108355     
Sym=    17a
Ene=   0.85950202993388891     
Spin= Alpha
Occup=     0.00000000
           1  0.75379533068796900     
           2 -0.75010155870540096     
           3  0.44814380661672076     
           4   1.3734774932535885E-003
           5 -0.51969437028036236     
           6 -0.96896213743636106     
           7  0.43185322793887426     
           8   2.3655971038320737E-003
           9 -0.41647415352247447     
          10 -0.61936465926108319     
          11 -0.48971267658033968     
          12   6.9486444830486258E-003
          13  0.31935678022840153     
          14 -0.27621378669313884     
          15 -0.30931826632912757     
          16   3.5565442485235286E-003
          17 -0.34721006763067364     
