 Entering Gaussian System
 *********************************************
 Gaussian 98:
 frequency output generated by the xtb code
 *********************************************
                         Standard orientation:
 --------------------------------------------------------------------
  Center     Atomic     Atomic              Coordinates (Angstroms)
  Number     Number      Type              X           Y           Z
 --------------------------------------------------------------------
    1          8             0        0.077899    0.352906   -0.556210
    2          6             0       -1.073695    0.208362   -0.644378
    3          8             0        0.945498   -0.267466    0.708404
    4          1             0       -1.794758   -0.297404   -0.018330
    5          1             0        1.845055    0.003600    0.510514
 --------------------------------------------------------------------
     1 basis functions        1 primitive gaussians
     1 alpha electrons        1 beta electrons

 Harmonic frequencies (cm**-1), IR intensities (KM/Mole),
 Raman scattering activities (A**4/amu), Raman depolarization ratios,
 reduced masses (AMU), force constants (mDyne/A) and normal coordinates:
                      1                      2                      3
                        a                      a                      a 
 Frequencies --   281.5295               424.8287               626.8103
 Red. masses --     2.5487                10.8064                13.7044
 Frc consts  --     0.0000                 0.0000                 0.0000
 IR Inten    --     0.5280                 0.7159                 2.1863
 Raman Activ --     0.0000                 0.0000                 0.0000
 Depolar     --     0.0000                 0.0000                 0.0000
 Atom AN      X      Y      Z        X      Y      Z        X      Y      Z
   1   8     0.03  -0.17  -0.11    -0.27  -0.18   0.22    -0.21   0.34  -0.61
   2   6    -0.02   0.13   0.08    -0.21   0.19  -0.37    -0.09  -0.09   0.13
   3   8     0.03  -0.17  -0.10     0.53  -0.05   0.23     0.26  -0.21   0.42
   4   1    -0.02   0.14   0.08    -0.33   0.15  -0.34    -0.03  -0.02   0.02
   5   1    -0.13   0.79   0.48     0.04   0.11  -0.17     0.14  -0.17   0.31
                      4                      5                      6
                        a                      a                      a 
 Frequencies --   867.4355               925.2883               999.1050
 Red. masses --     5.3882                 3.8932                 5.2339
 Frc consts  --     0.0000                 0.0000                 0.0000
 IR Inten    --     0.1533                 0.5041                 1.0424
 Raman Activ --     0.0000                 0.0000                 0.0000
 Depolar     --     0.0000                 0.0000                 0.0000
 Atom AN      X      Y      Z        X      Y      Z        X      Y      Z
   1   8    -0.05   0.28   0.17     0.02  -0.07   0.12     0.13   0.14  -0.20
   2   6     0.07  -0.41  -0.25     0.06  -0.09   0.16     0.22  -0.19   0.38
   3   8     0.02  -0.10  -0.06    -0.03   0.19  -0.32    -0.15  -0.07   0.07
   4   1    -0.12   0.68   0.41    -0.42   0.14  -0.35    -0.45   0.15  -0.38
   5   1     0.00  -0.01  -0.01     0.25  -0.31   0.57    -0.21   0.23  -0.43
                      7                      8                      9
                        a                      a                      a 
 Frequencies --  1853.4535              3040.0814              3632.5634
 Red. masses --    13.2728                 1.9840                 1.8902
 Frc consts  --     0.0000                 0.0000                 0.0000
 IR Inten    --     2.1610                 0.1697                 0.2832
 Raman Activ --     0.0000                 0.0000                 0.0000
 Depolar     --     0.0000                 0.0000                 0.0000
 Atom AN      X      Y      Z        X      Y      Z        X      Y      Z
   1   8    -0.65  -0.12   0.01     0.03  -0.00   0.01     0.00  -0.00   0.00
   2   6     0.71   0.10   0.04    -0.23  -0.13   0.14    -0.00   0.00  -0.00
   3   8    -0.01   0.02  -0.03     0.00   0.00  -0.00     0.23   0.07  -0.05
   4   1     0.19   0.07  -0.05     0.66   0.44  -0.53    -0.00  -0.00   0.00
   5   1    -0.01  -0.00   0.00    -0.00  -0.00   0.00    -0.91  -0.27   0.20
