$hessian                                                                        
        0.9164337722   0.1483017296   0.0006825749  -0.8427644490  -0.1356251545
        0.0027448266  -0.0157582513  -0.0094107139   0.0151870645  -0.0452408815
       -0.0063712849  -0.0108266281  -0.0126701903   0.0031054236  -0.0077878380
        0.1483017296   0.1105963646  -0.0545283563  -0.1255845295  -0.0858992515
        0.0000771335   0.0014618656  -0.0445066033   0.0490587608  -0.0218026409
        0.0173248851   0.0146558940  -0.0023764248   0.0024846050  -0.0092634320
        0.0006825749  -0.0545283563   0.1415972700  -0.0138125826  -0.0027135741
       -0.0635501415  -0.0025211844   0.0459788582  -0.0913229091   0.0145215056
        0.0190112112   0.0028482778   0.0011296865  -0.0077481390   0.0104275028
       -0.8427644490  -0.1255845295  -0.0138125826   1.0358045252   0.1919832836
       -0.0450646043  -0.0564216916   0.0180379863  -0.0511564589  -0.1344099249
       -0.0901452880   0.1206899143  -0.0022084596   0.0057085477  -0.0106562685
       -0.1356251545  -0.0858992515  -0.0027135741   0.1919832836   0.1626833798
       -0.0811314455   0.0150498347   0.0191934982   0.0056350776  -0.0733792034
       -0.0962259135   0.0746713343   0.0019712396   0.0002482869   0.0035386077
        0.0027448266   0.0000771335  -0.0635501415  -0.0450646043  -0.0811314455
        0.2005101803  -0.0463877820   0.0065272656  -0.0037025301   0.0931594263
        0.0699295099  -0.1264558479  -0.0044518666   0.0045975366  -0.0068016608
       -0.0157582513   0.0014618656  -0.0025211844  -0.0564216916   0.0150498347
       -0.0463877820   0.4705395770   0.1129114852  -0.0578303487   0.0071802947
       -0.0003610768   0.0056549889  -0.4055399288  -0.1290621086   0.1010843263
       -0.0094107139  -0.0445066033   0.0459788582   0.0180379863   0.0191934982
        0.0065272656   0.1129114852   0.0783269100  -0.0850346577  -0.0010484649
       -0.0049304105  -0.0098672458  -0.1204902926  -0.0480833944   0.0423957797
        0.0151870645   0.0490587608  -0.0913229091  -0.0511564589   0.0056350776
       -0.0037025301  -0.0578303487  -0.0850346577   0.1320530591   0.0068032743
       -0.0096451307   0.0070227376   0.0869964688   0.0399859499  -0.0440503576
       -0.0452408815  -0.0218026409   0.0145215056  -0.1344099249  -0.0733792034
        0.0931594263   0.0071802947  -0.0010484649   0.0068032743   0.1719759918
        0.0963467155  -0.1147453572   0.0004945199  -0.0001164063   0.0002611510
       -0.0063712849   0.0173248851   0.0190112112  -0.0901452880  -0.0962259135
        0.0699295099  -0.0003610768  -0.0049304105  -0.0096451307   0.0963467155
        0.0835936987  -0.0793740800   0.0005309342   0.0002377402   0.0000784896
       -0.0108266281   0.0146558940   0.0028482778   0.1206899143   0.0746713343
       -0.1264558479   0.0056549889  -0.0098672458   0.0070227376  -0.1147453572
       -0.0793740800   0.1164278494  -0.0007729179  -0.0000859026   0.0001569831
       -0.0126701903  -0.0023764248   0.0011296865  -0.0022084596   0.0019712396
       -0.0044518666  -0.4055399288  -0.1204902926   0.0869964688   0.0004945199
        0.0005309342  -0.0007729179   0.4199240588   0.1203645435  -0.0829013709
        0.0031054236   0.0024846050  -0.0077481390   0.0057085477   0.0002482869
        0.0045975366  -0.1290621086  -0.0480833944   0.0399859499  -0.0001164063
        0.0002377402  -0.0000859026   0.1203645435   0.0451127623  -0.0367494449
       -0.0077878380  -0.0092634320   0.0104275028  -0.0106562685   0.0035386077
       -0.0068016608   0.1010843263   0.0423957797  -0.0440503576   0.0002611510
        0.0000784896   0.0001569831  -0.0829013709  -0.0367494449   0.0402675324
