[Molden Format]
[Title]
[Atoms] AU
O      1     8  0.14720763922334E+00  0.66689616783284E+00 -0.10510838382771E+01
C      2     6 -0.20289883655517E+01  0.39374669455130E+00 -0.12176984946391E+01
O      3     8  0.17867328844751E+01 -0.50543693984120E+00  0.13386889998857E+01
H      4     1 -0.33916008392468E+01 -0.56201161882796E+00 -0.34638984054939E-01
H      5     1  0.34866486810902E+01  0.68038065590777E-02  0.96473231708862E+00
[GTO]
           1 0
 s           4   1.0000000000000000     
   69.137961906196551      -0.20478756370077797     
   11.906129132707308      -0.24997023136827334     
  0.95670827744340703       0.40025880240639616     
  0.36462520496073686       0.15952206667693555     
 p           4   1.0000000000000000     
   8.2124193257781641        1.1321556799186829     
   2.1293576997098116        1.0476840782254817     
  0.75066448202360914       0.54956508217158984     
  0.29885246543283073        8.2908486592766617E-002

           2 0
 s           4   1.0000000000000000     
   51.049363095579913      -0.16312063210127389     
   8.7911227406887544      -0.19911024581000730     
  0.70640422258929825       0.31882047753655751     
  0.26922813413411617       0.12706504184240380     
 p           4   1.0000000000000000     
   5.8263656140800002       0.73716451545209605     
   1.5106896018720002       0.68216371614850257     
  0.53256483288000001       0.35783053929253711     
  0.21202323690600003        5.3983030275847881E-002

           3 0
 s           4   1.0000000000000000     
   69.137961906196551      -0.20478756370077797     
   11.906129132707308      -0.24997023136827334     
  0.95670827744340703       0.40025880240639616     
  0.36462520496073686       0.15952206667693555     
 p           4   1.0000000000000000     
   8.2124193257781641        1.1321556799186829     
   2.1293576997098116        1.0476840782254817     
  0.75066448202360914       0.54956508217158984     
  0.29885246543283073        8.2908486592766617E-002

           4 0
 s           3   1.0000000000000000     
   3.3702276975336001       0.27359110588908298     
  0.61389118221497996       0.26460540653860526     
  0.16614291148415999        8.2465947534082318E-002

           5 0
 s           3   1.0000000000000000     
   3.3702276975336001       0.27359110588908298     
  0.61389118221497996       0.26460540653860526     
  0.16614291148415999        8.2465947534082318E-002

[MO]
Sym=     1a
Ene=  -0.78878263495628853     
Spin= Alpha
Occup=     2.00000000
           1  0.68643822917489905     
           2 -0.22102096323892459     
           3  -4.7607013864527335E-003
           4  -5.4818818036062429E-002
           5  0.29991935663442493     
           6  0.20970927207278639     
           7   3.4476468043225690E-002
           8   2.6038193751687514E-003
           9  -4.9025076477070501E-004
          10  -2.7380535226886570E-002
          11   7.2445878850213455E-003
          12  -1.9636456903031979E-002
          13   1.5670809228375729E-002
          14  -9.7287213849572857E-003
Sym=     2a
Ene=  -0.68807888293664998     
Spin= Alpha
Occup=     2.00000000
           1  0.35878715684620394     
           2  0.45034956536930548     
           3  -4.2651705520158283E-002
           4  0.19713545974949853     
           5 -0.25176066357675070     
           6   3.0610182167168940E-003
           7  -3.2937687017380160E-002
           8   5.4913295628323221E-002
           9  0.52046415297351134     
          10  -3.9522302772751580E-002
          11   8.0646377249460596E-002
          12 -0.14396841509955580     
          13  -6.1029637853906513E-002
          14  0.11632583660291160     
Sym=     3a
Ene=  -0.65542731233142570     
Spin= Alpha
Occup=     2.00000000
           1  0.35973200744474287     
           2  0.36509126575633039     
           3  0.26645740918448568     
           4 -0.33446221628109524     
           5 -0.29784966939274182     
           6   5.3652970191887889E-002
           7  0.10632186326072718     
           8 -0.15941634789372119     
           9 -0.47745164168732668     
          10   4.7432237410339972E-002
          11   2.2251982840039632E-002
          12  -2.2972309895216925E-002
          13 -0.16409723527109629     
          14  -6.8078209661766559E-002
Sym=     4a
Ene=  -0.61656778864608919     
Spin= Alpha
Occup=     2.00000000
           1 -0.12076739527737584     
           2 -0.13783246301416263     
           3  0.23597603125151800     
           4 -0.45580578657051679     
           5   7.7873267410527691E-002
           6   1.7142283634846173E-002
           7  0.14198659654774184     
           8 -0.24365779223109493     
           9  0.46432589631578880     
          10  0.31398269269936196     
          11  -6.4124531539195187E-002
          12  0.18860503623559594     
          13  -6.7439549957411943E-002
          14  0.22512899174446252     
Sym=     5a
Ene=  -0.61568700901098539     
Spin= Alpha
Occup=     2.00000000
           1   2.2444373991955249E-003
           2  0.11875738555780656     
           3 -0.67893303971678887     
           4 -0.40198338253739352     
           5  -1.4124272565995458E-003
           6   6.0622139294481743E-002
           7 -0.35739937199620503     
           8 -0.21126099038469132     
           9  -9.2370461198892327E-003
          10   1.2171409667765405E-002
          11 -0.10272636256972499     
          12  -6.6927197801415123E-002
          13   1.4442827496885561E-003
          14  -3.9672713781137110E-003
Sym=     6a
Ene=  -0.55218649784965845     
Spin= Alpha
Occup=     2.00000000
           1  0.14955799485652876     
           2  0.34462893614339446     
           3  0.14198598489102865     
           4 -0.13485600403235184     
           5  0.33143594383176450     
           6 -0.41738206262653926     
           7  -7.7470725809035107E-002
           8   9.7053139648581518E-003
           9 -0.18273797785448614     
          10  0.21035691710927482     
          11  0.11955436323187614     
          12 -0.13800146479868908     
          13  0.42438241613415839     
          14  0.12826957333013131     
Sym=     7a
Ene=  -0.51313512749270795     
Spin= Alpha
Occup=     2.00000000
           1   6.4516753408574559E-002
           2  0.17186119300734726     
           3  0.16098412649636054     
           4 -0.21695332736253872     
           5  0.10437095985583042     
           6 -0.19107444048671299     
           7   4.6027273267782297E-002
           8 -0.13096259738872496     
           9  0.39398340207111926     
          10 -0.56926317907258128     
          11 -0.26394910070419669     
          12  0.27815252881763308     
          13  0.13001740779192925     
          14 -0.35288769586101976     
Sym=     8a
Ene=  -0.43627303485752938     
Spin= Alpha
Occup=     2.00000000
           1  -3.1958078440135997E-004
           2   7.7336097837811630E-003
           3  -4.7692069386447003E-002
           4  -2.8483626221702630E-002
           5   9.3814216133614702E-005
           6   2.8527431709918359E-002
           7 -0.16393061658160663     
           8  -9.9771371483098364E-002
           9   9.8314106516670353E-006
          10 -0.13966350787503756     
          11  0.83126876620391943     
          12  0.50341655644562056     
          13  -2.3858258279144570E-004
          14   5.6029696275675721E-005
Sym=     9a
Ene=  -0.41162357457359439     
Spin= Alpha
Occup=     2.00000000
           1 -0.21465396346127164     
           2  -7.2924790034359172E-002
           3  -7.0300175413968741E-002
           4   9.4700599059933971E-002
           5  0.31702357794001196     
           6 -0.14958721281002882     
           7  0.29963508588311766     
           8 -0.53422334218255041     
           9   6.1994596112170841E-002
          10 -0.25037181765415656     
          11  0.29826223064276086     
          12 -0.56216309693496624     
          13 -0.20544207736450812     
          14  -2.5912834954723039E-002
Sym=    10a
Ene=  -0.29256767235706066     
Spin= Alpha
Occup=     0.00000000
           1  -1.9133017658327543E-004
           2  -9.4879409978613299E-002
           3  0.55038032690079775     
           4  0.33458801320373244     
           5  -3.5734157249639139E-004
           6  0.13417565707297896     
           7 -0.77762393467026214     
           8 -0.47330458607014247     
           9   1.9678405829871069E-005
          10   2.2128414528559320E-002
          11 -0.13131879560330970     
          12  -8.0324115992804118E-002
          13   2.9290925541973609E-004
          14   1.5204812666768329E-004
Sym=    11a
Ene=  -0.25989964208128175     
Spin= Alpha
Occup=     0.00000000
           1 -0.25982664573482217     
           2 -0.21132079883525404     
           3  0.31840865783780831     
           4 -0.58370972349174977     
           5 -0.25766634226088347     
           6  0.27908246037775597     
           7 -0.18996431463619584     
           8  0.39231330873598552     
           9  0.21650316380694160     
          10 -0.27174481040155546     
          11  0.27885425431577565     
          12 -0.53538139665074658     
          13  0.24755598469719098     
          14  -4.6065203831128124E-002
Sym=    12a
Ene=   0.16807542371214171     
Spin= Alpha
Occup=     0.00000000
           1   3.2441070000012902E-002
           2 -0.17248793973409976     
           3  -9.7617589962093271E-002
           4  0.11132720528727875     
           5 -0.61960618971399006     
           6  0.23358004480146791     
           7  0.31040840475412901     
           8 -0.44327209141909063     
           9 -0.43398622064696335     
          10 -0.51466878779766423     
          11 -0.15677137014371534     
          12  0.11616343417962784     
          13  0.81219821277390714     
          14  0.80104730792733614     
Sym=    13a
Ene=   0.17636740285454156     
Spin= Alpha
Occup=     0.00000000
           1 -0.13420531214880180     
           2  0.16035182367552339     
           3  0.12879857160249547     
           4 -0.16614972583618401     
           5  0.58524321854191352     
           6 -0.17447225792401491     
           7 -0.27242940158887591     
           8  0.39766872646322315     
           9 -0.43243779061291737     
          10 -0.60958015425336587     
          11 -0.15988688987294725     
          12   9.4651402773641730E-002
          13 -0.73829868835734358     
          14  0.85570542187702270     
Sym=    14a
Ene=   0.71059044600563404     
Spin= Alpha
Occup=     0.00000000
           1  0.83757413141897563     
           2 -0.91799927768228384     
           3  -7.6646038101075245E-002
           4 -0.13360974042627372     
           5 -0.66063146380123938     
           6  -1.1601320470518388     
           7 -0.23614993127691677     
           8   5.9696967898037127E-002
           9   3.6766640414721212E-002
          10  -5.6828068223828486E-002
          11   3.8018042113289442E-002
          12  -7.8284553302522972E-002
          13 -0.34588543267919497     
          14   6.2048470295473834E-002
