5
 energy: -11.127887822757 gnorm: 0.000323499978 xtb: 6.2.2 (9d81278992624c895f80dd42a50cac0aa55982e2)
O         0.07789893517528    0.35290628679829   -0.55620966556973
C        -1.07369450385453    0.20836179695671   -0.64437835289924
O         0.94549841215842   -0.26746573492795    0.70840377695168
H        -1.79475803912633   -0.29740376853954   -0.01833016267138
H         1.84505519564193    0.00360041971250    0.51051440419041
