5
 energy: -11.065657404239 gnorm: 0.165102455972 xtb: 6.2.2 (9d81278992624c895f80dd42a50cac0aa55982e2)
O         0.13069800000000    0.45164500000000   -0.32316300000000
C        -1.01248900000000   -0.22997400000000    0.09726400000000
O         1.00844100000000    0.26286200000000    0.64072800000000
H        -1.80706000000000   -0.12787900000000   -0.67019000000000
H         1.68041000000000   -0.35665500000000    0.25536100000000
5
 energy: -11.084188811670 gnorm: 0.092256765211 xtb: 6.2.2 (9d81278992624c895f80dd42a50cac0aa55982e2)
O         0.06386534282366    0.37719787878686   -0.31759332475422
C        -1.03186986948721   -0.26277056546030    0.08591260981288
O         1.05468717231797    0.28539722310867    0.63884863569497
H        -1.80486133768090   -0.06598048969874   -0.68002965418812
H         1.71817869202648   -0.33384504673649    0.27286173343450
5
 energy: -11.090927489000 gnorm: 0.041558890093 xtb: 6.2.2 (9d81278992624c895f80dd42a50cac0aa55982e2)
O        -0.03096802209763    0.35250144561951   -0.27339588132700
C        -1.05601053460275   -0.20431512702360    0.12149730807735
O         1.10795613249772    0.28726774068542    0.64070043876690
H        -1.73884679353095   -0.09144042483578   -0.73269587854107
H         1.71786921773360   -0.34401463444555    0.24389401302382
5
 energy: -11.092150642440 gnorm: 0.023146491961 xtb: 6.2.2 (9d81278992624c895f80dd42a50cac0aa55982e2)
O        -0.01111222725879    0.31252584135873   -0.30964940041192
C        -1.04703799612061   -0.25640998320599    0.07842838436020
O         1.10223632524251    0.29117868813178    0.65111099285853
H        -1.79575877613324   -0.03438291645528   -0.69610715566247
H         1.75167267427014   -0.31291262982925    0.27621717885565
5
 energy: -11.092853395079 gnorm: 0.025567249867 xtb: 6.2.2 (9d81278992624c895f80dd42a50cac0aa55982e2)
O        -0.00365511463758    0.32844536749526   -0.30876887295201
C        -1.06642331347529   -0.21687995089571    0.08709089131022
O         1.10886916844025    0.26977230870881    0.66711148764443
H        -1.80521668047473   -0.06943809746947   -0.70915505295088
H         1.76642594014735   -0.31190062783889    0.26372154694824
5
 energy: -11.093697303860 gnorm: 0.017779461167 xtb: 6.2.2 (9d81278992624c895f80dd42a50cac0aa55982e2)
O        -0.01071193239668    0.31806735685270   -0.31977644606981
C        -1.07059966118938   -0.19688466994933    0.08460487375410
O         1.11082117198217    0.25230746207581    0.68396994860312
H        -1.81365683511944   -0.07490676494733   -0.70940796942382
H         1.78414725672333   -0.29858438403185    0.26060959313641
5
 energy: -11.095424426006 gnorm: 0.027645554686 xtb: 6.2.2 (9d81278992624c895f80dd42a50cac0aa55982e2)
O        -0.02055235328217    0.26568558547218   -0.36817511746114
C        -1.08441940751456   -0.13534860338653    0.05819419043944
O         1.11451715899112    0.18516138154764    0.74771749961661
H        -1.86839964879050   -0.08049099683815   -0.69698648078859
H         1.85885425059612   -0.23500836679514    0.25924990819368
5
 energy: -11.096727144538 gnorm: 0.041702411221 xtb: 6.2.2 (9d81278992624c895f80dd42a50cac0aa55982e2)
O        -0.02939947775142    0.23992676332458   -0.40225394467408
C        -1.07684530966797   -0.10484915413053    0.01028323998503
O         1.13712694228229    0.14834051601421    0.79136701568442
H        -1.92432996147924   -0.08407258919671   -0.67172451624213
H         1.89344780661635   -0.19934653601155    0.27232820524676
5
 energy: -11.098208935623 gnorm: 0.055740255627 xtb: 6.2.2 (9d81278992624c895f80dd42a50cac0aa55982e2)
O        -0.02464980228439    0.20280487243495   -0.44701836716277
C        -1.08320569508325   -0.06571763641386   -0.06608674954969
O         1.17628938039822    0.09483357710016    0.85003866371561
H        -2.01978435714692   -0.08904797965582   -0.63332833699504
H         1.95135047411634   -0.14287383346543    0.29639478999190
5
 energy: -11.098785404849 gnorm: 0.050128775514 xtb: 6.2.2 (9d81278992624c895f80dd42a50cac0aa55982e2)
O        -0.01013943543911    0.20498177284721   -0.44594337724155
C        -1.08611983477900   -0.08809414634921   -0.11782209316651
O         1.21157112353298    0.10290008307221    0.84581730343420
H        -2.05337992833549   -0.08161212273732   -0.60358419632399
H         1.93806807502062   -0.13817658683288    0.32153236329785
5
 energy: -11.099185849465 gnorm: 0.062931459785 xtb: 6.2.2 (9d81278992624c895f80dd42a50cac0aa55982e2)
O        -0.00194445190354    0.15918352614763   -0.45953545423132
C        -1.12075109583213   -0.05944800410465   -0.12115597520285
O         1.19670543084050    0.06330272870113    0.86066173833086
H        -2.06725917053866   -0.07284100105078   -0.60008156851177
H         1.99324928743384   -0.09019824969333    0.32011125961506
5
 energy: -11.100420280906 gnorm: 0.017147682730 xtb: 6.2.2 (9d81278992624c895f80dd42a50cac0aa55982e2)
O        -0.00907360781661    0.18021177746457   -0.46628987022522
C        -1.09269903207048   -0.07011845330154   -0.13284247997821
O         1.18871977605115    0.07200692674787    0.85634911362624
H        -2.06495797332423   -0.07372204640771   -0.58564308755186
H         1.97801083716017   -0.10837920450318    0.32842632412904
5
 energy: -11.100761363736 gnorm: 0.010610961569 xtb: 6.2.2 (9d81278992624c895f80dd42a50cac0aa55982e2)
O        -0.00354721744174    0.17860803311246   -0.47098182140492
C        -1.09335473035860   -0.06575839080625   -0.15240987541564
O         1.19109835718383    0.06213034168410    0.85787303163018
H        -2.07691125129159   -0.07536850422094   -0.57129066087087
H         1.98271484190810   -0.09961247976937    0.33680932606125
5
 energy: -11.101753817134 gnorm: 0.014122720517 xtb: 6.2.2 (9d81278992624c895f80dd42a50cac0aa55982e2)
O         0.01562803181960    0.16828919317856   -0.49777803794521
C        -1.09073900180044   -0.04406590993793   -0.22815000252714
O         1.18539454099087    0.01341356418491    0.86456793899453
H        -2.12029004934101   -0.07882698380507   -0.50977219216958
H         2.01000647833099   -0.05881086362047    0.37113229364739
5
 energy: -11.105062389169 gnorm: 0.052560688833 xtb: 6.2.2 (9d81278992624c895f80dd42a50cac0aa55982e2)
O         0.05957121472848    0.16905954098555   -0.54283641619204
C        -1.07860615318647    0.00430425646797   -0.38979783986586
O         1.14388040447346   -0.09358626568667    0.84789378299527
H        -2.16500695401872   -0.09621971536952   -0.36115899112516
H         2.04016148800326    0.01644118360267    0.44589946418779
5
 energy: -11.096039232305 gnorm: 0.140316273431 xtb: 6.2.2 (9d81278992624c895f80dd42a50cac0aa55982e2)
O         0.12784134638601    0.19945969400142   -0.58543324022682
C        -1.05832498586550    0.08174553122016   -0.61513556427897
O         1.05296957920499   -0.24875194032346    0.78649907761033
H        -2.17237431230080   -0.13955548586487   -0.13606820943568
H         2.04988837257530    0.10710120096675    0.55013793633114
5
 energy: -11.108966372810 gnorm: 0.115923244262 xtb: 6.2.2 (9d81278992624c895f80dd42a50cac0aa55982e2)
O         0.10164535461209    0.23102964427023   -0.52157206483361
C        -1.06726514506829    0.06165559902698   -0.49562559258299
O         1.02142290899783   -0.19009616266915    0.72850968687743
H        -2.03962954848848   -0.14608095729626   -0.21158913662794
H         1.98382642994684    0.04349087666821    0.50027710716712
5
 energy: -11.108600093621 gnorm: 0.139089026339 xtb: 6.2.2 (9d81278992624c895f80dd42a50cac0aa55982e2)
O         0.06023980394767    0.25958003514323   -0.54536816336016
C        -1.04993051404665    0.09503704483093   -0.49907635670059
O         1.14154779714725   -0.15235371473378    0.84598986929715
H        -2.09921479418819   -0.20027930117109   -0.25615677023200
H         1.94735770713991   -0.00198506406929    0.45461142099560
5
 energy: -11.120391001631 gnorm: 0.037785575233 xtb: 6.2.2 (9d81278992624c895f80dd42a50cac0aa55982e2)
O         0.08634940981680    0.25725297434438   -0.53380738772051
C        -1.07160730515170    0.14871462696772   -0.55778403136282
O         1.07346628070465   -0.22726179832357    0.79060142581870
H        -2.04050166395778   -0.22328135661580   -0.17883606302728
H         1.95229327858803    0.04457455362728    0.47982605629191
5
 energy: -11.123847725045 gnorm: 0.048529703697 xtb: 6.2.2 (9d81278992624c895f80dd42a50cac0aa55982e2)
O         0.10737928877337    0.31492026065637   -0.52401057188027
C        -1.05131174901038    0.17490370006643   -0.62216503824283
O         0.98985203604560   -0.27413623382959    0.71534108158597
H        -1.94230600243112   -0.25729682455449   -0.07926699324133
H         1.89638642662254    0.04160809766129    0.51010152177845
5
 energy: -11.126616322895 gnorm: 0.024333208922 xtb: 6.2.2 (9d81278992624c895f80dd42a50cac0aa55982e2)
O         0.08066256942735    0.31137507177812   -0.51709043009753
C        -1.07025488915285    0.19729302216885   -0.61322406951033
O         0.98368588794141   -0.28772121760620    0.70600177189076
H        -1.86968198963160   -0.26718055424490   -0.07278185795058
H         1.87558842141570    0.04623267790413    0.49709458566768
5
 energy: -11.127583278124 gnorm: 0.010120731611 xtb: 6.2.2 (9d81278992624c895f80dd42a50cac0aa55982e2)
O         0.08415726446202    0.33969912682496   -0.54544046476570
C        -1.06701354409623    0.19418439519318   -0.62789997158028
O         0.96536458660418   -0.28729900652418    0.70257773424072
H        -1.83726728029972   -0.27770959997462   -0.03897493988143
H         1.85475897332975    0.03112408448066    0.50973764198668
5
 energy: -11.127774328488 gnorm: 0.006189956159 xtb: 6.2.2 (9d81278992624c895f80dd42a50cac0aa55982e2)
O         0.08032210257032    0.34812285149117   -0.56064065207800
C        -1.07184771383316    0.20933124704526   -0.63115197134316
O         0.95546743703187   -0.26836371844683    0.71223345392312
H        -1.81546816911443   -0.29676151969338   -0.03003446844747
H         1.85152634334539    0.00767013960377    0.50959363794550
5
 energy: -11.127844646598 gnorm: 0.005043780153 xtb: 6.2.2 (9d81278992624c895f80dd42a50cac0aa55982e2)
O         0.07553410861742    0.35430815523882   -0.55989638854632
C        -1.07383186377374    0.20399058257148   -0.64136437570515
O         0.95513790462869   -0.27121937409021    0.70871576095458
H        -1.80785612584295   -0.29381848556895   -0.02222902405971
H         1.85101597637059    0.00673812184885    0.51477402735660
5
 energy: -11.127868274743 gnorm: 0.003138743555 xtb: 6.2.2 (9d81278992624c895f80dd42a50cac0aa55982e2)
O         0.07533750315275    0.35419751723554   -0.55742867960516
C        -1.07421599465455    0.20532649298530   -0.64165397576625
O         0.95255548634566   -0.26786531293469    0.71044802605627
H        -1.80495960040299   -0.29557342834293   -0.02317875640449
H         1.85128260555912    0.00391373105678    0.51181338571963
5
 energy: -11.127884933813 gnorm: 0.001562994759 xtb: 6.2.2 (9d81278992624c895f80dd42a50cac0aa55982e2)
O         0.07641909727854    0.35400387069037   -0.55579273633404
C        -1.07410692205755    0.20745848214280   -0.64319675712843
O         0.94769143368923   -0.26559698764640    0.71072638883435
H        -1.79821811539499   -0.29764825892998   -0.02119328861379
H         1.84821450648478    0.00178189374321    0.50945639324191
5
 energy: -11.127887823067 gnorm: 0.000322191488 xtb: 6.2.2 (9d81278992624c895f80dd42a50cac0aa55982e2)
O         0.07789902889874    0.35290766543931   -0.55620877771499
C        -1.07369334550831    0.20835729976119   -0.64438173714886
O         0.94549733979134   -0.26746202070936    0.70840661055612
H        -1.79475641790396   -0.29741313386303   -0.01833694663711
H         1.84505339472219    0.00360918937190    0.51052085094484
