[Molden Format]
[Title]
[Atoms] AU
C      1     6 -0.50435171219511E+00  0.61577522583062E-03 -0.82398497136869E-02
C      2     6  0.19915282734093E+01  0.11853295374853E+01 -0.51021865677416E+00
C      3     6  0.19710070317584E+01 -0.11910187105483E+01  0.57285447094182E+00
H      4     1 -0.17421599554200E+01 -0.15146199162424E+01  0.66311447001617E+00
H      5     1 -0.17160236375526E+01  0.15196933140797E+01 -0.71751043447014E+00
[GTO]
           1 0
 s           4   1.0000000000000000     
   51.049363095579913      -0.16312063210127389     
   8.7911227406887544      -0.19911024581000730     
  0.70640422258929825       0.31882047753655751     
  0.26922813413411617       0.12706504184240380     
 p           4   1.0000000000000000     
   5.8263656140800002       0.73716451545209605     
   1.5106896018720002       0.68216371614850257     
  0.53256483288000001       0.35783053929253711     
  0.21202323690600003        5.3983030275847881E-002

           2 0
 s           4   1.0000000000000000     
   51.049363095579913      -0.16312063210127389     
   8.7911227406887544      -0.19911024581000730     
  0.70640422258929825       0.31882047753655751     
  0.26922813413411617       0.12706504184240380     
 p           4   1.0000000000000000     
   5.8263656140800002       0.73716451545209605     
   1.5106896018720002       0.68216371614850257     
  0.53256483288000001       0.35783053929253711     
  0.21202323690600003        5.3983030275847881E-002

           3 0
 s           4   1.0000000000000000     
   51.049363095579913      -0.16312063210127389     
   8.7911227406887544      -0.19911024581000730     
  0.70640422258929825       0.31882047753655751     
  0.26922813413411617       0.12706504184240380     
 p           4   1.0000000000000000     
   5.8263656140800002       0.73716451545209605     
   1.5106896018720002       0.68216371614850257     
  0.53256483288000001       0.35783053929253711     
  0.21202323690600003        5.3983030275847881E-002

           4 0
 s           3   1.0000000000000000     
   3.3702276975336001       0.27359110588908298     
  0.61389118221497996       0.26460540653860526     
  0.16614291148415999        8.2465947534082318E-002

           5 0
 s           3   1.0000000000000000     
   3.3702276975336001       0.27359110588908298     
  0.61389118221497996       0.26460540653860526     
  0.16614291148415999        8.2465947534082318E-002

[MO]
Sym=     1a
Ene=  -0.68199995764267807     
Spin= Alpha
Occup=     2.00000000
           1  0.42050109989552770     
           2  0.16225819708962264     
           3  -2.2045708283056358E-004
           4   2.5953906096180474E-003
           5  0.35245617647187044     
           6  -9.0282151287519985E-002
           7 -0.10357120643797582     
           8   4.5846496715646987E-002
           9  0.35245866673383758     
          10  -8.8490701067834743E-002
          11  0.10382170212930228     
          12  -4.8684958950594270E-002
          13  0.10050173444713936     
          14  0.10049975534048247     
Sym=     2a
Ene=  -0.60525212586091504     
Spin= Alpha
Occup=     2.00000000
           1  0.37938735605323426     
           2 -0.33077133758095045     
           3   4.9306823422048333E-004
           4  -5.1931300596173889E-003
           5 -0.25534836519367282     
           6  -8.6788688886580367E-002
           7   8.6467784637120543E-002
           8  -4.0723136839231282E-002
           9 -0.25535391251917727     
          10  -8.8279093874906095E-002
          11  -8.6209697847439926E-002
          12   3.7968643422104584E-002
          13  0.29660316725328928     
          14  0.29660917484938165     
Sym=     3a
Ene=  -0.57007033225243764     
Spin= Alpha
Occup=     2.00000000
           1   2.7517039079852384E-006
           2   3.9168875781837847E-003
           3  0.45321765355416316     
           4 -0.20635702717079901     
           5  0.31420306089371886     
           6 -0.11136615888767187     
           7  0.11963196446608501     
           8  -5.6172737632697430E-002
           9 -0.31420057674219248     
          10  0.11342777524485881     
          11  0.11931841271521137     
          12  -5.2604570109892217E-002
          13 -0.26951392841254401     
          14  0.26950568718390638     
Sym=     4a
Ene=  -0.47965080740369104     
Spin= Alpha
Occup=     2.00000000
           1   3.1279449254172466E-004
           2   9.0908871493475193E-003
           3 -0.25859413138525550     
           4 -0.56733094349979074     
           5   1.7703884205876031E-004
           6   5.4037940923390600E-003
           7 -0.17785920071876762     
           8 -0.39102253170942641     
           9  -9.2837223940852708E-004
          10   5.3400965207828560E-003
          11 -0.17801197456670562     
          12 -0.39095422808788394     
          13   6.0171597599205490E-005
          14  -5.6207504745444043E-004
Sym=     5a
Ene=  -0.47197604509907370     
Spin= Alpha
Occup=     2.00000000
           1 -0.13438324126087134     
           2 -0.39010157226555658     
           3   2.2719725373315591E-004
           4  -6.9298925327894367E-003
           5  0.27152972924118002     
           6  0.45258129305665479     
           7  -5.5366559906305200E-002
           8   3.1499253971113701E-002
           9  0.27158366477824486     
          10  0.45353655093234846     
          11   5.3586333587766606E-002
          12  -1.8171440971028966E-002
          13  0.18139764485056495     
          14  0.18143514224371296     
Sym=     6a
Ene=  -0.44744828458129354     
Spin= Alpha
Occup=     2.00000000
           1   6.6233266845122148E-006
           2   2.0640730256735874E-003
           3  0.23575719080353902     
           4 -0.10792728519738350     
           5 -0.52855449490790196     
           6 -0.16344952359953710     
           7 -0.26669457787463002     
           8  0.11852632833119778     
           9  0.52853633022971502     
          10  0.15880237704937875     
          11 -0.26716335454564655     
          12  0.12364850579528515     
          13 -0.28098965443595753     
          14  0.28096751250112251     
Sym=     7a
Ene=  -0.36948490943801232     
Spin= Alpha
Occup=     2.00000000
           1   7.0242680963617646E-002
           2  -6.2447943825086082E-002
           3   8.3082819991729291E-005
           4  -9.9758356078721421E-004
           5 -0.35292983961469593     
           6   4.1831957952821984E-002
           7 -0.55204976598302824     
           8  0.25233124983614946     
           9 -0.35291789046415545     
          10   5.1370105749921437E-002
          11  0.55192990490453919     
          12 -0.25081834260457392     
          13  -1.9789163476693083E-002
          14  -1.9773778306702513E-002
Sym=     8a
Ene=  -0.29998167545022170     
Spin= Alpha
Occup=     0.00000000
           1   1.9204581235326916E-004
           2   1.1105089445869798E-002
           3 -0.33534592232587479     
           4 -0.73662568581013743     
           5  -5.9459857146458853E-005
           6  -7.4559692220805256E-003
           7  0.20825038546105978     
           8  0.45696180288866972     
           9   1.1252776281031176E-004
          10  -6.4223970566347289E-003
          11  0.20822436795120375     
          12  0.45703700566414912     
          13   2.9571600722292908E-004
          14  -4.5273964730815008E-004
Sym=     9a
Ene=  -0.23474310351017202     
Spin= Alpha
Occup=     0.00000000
           1  -7.0853137206834836E-005
           2   3.7476376393258431E-005
           3  -5.5309638638136849E-005
           4  -1.9470230592185871E-006
           5  -9.8347372830615588E-006
           6  -1.0831797564812387E-002
           7  0.32690252859245628     
           8  0.71705651621398381     
           9  -2.3459896687346184E-006
          10   1.0805305997067822E-002
          11 -0.32688121080764709     
          12 -0.71703509423523137     
          13  -6.7947969672181951E-005
          14   1.3404312392492076E-004
Sym=    10a
Ene=  -0.20466987801812170     
Spin= Alpha
Occup=     0.00000000
           1   1.4646308274596868E-005
           2   6.8432622683355755E-004
           3   8.0555987093523171E-002
           4  -3.5680533213850625E-002
           5   4.6235365915109197E-002
           6 -0.69403582505060524     
           7   9.0277336346450826E-003
           8  -1.4886150227602637E-002
           9  -4.6247982062273596E-002
          10  0.69421137613057338     
          11   6.9627176423557625E-003
          12   6.8939487385182895E-003
          13  0.46867234573853489     
          14 -0.46867483074103194     
Sym=    11a
Ene=    5.6411524004185483E-002
Spin= Alpha
Occup=     0.00000000
           1  -1.1772043680924771     
           2   2.0083007474795852E-002
           3  -1.3516387680315790E-004
           4   4.1904297868274280E-005
           5  0.14097435963952096     
           6 -0.35664848656186210     
           7 -0.13020829823252830     
           8   5.3896576685742124E-002
           9  0.14097159933067169     
          10 -0.35437303081505317     
          11  0.13123772023076524     
          12  -6.5123935203598507E-002
          13  0.58293748670766543     
          14  0.58291135696179819     
Sym=    12a
Ene=   0.19940626249536181     
Spin= Alpha
Occup=     0.00000000
           1   1.0634037544643943E-005
           2   6.6314301400607917E-003
           3  0.76714242584617587     
           4 -0.34914983280552031     
           5  0.28471015525149956     
           6  0.32520195018901910     
           7 -0.55164842922877644     
           8  0.25642890925482414     
           9 -0.28472690322615818     
          10 -0.33469743637432453     
          11 -0.55075082589163482     
          12  0.24588361091853631     
          13  0.55285649405248083     
          14 -0.55284677965595919     
Sym=    13a
Ene=   0.29823484653927668     
Spin= Alpha
Occup=     0.00000000
           1   1.2062914192638679E-002
           2   1.1771084966572685     
           3  -1.7490634318662374E-003
           4   1.8541136446192288E-002
           5 -0.36352951904668612     
           6  0.46715847967835428     
           7  0.11371907181709022     
           8  -4.4718952591755526E-002
           9 -0.36353902802349120     
          10  0.46518299828934728     
          11 -0.11500264158846020     
          12   5.9606746066461623E-002
          13  0.53418664472942090     
          14  0.53424052105923792     
Sym=    14a
Ene=   0.50228335395866375     
Spin= Alpha
Occup=     0.00000000
           1  -1.3971334168750419E-005
           2  -6.3770768021633693E-003
           3 -0.73588847857796569     
           4  0.33504383345366739     
           5  0.67956211196101490     
           6 -0.25834376822085697     
           7 -0.65484465844879869     
           8  0.29461404599664454     
           9 -0.67953812974061034     
          10  0.24699755546485744     
          11 -0.65552892981013977     
          12  0.30268273765120496     
          13 -0.46672644907067606     
          14  0.46671071116990143     
