5
 energy: -7.138640289170 gnorm: 0.000047466878 xtb: 6.2.2 (9d81278992624c895f80dd42a50cac0aa55982e2)
C        -0.26689145713572    0.00032585424678   -0.00436034109430
C         1.05387147493525    0.62724943684352   -0.26999611079263
C         1.04301210050666   -0.63026001785669    0.30314155931174
H        -0.92191143169086   -0.80150241721861    0.35090509830951
H        -0.90808068661533    0.80418714398499   -0.37969020573432
