$hessian                                                                        
        0.5424842606   0.0010428756   0.0062758373  -0.1776792105  -0.1034082927
        0.0447492266  -0.1753565713   0.1040154633  -0.0499443501  -0.0966956750
       -0.1032951793   0.0461319374  -0.0927528039   0.1016451332  -0.0472126512
        0.0010428756   0.2983652633  -0.0940070590  -0.0368064105  -0.0101641901
       -0.0028136991   0.0373814002  -0.0105570141  -0.0015171203  -0.1249505973
       -0.1384680684   0.0471729148   0.1233327320  -0.1391759907   0.0511649636
        0.0062758373  -0.0940070590   0.1347963814   0.0143871422  -0.0037335612
       -0.0132562869  -0.0195209823  -0.0005578730  -0.0152174492   0.0558997559
        0.0474683912  -0.0515600743  -0.0570417531   0.0508301021  -0.0547625710
       -0.1776792105  -0.0368064105   0.0143871422   0.2035692595   0.0796253793
       -0.0333061925   0.0139197916  -0.0235588297   0.0109429269   0.0000334448
       -0.0096600345   0.0042693236  -0.0398432854  -0.0096001046   0.0037067997
       -0.1034082927  -0.0101641901  -0.0037335612   0.0796253793   0.4186417789
       -0.1878538800   0.0165983460  -0.3990452594   0.1826304714   0.0054978351
       -0.0098532918   0.0073724583   0.0016867323   0.0004209625   0.0015845114
        0.0447492266  -0.0028136991  -0.0132562869  -0.0333061925  -0.1878538800
        0.0891842180  -0.0073682331   0.1820327174  -0.0821273181  -0.0026210358
        0.0071884312   0.0029871490  -0.0014537652   0.0014464304   0.0032122380
       -0.1753565713   0.0373814002  -0.0195209823   0.0139197916   0.0165983460
       -0.0073682331   0.2009837161  -0.0730407829   0.0363237450  -0.0396663578
        0.0096602260  -0.0050712531   0.0001194214   0.0094008107  -0.0043632765
        0.1040154633  -0.0105570141  -0.0005578730  -0.0235588297  -0.3990452594
        0.1820327174  -0.0730407829   0.4190678793  -0.1903421851  -0.0016382030
        0.0004000893   0.0015980152  -0.0057776477  -0.0098656950   0.0072693255
       -0.0499443501  -0.0015171203  -0.0152174492   0.0109429269   0.1826304714
       -0.0821273181   0.0363237450  -0.1903421851   0.0913660611   0.0001043719
        0.0017490850   0.0030728877   0.0025733062   0.0074797489   0.0029058184
       -0.0966956750  -0.1249505973   0.0558997559   0.0000334448   0.0054978351
       -0.0026210358  -0.0396663578  -0.0016382030   0.0001043719   0.1299788246
        0.1124727103  -0.0494369609   0.0063497634   0.0086182548  -0.0039461311
       -0.1032951793  -0.1384680684   0.0474683912  -0.0096600345  -0.0098532918
        0.0071884312   0.0096602260   0.0004000893   0.0017490850   0.1124727103
        0.1716328687  -0.0713426753  -0.0091777226  -0.0237115978   0.0149367679
        0.0461319374   0.0471729148  -0.0515600743   0.0042693236   0.0073724583
        0.0029871490  -0.0050712531   0.0015980152   0.0030728877  -0.0494369609
       -0.0713426753   0.0429896565   0.0041069529   0.0151992870   0.0025103811
       -0.0927528039   0.1233327320  -0.0570417531  -0.0398432854   0.0016867323
       -0.0014537652   0.0001194214  -0.0057776477   0.0025733062   0.0063497634
       -0.0091777226   0.0041069529   0.1261269044  -0.1100640941   0.0518152591
        0.1016451332  -0.1391759907   0.0508301021  -0.0096001046   0.0004209625
        0.0014464304   0.0094008107  -0.0098656950   0.0074797489   0.0086182548
       -0.0237115978   0.0151992870  -0.1100640941   0.1723323211  -0.0749555684
       -0.0472126512   0.0511649636  -0.0547625710   0.0037067997   0.0015845114
        0.0032122380  -0.0043632765   0.0072693255   0.0029058184  -0.0039461311
        0.0149367679   0.0025103811   0.0518152591  -0.0749555684   0.0461341335
