5
 energy: -7.098607069465 gnorm: 0.065191846357 xtb: 6.2.2 (9d81278992624c895f80dd42a50cac0aa55982e2)
C        -0.31513600000000    0.00046100000000   -0.00504100000000
C         1.00501300000000    0.08815300000000   -0.73758400000000
C         0.98089200000000   -0.09098700000000    0.76895400000000
H        -0.83494800000000   -0.97178800000000   -0.12882300000000
H        -0.83582100000000    0.97416100000000    0.10249400000000
5
 energy: -7.103994501550 gnorm: 0.033167572646 xtb: 6.2.2 (9d81278992624c895f80dd42a50cac0aa55982e2)
C        -0.28405230232147    0.00040831325117   -0.00449208767421
C         0.99198108326324    0.08916361934529   -0.74581637606791
C         0.96766983291830   -0.09196353663741    0.77678130863244
H        -0.83738045751568   -0.92788570956749   -0.12364725535279
H        -0.83821815634439    0.93027731360844    0.09717441046247
5
 energy: -7.105803997847 gnorm: 0.006777034985 xtb: 6.2.2 (9d81278992624c895f80dd42a50cac0aa55982e2)
C        -0.24702449485631    0.00035343028154   -0.00389884713197
C         0.99114050071665    0.09045384282580   -0.75512159498348
C         0.96653083935457   -0.09325153905377    0.78605062106862
H        -0.85492353664120   -0.88740351929541   -0.11897381432187
H        -0.85572330857371    0.88984778524184    0.09194363536869
5
 energy: -7.105963285807 gnorm: 0.002178262448 xtb: 6.2.2 (9d81278992624c895f80dd42a50cac0aa55982e2)
C        -0.23923739745757    0.00034191363661   -0.00377270082132
C         0.99931817113418    0.09095890461557   -0.75594976509823
C         0.97468152267505   -0.09377912442579    0.78713722221328
H        -0.86699087074075   -0.87859782478883   -0.11780979620662
H        -0.86777142561091    0.88107613096244    0.09039503991289
5
 energy: -7.105980635610 gnorm: 0.000928704399 xtb: 6.2.2 (9d81278992624c895f80dd42a50cac0aa55982e2)
C        -0.23731927507176    0.00034018319247   -0.00375066029030
C         1.00308121978133    0.09220999985604   -0.75537176810463
C         0.97844890280745   -0.09504050604121    0.78667682625409
H        -0.87173296531787   -0.87550440752225   -0.11649225350269
H        -0.87247788219915    0.87799473051495    0.08893785564353
5
 energy: -7.106004719987 gnorm: 0.002397588169 xtb: 6.2.2 (9d81278992624c895f80dd42a50cac0aa55982e2)
C        -0.23672503601645    0.00033935194588   -0.00374110345653
C         1.00469897298180    0.09755335368742   -0.75408846531701
C         0.98009283784990   -0.10038878505342    0.78544558182046
H        -0.87372861083871   -0.87443813361254   -0.11214222097615
H        -0.87433816397655    0.87693421303266    0.08452620792923
5
 energy: -7.106161590942 gnorm: 0.006294843949 xtb: 6.2.2 (9d81278992624c895f80dd42a50cac0aa55982e2)
C        -0.23574958339092    0.00033851003932   -0.00373100724243
C         1.00658334717111    0.10966310112385   -0.75225146289328
C         0.98199390274823   -0.11250419527269    0.78366732092190
H        -0.87626009613315   -0.87388397995568   -0.10256728101568
H        -0.87656757039527    0.87638656406521    0.07488243022949
5
 energy: -7.107177775432 gnorm: 0.017713621328 xtb: 6.2.2 (9d81278992624c895f80dd42a50cac0aa55982e2)
C        -0.23330960307755    0.00033606814505   -0.00370286189516
C         1.01226805324572    0.14151958866160   -0.74693381426818
C         0.98774274282470   -0.14437787851533    0.77852862461851
H        -0.88359493964172   -0.87220841014220   -0.07732181866925
H        -0.88310625335115    0.87473063185089    0.04942987021409
5
 energy: -7.110911718737 gnorm: 0.044887318387 xtb: 6.2.2 (9d81278992624c895f80dd42a50cac0aa55982e2)
C        -0.23061773416260    0.00033480288663   -0.00368037899270
C         1.02458464542917    0.20971486913636   -0.73222369369325
C         1.00030453599930   -0.21261184119629    0.76420839862665
H        -0.89823527714043   -0.87048541269477   -0.02317807281450
H        -0.89603617012544    0.87304758186806   -0.00512625312620
5
 energy: -7.115761051178 gnorm: 0.066178816927 xtb: 6.2.2 (9d81278992624c895f80dd42a50cac0aa55982e2)
C        -0.23733168165527    0.00034929531574   -0.00379125912830
C         1.03387024164237    0.27678595977768   -0.70487093702105
C         1.01025783080625   -0.27972214734399    0.73715903894563
H        -0.90534796636863   -0.87583234249101    0.03053390993664
H        -0.90144842442472    0.87841923474159   -0.05903075273292
5
 energy: -7.124708893484 gnorm: 0.106974608233 xtb: 6.2.2 (9d81278992624c895f80dd42a50cac0aa55982e2)
C        -0.28738700274162    0.00043688968417   -0.00455505816236
C         1.04383551035498    0.45923502507906   -0.58001570278318
C         1.02368868115910   -0.46224904616927    0.61267973935190
H        -0.89438650088172   -0.91225806678906    0.17915635832085
H        -0.88575068789074    0.91483519819511   -0.20726533672721
5
 energy: -7.132747073394 gnorm: 0.040180575197 xtb: 6.2.2 (9d81278992624c895f80dd42a50cac0aa55982e2)
C        -0.29250139135873    0.00044921964183   -0.00461699040935
C         1.03403596356082    0.43124664018958   -0.54902631723005
C         1.01496942465166   -0.43424080024735    0.58139811854539
H        -0.88227194695280   -0.90314284169679    0.16160915960130
H        -0.87423204990095    0.90568778211273   -0.18936397050730
5
 energy: -7.136038834817 gnorm: 0.017237868912 xtb: 6.2.2 (9d81278992624c895f80dd42a50cac0aa55982e2)
C        -0.27139313171401    0.00043470936330   -0.00433923448607
C         1.05792525958104    0.46795230331778   -0.48689493608619
C         1.04065128305530   -0.47101282425324    0.52004038625242
H        -0.91817907090125   -0.85506875882770    0.20092016395034
H        -0.90900434002108    0.85769457039985   -0.22972637963049
5
 energy: -7.137341628010 gnorm: 0.014270241723 xtb: 6.2.2 (9d81278992624c895f80dd42a50cac0aa55982e2)
C        -0.26688366219605    0.00043438158614   -0.00421862912110
C         1.06082234384496    0.51982155321510   -0.44560184305298
C         1.04477347479357   -0.52292650946592    0.47886815848688
H        -0.92461885440174   -0.84041311143452    0.24650910145414
H        -0.91409330204075    0.84308368609920   -0.27555678776693
5
 energy: -7.137899522423 gnorm: 0.023551027022 xtb: 6.2.2 (9d81278992624c895f80dd42a50cac0aa55982e2)
C        -0.26883698602613    0.00045446382734   -0.00432182906379
C         1.05467698746022    0.56567464667865   -0.39516798265657
C         1.04001130137690   -0.56876616837418    0.42824726234985
H        -0.91882682321094   -0.83202502514819    0.28779865678505
H        -0.90702447960006    0.83466208301637   -0.31655610741454
5
 energy: -7.138237238021 gnorm: 0.009595912471 xtb: 6.2.2 (9d81278992624c895f80dd42a50cac0aa55982e2)
C        -0.26692600724094    0.00044117232714   -0.00416999603170
C         1.05124319324434    0.57078989412178   -0.37912851324296
C         1.03720547965459   -0.57390419738338    0.41212617316469
H        -0.91672485739930   -0.82644702099452    0.29387423399914
H        -0.90479780825869    0.82912015192898   -0.32270189788917
5
 energy: -7.138485370702 gnorm: 0.005975990204 xtb: 6.2.2 (9d81278992624c895f80dd42a50cac0aa55982e2)
C        -0.26502260193753    0.00045021432106   -0.00441995377677
C         1.05363094595426    0.59324126873361   -0.34091135161422
C         1.04037510371140   -0.59627052673132    0.37393557285695
H        -0.92086482602579   -0.81456287113799    0.31626868648180
H        -0.90811862170235    0.81714191481463   -0.34487295394775
5
 energy: -7.138594389673 gnorm: 0.004824310624 xtb: 6.2.2 (9d81278992624c895f80dd42a50cac0aa55982e2)
C        -0.26692869767606    0.00037212602879   -0.00344900348045
C         1.05420771979186    0.61073734822808   -0.30730833396329
C         1.04313000410857   -0.61402797394140    0.34055500549057
H        -0.92163639456964   -0.80830608979980    0.33312878415355
H        -0.90877263165474    0.81122458948433   -0.36292645220037
5
 energy: -7.138624897469 gnorm: 0.002517759077 xtb: 6.2.2 (9d81278992624c895f80dd42a50cac0aa55982e2)
C        -0.26727695530759    0.00055888816646   -0.00663775808318
C         1.05632705699655    0.61945378579448   -0.28729969720138
C         1.04205220156650   -0.62180952066700    0.31999175808584
H        -0.92286934625289   -0.80520497104582    0.34367684167464
H        -0.90823295700257    0.80700181775188   -0.36973114447593
5
 energy: -7.138634335617 gnorm: 0.002155981627 xtb: 6.2.2 (9d81278992624c895f80dd42a50cac0aa55982e2)
C        -0.26696058517550    0.00026527580552   -0.00207363766958
C         1.05309378945564    0.62892416825546   -0.26599976806300
C         1.04486987542442   -0.63254967557302    0.29949069627982
H        -0.92195344564906   -0.80019656784842    0.35126253488176
H        -0.90904963405550    0.80355679936046   -0.38267982542901
5
 energy: -7.138640195597 gnorm: 0.000379155362 xtb: 6.2.2 (9d81278992624c895f80dd42a50cac0aa55982e2)
C        -0.26692557629248    0.00039468275835   -0.00419696163593
C         1.05396024707768    0.62702144163918   -0.27078548465690
C         1.04308459985627   -0.63005481543944    0.30389108523545
H        -0.92195143682443   -0.80171335219575    0.35024631747600
H        -0.90816783381704    0.80435204323766   -0.37915495641862
5
 energy: -7.138640288746 gnorm: 0.000047465322 xtb: 6.2.2 (9d81278992624c895f80dd42a50cac0aa55982e2)
C        -0.26689144361614    0.00032446441823   -0.00436127215492
C         1.05386913310823    0.62725542611780   -0.26999133733019
C         1.04301434235608   -0.63025508573669    0.30314410011830
H        -0.92190845990563   -0.80150785676269    0.35090048134947
H        -0.90808357194254    0.80418305196334   -0.37969197198265
