 Entering Gaussian System
 *********************************************
 Gaussian 98:
 frequency output generated by the xtb code
 *********************************************
                         Standard orientation:
 --------------------------------------------------------------------
  Center     Atomic     Atomic              Coordinates (Angstroms)
  Number     Number      Type              X           Y           Z
 --------------------------------------------------------------------
    1          6             0       -0.266891    0.000326   -0.004360
    2          6             0        1.053871    0.627249   -0.269996
    3          6             0        1.043012   -0.630260    0.303142
    4          1             0       -0.921911   -0.801502    0.350905
    5          1             0       -0.908081    0.804187   -0.379690
 --------------------------------------------------------------------
     1 basis functions        1 primitive gaussians
     1 alpha electrons        1 beta electrons

 Harmonic frequencies (cm**-1), IR intensities (KM/Mole),
 Raman scattering activities (A**4/amu), Raman depolarization ratios,
 reduced masses (AMU), force constants (mDyne/A) and normal coordinates:
                      1                      2                      3
                        a                      a                      a 
 Frequencies --   236.2651               311.6235               868.2024
 Red. masses --     2.3316                 7.1815                 4.1200
 Frc consts  --     0.0000                 0.0000                 0.0000
 IR Inten    --     0.0089                 0.3030                 0.2826
 Raman Activ --     0.0000                 0.0000                 0.0000
 Depolar     --     0.0000                 0.0000                 0.0000
 Atom AN      X      Y      Z        X      Y      Z        X      Y      Z
   1   6    -0.00  -0.00   0.00    -0.00  -0.53   0.24    -0.01   0.22   0.47
   2   6    -0.00   0.10   0.22     0.24   0.21  -0.09    -0.00  -0.04  -0.08
   3   6     0.00  -0.10  -0.22    -0.24   0.22  -0.10     0.01  -0.04  -0.08
   4   1    -0.01   0.28   0.60    -0.43   0.17  -0.09     0.00  -0.25  -0.55
   5   1     0.01  -0.27  -0.60     0.43   0.17  -0.07     0.01  -0.25  -0.55
                      4                      5                      6
                        a                      a                      a 
 Frequencies --   879.3488              1046.8301              1291.2470
 Red. masses --     7.4911                11.7111                 1.6849
 Frc consts  --     0.0000                 0.0000                 0.0000
 IR Inten    --     0.0027                 0.5376                 0.0984
 Raman Activ --     0.0000                 0.0000                 0.0000
 Depolar     --     0.0000                 0.0000                 0.0000
 Atom AN      X      Y      Z        X      Y      Z        X      Y      Z
   1   6     0.00   0.12  -0.06     0.74  -0.00   0.01    -0.02   0.00  -0.00
   2   6    -0.51  -0.14   0.06    -0.38   0.24  -0.12    -0.15  -0.08   0.03
   3   6     0.51  -0.15   0.07    -0.38  -0.24   0.10    -0.15   0.08  -0.04
   4   1    -0.32   0.29  -0.13     0.03   0.10  -0.05     0.57  -0.35   0.17
   5   1     0.33   0.29  -0.12     0.03  -0.10   0.05     0.57   0.34  -0.15
                      7                      8                      9
                        a                      a                      a 
 Frequencies --  1535.0150              2848.8837              2903.3584
 Red. masses --    11.7224                 1.9640                 1.5019
 Frc consts  --     0.0000                 0.0000                 0.0000
 IR Inten    --     0.0883                 0.0014                 0.0138
 Raman Activ --     0.0000                 0.0000                 0.0000
 Depolar     --     0.0000                 0.0000                 0.0000
 Atom AN      X      Y      Z        X      Y      Z        X      Y      Z
   1   6     0.30  -0.00   0.00     0.00   0.27  -0.12    -0.21   0.00  -0.00
   2   6    -0.14  -0.59   0.27    -0.01   0.00  -0.00    -0.00   0.00  -0.00
   3   6    -0.13   0.59  -0.27     0.01   0.00  -0.00    -0.00  -0.00   0.00
   4   1    -0.06   0.09  -0.04    -0.43  -0.47   0.21     0.38   0.53  -0.23
   5   1    -0.06  -0.09   0.04     0.43  -0.48   0.22     0.37  -0.53   0.25
