      -----------------------------------------------------------      
     |                   =====================                   |     
     |                           x T B                           |     
     |                   =====================                   |     
     |                         S. Grimme                         |     
     |          Mulliken Center for Theoretical Chemistry        |     
     |                    University of Bonn                     |     
      -----------------------------------------------------------      

   * xtb version 6.2.2 (9d81278992624c895f80dd42a50cac0aa55982e2) compiled by '@Darwin' on 04/03/2020

   xtb is free software: you can redistribute it and/or modify it under
   the terms of the GNU Lesser General Public License as published by
   the Free Software Foundation, either version 3 of the License, or
   (at your option) any later version.
   
   xtb is distributed in the hope that it will be useful,
   but WITHOUT ANY WARRANTY; without even the implied warranty of
   MERCHANTABILITY or FITNESS FOR A PARTICULAR PURPOSE.  See the
   GNU Lesser General Public License for more details.
   
   Cite this work as:
   * S. Grimme, C. Bannwarth, P. Shushkov, J. Chem. Theory Comput., 2017,
     13, 1989-2009. DOI: 10.1021/acs.jctc.7b00118
   * C. Bannwarth, S. Ehlert and S. Grimme., J. Chem. Theory Comput., 2019,
     15, 1652-1671. DOI: 10.1021/acs.jctc.8b01176
   * P. Pracht, E. Caldeweyher, S. Ehlert, S. Grimme, ChemRxiv, 2019, preprint.
     DOI: 10.26434/chemrxiv.8326202.v1
   
   for DFT-D4:
   * E. Caldeweyher, C. Bannwarth and S. Grimme, J. Chem. Phys., 2017,
     147, 034112. DOI: 10.1063/1.4993215
   * E. Caldeweyher, S. Ehlert, A. Hansen, H. Neugebauer, S. Spicher,
     C. Bannwarth and S. Grimme, J. Chem. Phys., 2019, 150, 154122.
     DOI: 10.1063/1.5090222
   
   for sTDA-xTB:
   * S. Grimme and C. Bannwarth, J. Chem. Phys., 2016, 145, 054103.
     DOI: 10.1063/1.4959605
   
   in the mass-spec context:
   * V. Asgeirsson, C. Bauer and S. Grimme, Chem. Sci., 2017, 8, 4879.
     DOI: 10.1039/c7sc00601b
   
   for metadynamics refer to:
   * S. Grimme, J. Chem. Theory Comput., 2019, 155, 2847-2862
     DOI: 10.1021/acs.jctc.9b00143
   
   with help from (in alphabetical order)
   C. Bannwarth, F. Bohle, G. Brandenburg, E. Caldeweyher, M. Checinski,
   S. Dohm, S. Ehlert, S. Ehrlich, F. März, H. Neugebauer, J. Pisarek,
   P. Pracht, P. Shushkov, and S. Spicher.
   
 * started run on 2020/05/12 at 11:45:03.820     

           -------------------------------------------------
          |                Calculation Setup                |
           -------------------------------------------------

          program call               : xtb --input C3N1_1_S_1.input C3N1_1_S_1.xyz --ohess --molden --namespace C3N1_1_S_1 output.out
          calculation namespace      : C3N1_1_S_1
          coordinate file            : C3N1_1_S_1.xyz
          number of atoms            :                     4
          number of electrons        :                    17
          charge                     :                     0
          spin                       :                   0.5
          first test random number   :      0.46597152421608

   ID    Z sym.   atoms
    1    6 C      1, 3, 4
    2    7 N      2

           -------------------------------------------------
          |                 G F N 2 - x T B                 |
           -------------------------------------------------

        Reference                      10.1021/acs.jctc.8b01176
      * Hamiltonian:
        H0-scaling (s, p, d)           1.850000    2.230000    2.230000
        zeta-weighting                 0.500000
      * Dispersion:
        s8                             2.700000
        a1                             0.520000
        a2                             5.000000
        s9                             5.000000
      * Repulsion:
        kExp                           1.500000    1.000000
        rExp                           1.000000
      * Coulomb:
        alpha                          2.000000
        third order                    shell-resolved
        anisotropic                    true
        a3                             3.000000
        a5                             4.000000
        cn-shift                       1.200000
        cn-exp                         4.000000
        max-rad                        5.000000


          ...................................................
          :                      SETUP                      :
          :.................................................:
          :  # basis functions                  16          :
          :  # atomic orbitals                  16          :
          :  # shells                            8          :
          :  # electrons                        17          :
          :  max. iterations                   250          :
          :  Hamiltonian                  GFN2-xTB          :
          :  restarted?                      false          :
          :  GBSA solvation                  false          :
          :  PC potential                    false          :
          :  electronic temp.          300.0000000     K    :
          :  accuracy                    1.0000000          :
          :  -> integral cutoff          0.2500000E+02      :
          :  -> integral neglect         0.1000000E-07      :
          :  -> SCF convergence          0.1000000E-05 Eh   :
          :  -> wf. convergence          0.1000000E-03 e    :
          :  Broyden damping             0.4000000          :
          ...................................................

 iter      E             dE          RMSdq      gap      omega  full diag
   1     -8.8076758 -0.880768E+01  0.109E+01    1.22       0.0  T
   2     -8.8188633 -0.111875E-01  0.698E+00    1.21       1.0  T
   3     -8.8178281  0.103522E-02  0.270E+00    1.20       1.0  T
   4     -8.8291318 -0.113037E-01  0.793E-01    1.20       1.0  T
   5     -8.8289835  0.148296E-03  0.522E-01    1.20       1.0  T
   6     -8.8292410 -0.257457E-03  0.274E-01    1.20       1.0  T
   7     -8.8296480 -0.407010E-03  0.146E-01    1.20       1.0  T
   8     -8.8297105 -0.625103E-04  0.702E-02    1.20       1.0  T
   9     -8.8297125 -0.194770E-05  0.598E-02    1.20       1.0  T
  10     -8.8297219 -0.945738E-05  0.228E-03    1.20      21.9  T
  11     -8.8297219 -0.164276E-07  0.850E-04    1.20      58.8  T
  12     -8.8297219  0.196064E-09  0.562E-04    1.20      89.0  T

   *** convergence criteria satisfied after 12 iterations ***

         #    Occupation            Energy/Eh            Energy/eV
      -------------------------------------------------------------
         1        2.0000           -0.7564526             -20.5841
       ...           ...                  ...                  ...
         3        2.0000           -0.6973980             -18.9772
         4        2.0000           -0.6059161             -16.4878
         5        2.0000           -0.5496758             -14.9574
         6        2.0000           -0.5327666             -14.4973
         7        2.0000           -0.5327664             -14.4973
         8        1.5000           -0.4379068             -11.9161
         9        1.5000           -0.4379068             -11.9160 (HOMO)
        10                         -0.3936319             -10.7113 (LUMO)
        11                         -0.3936317             -10.7113
        12                         -0.3836655             -10.4401
        13                         -0.3683528             -10.0234
        14                         -0.0295133              -0.8031
       ...                                ...                  ...
        16                          0.0292776               0.7967
      -------------------------------------------------------------
                  HL-Gap            0.0442749 Eh            1.2048 eV
             Fermi-level           -0.4268380 Eh          -11.6149 eV

 SCC (total)                   0 d,  0 h,  0 min,  0.003 sec
 SCC setup                      ...        0 min,  0.000 sec (  2.710%)
 Dispersion                     ...        0 min,  0.000 sec (  0.499%)
 integral evaluation            ...        0 min,  0.001 sec ( 30.006%)
 zeroth order Hamiltonian       ...        0 min,  0.000 sec (  0.558%)
 iterations                     ...        0 min,  0.001 sec ( 34.562%)
 molecular gradient             ...        0 min,  0.001 sec ( 29.693%)
 printout                       ...        0 min,  0.000 sec (  1.623%)

         :::::::::::::::::::::::::::::::::::::::::::::::::::::
         ::                     SUMMARY                     ::
         :::::::::::::::::::::::::::::::::::::::::::::::::::::
         :: total energy              -8.795896885262 Eh    ::
         :: gradient norm              0.188647448973 Eh/a0 ::
         :: HOMO-LUMO gap              1.204781262798 eV    ::
         ::.................................................::
         :: SCC energy                -8.829721933448 Eh    ::
         :: -> isotropic ES           -0.046781355653 Eh    ::
         :: -> anisotropic ES         -0.000557405108 Eh    ::
         :: -> anisotropic XC          0.005167480325 Eh    ::
         :: -> dispersion             -0.002008666604 Eh    ::
         :: repulsion energy           0.033825008048 Eh    ::
         :: add. restraining           0.000000000000 Eh    ::
         :::::::::::::::::::::::::::::::::::::::::::::::::::::

      ----------------------------------------------------------- 
     |                   =====================                   |
     |                        A N C O P T                        |
     |                   =====================                   |
     |               Approximate Normal Coordinate               |
     |                Rational Function Optimizer                |
      ----------------------------------------------------------- 

          ...................................................
          :                      SETUP                      :
          :.................................................:
          :   optimization level            normal          :
          :   max. optcycles                   200          :
          :   ANC micro-cycles                  20          :
          :   degrees of freedom                 6          :
          :.................................................:
          :   RF solver                   davidson          :
          :   write xtbopt.log                true          :
          :   linear?                        false          :
          :   energy convergence         0.5000000E-05 Eh   :
          :   grad. convergence          0.1000000E-02 Eh/α :
          :   maximium RF displ.         1.0000000          :
          :   Hlow (freq-cutoff)         0.1000000E-01      :
          :   Hmax (freq-cutoff)         5.0000000          :
          :   S6 in model hess.         20.0000000          :
          ...................................................

generating ANC from model Hessian ...
Using Lindh-Hessian (1995)
 Shifting diagonal of input Hessian by    0.0000000000000000     
 Lowest  eigenvalues of input Hessian
   -0.000000   -0.000000   -0.000000    0.000000    0.000000    0.000000
    0.112499    0.112499    0.112881    0.757573    1.162466    1.162468
 Highest eigenvalues
    0.112499    0.112499    0.112881    0.757573    1.162466    1.162468


........................................................................
.............................. CYCLE    1 ..............................
........................................................................
   1     -8.8297219 -0.882972E+01  0.164E-04    1.20       0.0  T
   2     -8.8297219  0.616396E-12  0.119E-04    1.20     421.7  T
   3     -8.8297219  0.755710E-09  0.333E-04    1.20     150.1  T
     SCC iter.                  ...        0 min,  0.000 sec
     gradient                   ...        0 min,  0.001 sec
 * total energy  :    -8.7958969 Eh     change        0.6617928E-08 Eh
   gradient norm :     0.1886543 Eh/α   predicted     0.0000000E+00 (-100.00%)
   displ. norm   :     0.3058314 α      lambda       -0.4935704E-01
   maximum displ.:     0.2302637 α      in ANC's #4, #3, #2, ...

........................................................................
.............................. CYCLE    2 ..............................
........................................................................
   1     -8.8920936 -0.889209E+01  0.175E+00    1.77       0.0  T
   2     -8.8972879 -0.519429E-02  0.959E-01    1.76       1.0  T
   3     -8.8976821 -0.394287E-03  0.551E-01    1.76       1.0  T
   4     -8.8977009 -0.187337E-04  0.627E-02    1.75       1.0  T
   5     -8.8976883  0.125348E-04  0.471E-02    1.75       1.1  T
   6     -8.8977002 -0.118496E-04  0.217E-02    1.75       2.3  T
   7     -8.8977025 -0.235554E-05  0.459E-03    1.75      10.9  T
   8     -8.8977026 -0.677416E-08  0.980E-04    1.75      51.0  T
   9     -8.8977026 -0.484176E-08  0.455E-04    1.75     110.0  T
     SCC iter.                  ...        0 min,  0.001 sec
     gradient                   ...        0 min,  0.001 sec
 * total energy  :    -8.8337393 Eh     change       -0.3784241E-01 Eh
   gradient norm :     0.0882790 Eh/α   predicted    -0.2698677E-01 ( -28.69%)
   displ. norm   :     0.2894177 α      lambda       -0.2093351E-01
   maximum displ.:     0.2155149 α      in ANC's #3, #4, #2, ...

........................................................................
.............................. CYCLE    3 ..............................
........................................................................
   1     -8.9439683 -0.894397E+01  0.166E+00    2.59       0.0  T
   2     -8.9473228 -0.335444E-02  0.861E-01    2.54       1.0  T
   3     -8.9474343 -0.111567E-03  0.486E-01    2.57       1.0  T
   4     -8.9474458 -0.114985E-04  0.700E-02    2.56       1.0  T
   5     -8.9473020  0.143802E-03  0.161E-01    2.55       1.0  T
   6     -8.9474536 -0.151539E-03  0.865E-03    2.56       5.8  T
   7     -8.9474536 -0.592539E-07  0.481E-03    2.56      10.4  T
   8     -8.9474533  0.383411E-06  0.895E-03    2.56       5.6  T
   9     -8.9474537 -0.440561E-06  0.255E-04    2.56     196.1  T
  10     -8.9474537 -0.124411E-09  0.567E-05    2.56     881.7  T
     SCC iter.                  ...        0 min,  0.001 sec
     gradient                   ...        0 min,  0.001 sec
 * total energy  :    -8.8404783 Eh     change       -0.6738992E-02 Eh
   gradient norm :     0.0588553 Eh/α   predicted    -0.1134348E-01 (  68.33%)
   displ. norm   :     0.0903409 α      lambda       -0.4491588E-02
   maximum displ.:     0.0668677 α      in ANC's #4, #3, #1, ...

........................................................................
.............................. CYCLE    4 ..............................
........................................................................
   1     -8.9297234 -0.892972E+01  0.755E-01    2.09       0.0  T
   2     -8.9301945 -0.471121E-03  0.395E-01    2.15       1.0  T
   3     -8.9302032 -0.870307E-05  0.205E-01    2.13       1.0  T
   4     -8.9296955  0.507657E-03  0.321E-01    2.13       1.0  T
   5     -8.9302224 -0.526836E-03  0.277E-02    2.13       1.8  T
   6     -8.9302212  0.118181E-05  0.179E-02    2.13       2.8  T
   7     -8.9302225 -0.136805E-05  0.684E-03    2.13       7.3  T
   8     -8.9302227 -0.178951E-06  0.226E-03    2.13      22.2  T
   9     -8.9302227 -0.180273E-07  0.795E-04    2.13      62.9  T
  10     -8.9302227 -0.252973E-08  0.357E-05    2.13    1400.0  T
     SCC iter.                  ...        0 min,  0.001 sec
     gradient                   ...        0 min,  0.001 sec
 * total energy  :    -8.8426559 Eh     change       -0.2177590E-02 Eh
   gradient norm :     0.0065649 Eh/α   predicted    -0.2264122E-02 (   3.97%)
   displ. norm   :     0.0487891 α      lambda       -0.2269763E-03
   maximum displ.:     0.0483384 α      in ANC's #3, #4, #1, ...

........................................................................
.............................. CYCLE    5 ..............................
........................................................................
   1     -8.9306878 -0.893069E+01  0.332E-01    2.02       0.0  T
   2     -8.9306545  0.333608E-04  0.181E-01    2.02       1.0  T
   3     -8.9299137  0.740787E-03  0.416E-01    2.01       1.0  T
   4     -8.9306288 -0.715121E-03  0.131E-01    2.02       1.0  T
   5     -8.9306980 -0.691707E-04  0.225E-02    2.02       2.2  T
   6     -8.9306978  0.190608E-06  0.217E-02    2.02       2.3  T
   7     -8.9306999 -0.210090E-05  0.310E-03    2.02      16.1  T
   8     -8.9306999 -0.179604E-07  0.356E-04    2.02     140.4  T
   9     -8.9306999 -0.132880E-09  0.150E-04    2.02     332.7  T
     SCC iter.                  ...        0 min,  0.001 sec
     gradient                   ...        0 min,  0.001 sec
 * total energy  :    -8.8428078 Eh     change       -0.1519580E-03 Eh
   gradient norm :     0.0035600 Eh/α   predicted    -0.1137568E-03 ( -25.14%)
   displ. norm   :     0.0390537 α      lambda       -0.8885541E-04
   maximum displ.:     0.0322430 α      in ANC's #3, #1, #4, ...

........................................................................
.............................. CYCLE    6 ..............................
........................................................................
   1     -8.9310388 -0.893104E+01  0.150E+00    1.91       0.0  T
   2     -8.9277555  0.328325E-02  0.747E-01    1.93       1.0  T
   3     -8.9107585  0.169970E-01  0.207E+00    1.91       1.0  T
   4     -8.9314468 -0.206883E-01  0.920E-02    1.93       1.0  T
   5     -8.9314275  0.193456E-04  0.978E-02    1.93       1.0  T
   6     -8.9314617 -0.342006E-04  0.389E-02    1.93       1.3  T
   7     -8.9314661 -0.441964E-05  0.554E-03    1.93       9.0  T
   8     -8.9314661  0.980485E-08  0.381E-03    1.93      13.1  T
   9     -8.9314661 -0.434651E-07  0.132E-03    1.93      37.9  T
  10     -8.9314661 -0.567799E-08  0.224E-04    1.93     223.7  T
  11     -8.9314661 -0.890044E-10  0.836E-05    1.93     597.9  T
     SCC iter.                  ...        0 min,  0.001 sec
     gradient                   ...        0 min,  0.001 sec
 * total energy  :    -8.8430223 Eh     change       -0.2145095E-03 Eh
   gradient norm :     0.0204931 Eh/α   predicted    -0.4449578E-04 ( -79.26%)
   displ. norm   :     0.1561044 α      lambda       -0.2381346E-02
   maximum displ.:     0.1383674 α      in ANC's #1, #3, #2, ...

........................................................................
.............................. CYCLE    7 ..............................
........................................................................
   1     -8.9350015 -0.893500E+01  0.221E+00    1.55       0.0  T
   2     -8.9219670  0.130345E-01  0.190E+00    1.57       1.0  T
   3     -8.9057905  0.161764E-01  0.235E+00    1.57       1.0  T
   4     -8.9348264 -0.290359E-01  0.571E-01    1.58       1.0  T
   5     -8.9368461 -0.201969E-02  0.139E-01    1.57       1.0  T
   6     -8.9368984 -0.522555E-04  0.700E-02    1.57       1.0  T
   7     -8.9369063 -0.789408E-05  0.648E-03    1.57       7.7  T
   8     -8.9369064 -0.642495E-07  0.384E-03    1.57      13.0  T
   9     -8.9369064 -0.423964E-07  0.112E-03    1.57      44.5  T
  10     -8.9369064 -0.292296E-08  0.524E-04    1.57      95.3  T
  11     -8.9369064 -0.965573E-09  0.889E-05    1.57     562.2  T
     SCC iter.                  ...        0 min,  0.001 sec
     gradient                   ...        0 min,  0.001 sec
 * total energy  :    -8.8492415 Eh     change       -0.6219132E-02 Eh
   gradient norm :     0.0663103 Eh/α   predicted    -0.1219687E-02 ( -80.39%)
   displ. norm   :     0.3932729 α      lambda       -0.1918474E-01
   maximum displ.:     0.3557008 α      in ANC's #1, #3, #2, ...

........................................................................
.............................. CYCLE    8 ..............................
........................................................................
   1     -8.9334083 -0.893341E+01  0.374E+00    0.78       0.0  T
   2     -8.8777141  0.556943E-01  0.368E+00    0.57       1.0  T
   3     -8.9217787 -0.440647E-01  0.262E+00    0.87       1.0  T
   4     -8.9420047 -0.202260E-01  0.114E+00    0.65       1.0  T
   5     -8.9479926 -0.598787E-02  0.534E-01    0.61       1.0  T
   6     -8.9492087 -0.121615E-02  0.215E-01    0.63       1.0  T
   7     -8.9492274 -0.186642E-04  0.249E-02    0.63       2.0  T
   8     -8.9492274 -0.257058E-08  0.982E-03    0.63       5.1  T
   9     -8.9492275 -0.148804E-06  0.573E-03    0.63       8.7  T
  10     -8.9492275 -0.112283E-07  0.120E-03    0.63      41.5  T
  11     -8.9492275  0.152614E-09  0.324E-04    0.63     154.3  T
  12     -8.9492275 -0.265656E-09  0.950E-05    0.63     526.6  T
     SCC iter.                  ...        0 min,  0.001 sec
     gradient                   ...        0 min,  0.001 sec
 * total energy  :    -8.8674353 Eh     change       -0.1819387E-01 Eh
   gradient norm :     0.0838670 Eh/α   predicted    -0.1107596E-01 ( -39.12%)
   displ. norm   :     0.9300730 α      lambda       -0.4817368E-01
   maximum displ.:     0.8436559 α      in ANC's #1, #3, #2, ...

........................................................................
.............................. CYCLE    9 ..............................
........................................................................
   1     -8.9404464 -0.894045E+01  0.868E+00    1.09       0.0  T
   2     -8.9481409 -0.769442E-02  0.523E+00    0.99       1.0  T
   3     -8.9082176  0.399232E-01  0.484E+00    1.29       1.0  T
   4     -8.8817960  0.264217E-01  0.400E+00    0.53       1.0  T
   5     -8.9978238 -0.116028E+00  0.109E+00    1.14       1.0  T
   6     -9.0047204 -0.689659E-02  0.409E-01    0.94       1.0  T
   7     -9.0048172 -0.967485E-04  0.282E-01    0.96       1.0  T
   8     -9.0048596 -0.423881E-04  0.249E-02    0.95       2.0  T
   9     -9.0048600 -0.423842E-06  0.116E-02    0.95       4.3  T
  10     -9.0048602 -0.197314E-06  0.167E-03    0.95      29.9  T
  11     -9.0048602  0.822896E-09  0.675E-04    0.95      74.1  T
  12     -9.0048602 -0.129180E-08  0.133E-04    0.95     375.7  T
     SCC iter.                  ...        0 min,  0.001 sec
     gradient                   ...        0 min,  0.001 sec
 * total energy  :    -8.9297286 Eh     change       -0.6229328E-01 Eh
   gradient norm :     0.1376614 Eh/α   predicted    -0.4492280E-01 ( -27.88%)
   displ. norm   :     0.7225421 α      lambda       -0.3687229E-01
   maximum displ.:     0.4929360 α      in ANC's #1, #3, #2, ...

........................................................................
.............................. CYCLE   10 ..............................
........................................................................
   1     -9.0068817 -0.900688E+01  0.636E+00    1.19       0.0  T
   2     -8.9991837  0.769797E-02  0.486E+00    1.26       1.0  T
   3     -9.0298735 -0.306898E-01  0.299E+00    1.49       1.0  T
   4     -9.0022491  0.276244E-01  0.268E+00    0.73       1.0  T
   5     -9.0510898 -0.488408E-01  0.282E-01    1.26       1.0  T
   6     -9.0510697  0.200975E-04  0.198E-01    1.26       1.0  T
   7     -9.0509447  0.125053E-03  0.184E-01    1.25       1.0  T
   8     -9.0511117 -0.167025E-03  0.203E-02    1.25       2.5  T
   9     -9.0511125 -0.735977E-06  0.264E-03    1.25      19.0  T
  10     -9.0511125 -0.135707E-07  0.126E-03    1.25      39.7  T
  11     -9.0511125 -0.426410E-08  0.230E-04    1.25     217.0  T
  12     -9.0511125 -0.212257E-10  0.105E-04    1.25     475.3  T
     SCC iter.                  ...        0 min,  0.001 sec
     gradient                   ...        0 min,  0.001 sec
 * total energy  :    -8.9289366 Eh     change        0.7920603E-03 Eh
   gradient norm :     0.1880227 Eh/α   predicted    -0.2806108E-01 (*******%)
   displ. norm   :     0.5044282 α      lambda       -0.7500238E-01
   maximum displ.:     0.3534274 α      in ANC's #2, #6, #1, ...

........................................................................
.............................. CYCLE   11 ..............................
........................................................................
   1     -9.0120317 -0.901203E+01  0.576E+00    0.58       0.0  T
   2     -8.7580906  0.253941E+00  0.676E+00    0.58       1.0  T
   3     -8.9299229 -0.171832E+00  0.505E+00    1.19       1.0  T
   4     -9.0185231 -0.886002E-01  0.242E+00    0.81       1.0  T
   5     -9.0247627 -0.623962E-02  0.190E+00    0.63       1.0  T
   6     -9.0334186 -0.865592E-02  0.134E+00    0.59       1.0  T
   7     -9.0396899 -0.627128E-02  0.243E-01    0.44       1.0  T
   8     -9.0395208  0.169114E-03  0.247E-01    0.40       1.0  T
   9     -9.0397466 -0.225806E-03  0.546E-02    0.43       1.0  T
  10     -9.0397618 -0.152390E-04  0.121E-02    0.42       4.1  T
  11     -9.0397621 -0.317573E-06  0.622E-03    0.42       8.0  T
  12     -9.0397622 -0.246516E-07  0.186E-03    0.42      26.9  T
  13     -9.0397622 -0.763491E-08  0.115E-03    0.42      43.4  T
  14     -9.0397622 -0.387483E-08  0.871E-05    0.42     573.9  T
  15     -9.0397622 -0.134026E-10  0.163E-05    0.42    3075.9  T
     SCC iter.                  ...        0 min,  0.001 sec
     gradient                   ...        0 min,  0.001 sec
 * total energy  :    -8.9309819 Eh     change       -0.2045386E-02 Eh
   gradient norm :     0.1779574 Eh/α   predicted    -0.4704330E-01 (2199.97%)
   displ. norm   :     0.5700439 α      lambda       -0.6987999E-01
   maximum displ.:     0.4151051 α      in ANC's #2, #3, #1, ...

........................................................................
.............................. CYCLE   12 ..............................
........................................................................
   1     -9.0283209 -0.902832E+01  0.599E+00    1.54       0.0  T
   2     -9.0351817 -0.686087E-02  0.356E+00    1.26       1.0  T
   3     -9.0399903 -0.480860E-02  0.273E+00    1.61       1.0  T
   4     -9.0438750 -0.388462E-02  0.173E+00    1.35       1.0  T
   5     -9.0608577 -0.169828E-01  0.850E-01    1.43       1.0  T
   6     -9.0645139 -0.365619E-02  0.228E-01    1.48       1.0  T
   7     -9.0644962  0.177192E-04  0.156E-01    1.49       1.0  T
   8     -9.0645200 -0.238003E-04  0.165E-02    1.49       3.0  T
   9     -9.0645206 -0.612515E-06  0.410E-03    1.49      12.2  T
  10     -9.0645206 -0.250604E-07  0.103E-03    1.49      48.7  T
  11     -9.0645206 -0.244011E-08  0.293E-04    1.49     170.4  T
  12     -9.0645206 -0.232014E-09  0.663E-05    1.49     753.8  T
     SCC iter.                  ...        0 min,  0.001 sec
     gradient                   ...        0 min,  0.001 sec
 * total energy  :    -8.9521481 Eh     change       -0.2116611E-01 Eh
   gradient norm :     0.1429983 Eh/α   predicted    -0.4629376E-01 ( 118.72%)
   displ. norm   :     0.3237046 α      lambda       -0.3224179E-01
   maximum displ.:     0.2166249 α      in ANC's #1, #3, #6, ...

........................................................................
.............................. CYCLE   13 ..............................
........................................................................
   1     -9.0431841 -0.904318E+01  0.298E+00    1.44       0.0  T
   2     -9.0424652  0.718956E-03  0.238E+00    1.42       1.0  T
   3     -9.0524979 -0.100327E-01  0.142E+00    1.48       1.0  T
   4     -9.0430436  0.945437E-02  0.136E+00    1.35       1.0  T
   5     -9.0566239 -0.135803E-01  0.179E-01    1.46       1.0  T
   6     -9.0566920 -0.680760E-04  0.110E-01    1.43       1.0  T
   7     -9.0567247 -0.327190E-04  0.555E-02    1.45       1.0  T
   8     -9.0567349 -0.101971E-04  0.938E-03    1.44       5.3  T
   9     -9.0567349 -0.330046E-07  0.215E-03    1.44      23.3  T
  10     -9.0567349 -0.150693E-07  0.551E-04    1.44      90.8  T
  11     -9.0567349 -0.244029E-09  0.875E-05    1.44     571.3  T
     SCC iter.                  ...        0 min,  0.001 sec
     gradient                   ...        0 min,  0.001 sec
 * total energy  :    -8.9573646 Eh     change       -0.5216508E-02 Eh
   gradient norm :     0.0846931 Eh/α   predicted    -0.1781011E-01 ( 241.42%)
   displ. norm   :     0.1408715 α      lambda       -0.1021384E-01
   maximum displ.:     0.1225232 α      in ANC's #1, #6, #4, ...

........................................................................
.............................. CYCLE   14 ..............................
........................................................................
   1     -9.0701114 -0.907011E+01  0.994E-01    1.45       0.0  T
   2     -9.0698445  0.266913E-03  0.648E-01    1.48       1.0  T
   3     -9.0686256  0.121888E-02  0.693E-01    1.45       1.0  T
   4     -9.0699466 -0.132094E-02  0.342E-01    1.46       1.0  T
   5     -9.0706787 -0.732126E-03  0.575E-02    1.46       1.0  T
   6     -9.0706836 -0.491519E-05  0.175E-02    1.46       2.9  T
   7     -9.0706840 -0.447159E-06  0.135E-02    1.46       3.7  T
   8     -9.0706848 -0.730506E-06  0.354E-03    1.46      14.1  T
   9     -9.0706848 -0.379877E-08  0.353E-04    1.46     141.5  T
  10     -9.0706848 -0.677787E-10  0.627E-05    1.46     796.8  T
     SCC iter.                  ...        0 min,  0.001 sec
     gradient                   ...        0 min,  0.001 sec
 * total energy  :    -8.9644802 Eh     change       -0.7115588E-02 Eh
   gradient norm :     0.0386771 Eh/α   predicted    -0.5208264E-02 ( -26.80%)
   displ. norm   :     0.1902305 α      lambda       -0.5457824E-02
   maximum displ.:     0.1677228 α      in ANC's #1, #3, #2, ...

........................................................................
.............................. CYCLE   15 ..............................
........................................................................
   1     -9.0869015 -0.908690E+01  0.116E+00    1.75       0.0  T
   2     -9.0865759  0.325576E-03  0.713E-01    1.73       1.0  T
   3     -9.0821024  0.447348E-02  0.939E-01    1.78       1.0  T
   4     -9.0869028 -0.480039E-02  0.222E-01    1.74       1.0  T
   5     -9.0871853 -0.282553E-03  0.720E-02    1.73       1.0  T
   6     -9.0871972 -0.118333E-04  0.375E-02    1.74       1.3  T
   7     -9.0872010 -0.383505E-05  0.928E-03    1.74       5.4  T
   8     -9.0872013 -0.268456E-06  0.250E-03    1.74      20.0  T
   9     -9.0872013 -0.320017E-08  0.302E-04    1.74     165.4  T
  10     -9.0872013 -0.625135E-10  0.601E-05    1.74     832.4  T
     SCC iter.                  ...        0 min,  0.001 sec
     gradient                   ...        0 min,  0.001 sec
 * total energy  :    -8.9684816 Eh     change       -0.4001428E-02 Eh
   gradient norm :     0.0606097 Eh/α   predicted    -0.2827664E-02 ( -29.33%)
   displ. norm   :     0.3929055 α      lambda       -0.8343171E-02
   maximum displ.:     0.3472580 α      in ANC's #1, #3, #2, ...

........................................................................
.............................. CYCLE   16 ..............................
........................................................................
   1     -9.0885290 -0.908853E+01  0.261E+00    3.11       0.0  T
   2     -9.0851634  0.336557E-02  0.162E+00    2.98       1.0  T
   3     -9.0435577  0.416057E-01  0.357E+00    3.26       1.0  T
   4     -9.0886409 -0.450831E-01  0.503E-01    3.06       1.0  T
   5     -9.0895111 -0.870233E-03  0.214E-01    3.05       1.0  T
   6     -9.0896172 -0.106116E-03  0.172E-01    3.06       1.0  T
   7     -9.0896473 -0.301313E-04  0.118E-01    3.05       1.0  T
   8     -9.0896641 -0.167641E-04  0.140E-02    3.06       3.6  T
   9     -9.0896643 -0.151366E-06  0.328E-03    3.06      15.2  T
  10     -9.0896643 -0.185745E-07  0.113E-03    3.06      44.3  T
  11     -9.0896643 -0.195116E-08  0.128E-04    3.06     389.6  T
  12     -9.0896643 -0.107754E-10  0.609E-05    3.06     820.9  T
     SCC iter.                  ...        0 min,  0.001 sec
     gradient                   ...        0 min,  0.001 sec
 * total energy  :    -8.9719708 Eh     change       -0.3489221E-02 Eh
   gradient norm :     0.0853274 Eh/α   predicted    -0.4815579E-02 (  38.01%)
   displ. norm   :     0.0883205 α      lambda       -0.4376149E-02
   maximum displ.:     0.0837009 α      in ANC's #1, #5, #6, ...

........................................................................
.............................. CYCLE   17 ..............................
........................................................................
   1     -9.0919013 -0.909190E+01  0.771E-01    2.83       0.0  T
   2     -9.0919160 -0.146959E-04  0.535E-01    2.79       1.0  T
   3     -9.0918705  0.454383E-04  0.378E-01    2.84       1.0  T
   4     -9.0913161  0.554462E-03  0.411E-01    2.79       1.0  T
   5     -9.0922792 -0.963110E-03  0.372E-02    2.81       1.3  T
   6     -9.0922767  0.245160E-05  0.280E-02    2.81       1.8  T
   7     -9.0922812 -0.447059E-05  0.635E-03    2.81       7.9  T
   8     -9.0922813 -0.869836E-07  0.247E-03    2.81      20.2  T
   9     -9.0922813 -0.647316E-08  0.284E-04    2.81     176.0  T
  10     -9.0922813 -0.889937E-10  0.811E-05    2.81     616.3  T
     SCC iter.                  ...        0 min,  0.001 sec
     gradient                   ...        0 min,  0.001 sec
 * total energy  :    -8.9750550 Eh     change       -0.3084241E-02 Eh
   gradient norm :     0.0496163 Eh/α   predicted    -0.2205144E-02 ( -28.50%)
   displ. norm   :     0.1121223 α      lambda       -0.4401515E-02
   maximum displ.:     0.0807064 α      in ANC's #5, #6, #2, ...

........................................................................
.............................. CYCLE   18 ..............................
........................................................................
   1     -9.0895370 -0.908954E+01  0.120E+00    2.94       0.0  T
   2     -9.0831348  0.640221E-02  0.132E+00    2.79       1.0  T
   3     -9.0882969 -0.516214E-02  0.946E-01    2.95       1.0  T
   4     -9.0907031 -0.240620E-02  0.246E-01    2.90       1.0  T
   5     -9.0909525 -0.249411E-03  0.109E-01    2.90       1.0  T
   6     -9.0909991 -0.465774E-04  0.578E-02    2.90       1.0  T
   7     -9.0910085 -0.938141E-05  0.190E-02    2.90       2.6  T
   8     -9.0910101 -0.164065E-05  0.385E-03    2.90      13.0  T
   9     -9.0910101 -0.562668E-08  0.717E-04    2.90      69.7  T
  10     -9.0910101 -0.725489E-09  0.322E-04    2.90     155.3  T
     SCC iter.                  ...        0 min,  0.001 sec
     gradient                   ...        0 min,  0.001 sec
 * total energy  :    -8.9782033 Eh     change       -0.3148262E-02 Eh
   gradient norm :     0.0254341 Eh/α   predicted    -0.2228425E-02 ( -29.22%)
   displ. norm   :     0.1858711 α      lambda       -0.3988076E-02
   maximum displ.:     0.1244942 α      in ANC's #6, #5, #1, ...

........................................................................
.............................. CYCLE   19 ..............................
........................................................................
   1     -9.0902980 -0.909030E+01  0.180E+00    2.80       0.0  T
   2     -9.0810830  0.921498E-02  0.157E+00    2.91       1.0  T
   3     -9.0842752 -0.319214E-02  0.153E+00    2.75       1.0  T
   4     -9.0917431 -0.746794E-02  0.470E-01    2.82       1.0  T
   5     -9.0924278 -0.684683E-03  0.181E-01    2.83       1.0  T
   6     -9.0925299 -0.102099E-03  0.108E-01    2.84       1.0  T
   7     -9.0925384 -0.856792E-05  0.409E-02    2.84       1.2  T
   8     -9.0925449 -0.649718E-05  0.569E-03    2.84       8.8  T
   9     -9.0925449 -0.591147E-08  0.210E-03    2.84      23.8  T
  10     -9.0925450 -0.542197E-08  0.112E-03    2.84      44.4  T
  11     -9.0925450 -0.280518E-08  0.606E-05    2.84     825.3  T
  12     -9.0925450 -0.306422E-11  0.148E-05    2.84    3371.0  T
     SCC iter.                  ...        0 min,  0.001 sec
     gradient                   ...        0 min,  0.001 sec
 * total energy  :    -8.9811094 Eh     change       -0.2906057E-02 Eh
   gradient norm :     0.0268227 Eh/α   predicted    -0.2062927E-02 ( -29.01%)
   displ. norm   :     0.1915851 α      lambda       -0.2660013E-02
   maximum displ.:     0.1301050 α      in ANC's #6, #5, #1, ...

........................................................................
.............................. CYCLE   20 ..............................
........................................................................
   1     -9.0913810 -0.909138E+01  0.158E+00    2.04       0.0  T
   2     -9.0893606  0.202037E-02  0.107E+00    2.12       1.0  T
   3     -9.0825588  0.680179E-02  0.132E+00    1.96       1.0  T
   4     -9.0916476 -0.908876E-02  0.296E-01    2.05       1.0  T
   5     -9.0921623 -0.514753E-03  0.956E-02    2.07       1.0  T
   6     -9.0921758 -0.134667E-04  0.416E-02    2.07       1.2  T
   7     -9.0921784 -0.255933E-05  0.130E-02    2.07       3.9  T
   8     -9.0921787 -0.367877E-06  0.440E-03    2.07      11.4  T
   9     -9.0921787 -0.109809E-07  0.666E-04    2.07      75.1  T
  10     -9.0921787 -0.405123E-09  0.197E-04    2.07     253.5  T
     SCC iter.                  ...        0 min,  0.001 sec
     gradient                   ...        0 min,  0.001 sec
 * total energy  :    -8.9823984 Eh     change       -0.1289084E-02 Eh
   gradient norm :     0.0228641 Eh/α   predicted    -0.1378827E-02 (   6.96%)
   displ. norm   :     0.0415239 α      lambda       -0.7598919E-03
   maximum displ.:     0.0364641 α      in ANC's #2, #4, #5, ...
 * RMSD in coord.:     1.1150550 α      energy gain  -0.1865016E+00 Eh

generating ANC from model Hessian ...
Using Lindh-Hessian (1995)
 Shifting diagonal of input Hessian by    0.0000000000000000     
 Lowest  eigenvalues of input Hessian
   -0.000000   -0.000000   -0.000000    0.000000    0.000000    0.000000
    0.178103    0.615446    1.018549    1.313930    1.461385    1.624584
 Highest eigenvalues
    0.178103    0.615446    1.018549    1.313930    1.461385    1.624584


........................................................................
.............................. CYCLE   21 ..............................
........................................................................
   1     -9.0937037 -0.909370E+01  0.424E-01    2.12       0.0  T
   2     -9.0934536  0.250170E-03  0.336E-01    2.16       1.0  T
   3     -9.0933498  0.103734E-03  0.305E-01    2.14       1.0  T
   4     -9.0937541 -0.404303E-03  0.136E-01    2.13       1.0  T
   5     -9.0938255 -0.713876E-04  0.490E-02    2.15       1.0  T
   6     -9.0938374 -0.119291E-04  0.195E-02    2.14       2.6  T
   7     -9.0938381 -0.608667E-06  0.324E-03    2.14      15.4  T
   8     -9.0938381 -0.183157E-07  0.125E-03    2.14      40.0  T
   9     -9.0938381 -0.224359E-08  0.104E-04    2.14     481.2  T
  10     -9.0938381 -0.294698E-11  0.167E-05    2.14    3001.7  T
     SCC iter.                  ...        0 min,  0.001 sec
     gradient                   ...        0 min,  0.001 sec
 * total energy  :    -8.9829451 Eh     change       -0.5466327E-03 Eh
   gradient norm :     0.0144025 Eh/α   predicted     0.0000000E+00 (-100.00%)
   displ. norm   :     0.0126552 α      lambda       -0.1730075E-03
   maximum displ.:     0.0103113 α      in ANC's #3, #6, #1, ...

........................................................................
.............................. CYCLE   22 ..............................
........................................................................
   1     -9.0952425 -0.909524E+01  0.145E-01    2.16       0.0  T
   2     -9.0951949  0.476173E-04  0.128E-01    2.17       1.0  T
   3     -9.0952139 -0.189932E-04  0.990E-02    2.16       1.0  T
   4     -9.0952469 -0.329770E-04  0.455E-02    2.16       1.1  T
   5     -9.0952590 -0.120688E-04  0.963E-03    2.16       5.2  T
   6     -9.0952591 -0.129016E-06  0.457E-03    2.16      10.9  T
   7     -9.0952591 -0.396707E-07  0.111E-03    2.16      44.9  T
   8     -9.0952591 -0.239717E-08  0.389E-04    2.16     128.6  T
   9     -9.0952591 -0.262597E-09  0.438E-05    2.16    1141.8  T
     SCC iter.                  ...        0 min,  0.001 sec
     gradient                   ...        0 min,  0.001 sec
 * total energy  :    -8.9830858 Eh     change       -0.1407697E-03 Eh
   gradient norm :     0.0089221 Eh/α   predicted    -0.8651702E-04 ( -38.54%)
   displ. norm   :     0.0275933 α      lambda       -0.2387790E-03
   maximum displ.:     0.0244658 α      in ANC's #3, #1, #2, ...

........................................................................
.............................. CYCLE   23 ..............................
........................................................................
   1     -9.0969376 -0.909694E+01  0.367E-01    2.17       0.0  T
   2     -9.0967630  0.174647E-03  0.276E-01    2.19       1.0  T
   3     -9.0965024  0.260570E-03  0.301E-01    2.18       1.0  T
   4     -9.0969645 -0.462144E-03  0.852E-02    2.17       1.0  T
   5     -9.0969993 -0.347940E-04  0.317E-02    2.19       1.6  T
   6     -9.0970030 -0.369242E-05  0.141E-02    2.19       3.6  T
   7     -9.0970032 -0.197983E-06  0.277E-03    2.19      18.1  T
   8     -9.0970032 -0.150740E-07  0.113E-03    2.19      44.2  T
   9     -9.0970032 -0.249528E-08  0.905E-05    2.19     552.4  T
  10     -9.0970032 -0.146727E-11  0.176E-05    2.19    2843.7  T
     SCC iter.                  ...        0 min,  0.001 sec
     gradient                   ...        0 min,  0.001 sec
 * total energy  :    -8.9832263 Eh     change       -0.1404144E-03 Eh
   gradient norm :     0.0068974 Eh/α   predicted    -0.1194811E-03 ( -14.91%)
   displ. norm   :     0.0126908 α      lambda       -0.5252470E-04
   maximum displ.:     0.0109327 α      in ANC's #3, #2, #1, ...

........................................................................
.............................. CYCLE   24 ..............................
........................................................................
   1     -9.0967621 -0.909676E+01  0.195E-01    2.17       0.0  T
   2     -9.0967582  0.390862E-05  0.110E-01    2.18       1.0  T
   3     -9.0966450  0.113228E-03  0.142E-01    2.17       1.0  T
   4     -9.0967622 -0.117225E-03  0.342E-02    2.17       1.5  T
   5     -9.0967677 -0.552352E-05  0.127E-02    2.17       3.9  T
   6     -9.0967683 -0.573672E-06  0.675E-03    2.17       7.4  T
   7     -9.0967684 -0.925560E-07  0.108E-03    2.17      46.1  T
   8     -9.0967684 -0.200316E-08  0.353E-04    2.17     141.6  T
   9     -9.0967684 -0.218446E-09  0.427E-05    2.17    1172.2  T
     SCC iter.                  ...        0 min,  0.001 sec
     gradient                   ...        0 min,  0.001 sec
 * total energy  :    -8.9832707 Eh     change       -0.4440379E-04 Eh
   gradient norm :     0.0066660 Eh/α   predicted    -0.2626772E-04 ( -40.84%)
   displ. norm   :     0.0367482 α      lambda       -0.1430004E-03
   maximum displ.:     0.0289226 α      in ANC's #3, #2, #4, ...

........................................................................
.............................. CYCLE   25 ..............................
........................................................................
   1     -9.0954976 -0.909550E+01  0.555E-01    2.09       0.0  T
   2     -9.0955135 -0.158957E-04  0.301E-01    2.11       1.0  T
   3     -9.0955039  0.954716E-05  0.727E-02    2.10       1.0  T
   4     -9.0955148 -0.109034E-04  0.331E-02    2.10       1.5  T
   5     -9.0955177 -0.286042E-05  0.221E-02    2.11       2.3  T
   6     -9.0955179 -0.174070E-06  0.140E-02    2.10       3.6  T
   7     -9.0955192 -0.134511E-05  0.307E-03    2.10      16.3  T
   8     -9.0955192 -0.250498E-07  0.502E-04    2.10      99.6  T
   9     -9.0955192 -0.376584E-09  0.109E-04    2.10     459.2  T
     SCC iter.                  ...        0 min,  0.001 sec
     gradient                   ...        0 min,  0.001 sec
 * total energy  :    -8.9833661 Eh     change       -0.9540427E-04 Eh
   gradient norm :     0.0059286 Eh/α   predicted    -0.7159786E-04 ( -24.95%)
   displ. norm   :     0.0238328 α      lambda       -0.6166626E-04
   maximum displ.:     0.0171415 α      in ANC's #3, #2, #4, ...

........................................................................
.............................. CYCLE   26 ..............................
........................................................................
   1     -9.0947773 -0.909478E+01  0.359E-01    2.05       0.0  T
   2     -9.0947497  0.275865E-04  0.205E-01    2.04       1.0  T
   3     -9.0941316  0.618146E-03  0.316E-01    2.05       1.0  T
   4     -9.0947911 -0.659553E-03  0.183E-02    2.05       2.7  T
   5     -9.0947912 -0.112074E-06  0.136E-02    2.04       3.7  T
   6     -9.0947919 -0.717434E-06  0.209E-03    2.05      23.9  T
   7     -9.0947920 -0.674373E-08  0.121E-03    2.05      41.4  T
   8     -9.0947920 -0.242863E-08  0.537E-04    2.05      93.1  T
   9     -9.0947920 -0.515218E-09  0.491E-05    2.05    1017.9  T
     SCC iter.                  ...        0 min,  0.001 sec
     gradient                   ...        0 min,  0.001 sec
 * total energy  :    -8.9834084 Eh     change       -0.4232449E-04 Eh
   gradient norm :     0.0052522 Eh/α   predicted    -0.3085057E-04 ( -27.11%)
   displ. norm   :     0.0143857 α      lambda       -0.4101588E-04
   maximum displ.:     0.0103593 α      in ANC's #4, #3, #2, ...

........................................................................
.............................. CYCLE   27 ..............................
........................................................................
   1     -9.0944263 -0.909443E+01  0.222E-01    2.02       0.0  T
   2     -9.0943520  0.742863E-04  0.164E-01    2.03       1.0  T
   3     -9.0942301  0.121890E-03  0.193E-01    2.02       1.0  T
   4     -9.0944468 -0.216715E-03  0.186E-02    2.02       2.7  T
   5     -9.0944485 -0.170196E-05  0.771E-03    2.02       6.5  T
   6     -9.0944487 -0.149554E-06  0.239E-03    2.02      20.9  T
   7     -9.0944487 -0.103096E-07  0.462E-04    2.02     108.1  T
   8     -9.0944487 -0.705089E-10  0.260E-04    2.02     192.3  T
     SCC iter.                  ...        0 min,  0.001 sec
     gradient                   ...        0 min,  0.001 sec
 * total energy  :    -8.9834354 Eh     change       -0.2701588E-04 Eh
   gradient norm :     0.0029575 Eh/α   predicted    -0.2051231E-04 ( -24.07%)
   displ. norm   :     0.0061527 α      lambda       -0.1533138E-04
   maximum displ.:     0.0050647 α      in ANC's #4, #2, #3, ...

........................................................................
.............................. CYCLE   28 ..............................
........................................................................
   1     -9.0945737 -0.909457E+01  0.828E-02    2.04       0.0  T
   2     -9.0945463  0.273388E-04  0.835E-02    2.04       1.0  T
   3     -9.0945705 -0.241982E-04  0.515E-02    2.04       1.0  T
   4     -9.0945788 -0.831758E-05  0.247E-02    2.04       2.0  T
   5     -9.0945825 -0.368545E-05  0.355E-03    2.04      14.1  T
   6     -9.0945825 -0.112146E-07  0.195E-03    2.04      25.6  T
   7     -9.0945825 -0.174768E-08  0.399E-04    2.04     125.2  T
   8     -9.0945825 -0.168638E-09  0.153E-04    2.04     326.7  T
     SCC iter.                  ...        0 min,  0.001 sec
     gradient                   ...        0 min,  0.001 sec
 * total energy  :    -8.9834447 Eh     change       -0.9282114E-05 Eh
   gradient norm :     0.0012782 Eh/α   predicted    -0.7665732E-05 ( -17.41%)
   displ. norm   :     0.0059578 α      lambda       -0.3435535E-05
   maximum displ.:     0.0047050 α      in ANC's #3, #4, #2, ...

........................................................................
.............................. CYCLE   29 ..............................
........................................................................
   1     -9.0949084 -0.909491E+01  0.869E-02    2.06       0.0  T
   2     -9.0949058  0.259201E-05  0.513E-02    2.06       1.0  T
   3     -9.0948735  0.323052E-04  0.760E-02    2.06       1.0  T
   4     -9.0949090 -0.354823E-04  0.129E-02    2.06       3.9  T
   5     -9.0949099 -0.936046E-06  0.314E-03    2.06      15.9  T
   6     -9.0949099 -0.142318E-07  0.180E-03    2.06      27.7  T
   7     -9.0949099 -0.419092E-08  0.301E-04    2.06     166.2  T
   8     -9.0949099 -0.155028E-09  0.110E-04    2.06     456.1  T
     SCC iter.                  ...        0 min,  0.001 sec
     gradient                   ...        0 min,  0.001 sec
 * total energy  :    -8.9834476 Eh     change       -0.2933579E-05 Eh
   gradient norm :     0.0011396 Eh/α   predicted    -0.1719087E-05 ( -41.40%)
   displ. norm   :     0.0027313 α      lambda       -0.1381669E-05
   maximum displ.:     0.0021592 α      in ANC's #3, #2, #6, ...

........................................................................
.............................. CYCLE   30 ..............................
........................................................................
   1     -9.0949171 -0.909492E+01  0.337E-02    2.07       0.0  T
   2     -9.0949166  0.537703E-06  0.222E-02    2.07       2.3  T
   3     -9.0949121  0.449264E-05  0.299E-02    2.07       1.7  T
   4     -9.0949174 -0.532445E-05  0.534E-03    2.07       9.4  T
   5     -9.0949175 -0.100321E-06  0.196E-03    2.07      25.5  T
   6     -9.0949175  0.578751E-08  0.164E-03    2.07      30.4  T
   7     -9.0949175 -0.128886E-07  0.230E-04    2.07     216.9  T
   8     -9.0949175 -0.108079E-09  0.136E-05    2.07    3664.6  T
     SCC iter.                  ...        0 min,  0.001 sec
     gradient                   ...        0 min,  0.001 sec
 * total energy  :    -8.9834490 Eh     change       -0.1347032E-05 Eh
   gradient norm :     0.0005739 Eh/α   predicted    -0.6901264E-06 ( -48.77%)
   displ. norm   :     0.0040193 α      lambda       -0.5894448E-06
   maximum displ.:     0.0036422 α      in ANC's #3, #4, #6, ...

   *** GEOMETRY OPTIMIZATION CONVERGED AFTER 30 ITERATIONS ***

------------------------------------------------------------------------
 total energy gain   :        -0.1875521 Eh     -117.6907 kcal/mol
 total RMSD          :         1.1220745 a0        0.5938 Å
 total power (kW/mol):       -16.4139313 (step)-5873.0792 (real)
------------------------------------------------------------------------

 ANCopt (total)                0 d,  0 h,  0 min,  0.084 sec
 optimizer setup                ...        0 min,  0.000 sec (  0.079%)
 model hessian                  ...        0 min,  0.000 sec (  0.122%)
 ANC generation                 ...        0 min,  0.000 sec (  0.094%)
 coordinate transformation      ...        0 min,  0.000 sec (  0.077%)
 single point calculation       ...        0 min,  0.081 sec ( 97.091%)
 optimization log               ...        0 min,  0.001 sec (  0.777%)
 hessian update                 ...        0 min,  0.000 sec (  0.073%)
 rational function              ...        0 min,  0.001 sec (  0.700%)

================
 final structure:
================
4
 xtb: 6.2.2 (9d81278992624c895f80dd42a50cac0aa55982e2)
C        -0.54121164853941   -0.74058873426066   -0.39320669859968
N         0.35583074666299    0.48377060299602    0.74319588677601
C        -0.62080136200887    0.64578188326982   -0.17214363111129
C         0.80618226388530   -0.38896275200518   -0.17784555706504

 Bond Distances (Angstroems)
 ---------------------------
C1-N2=1.8961         C1-C3=1.4061         C1-C4=1.4091         N2-C1=1.8961         N2-C3=1.3483         N2-C4=1.3464         
C3-C1=1.4061         C3-N2=1.3483         C3-C4=1.7627         C4-C1=1.4091         C4-N2=1.3464         C4-C3=1.7627         
 C  C  Rav=1.5260 sigma=0.1674  Rmin=1.4061  Rmax=1.7627     3
 N  C  Rav=1.5303 sigma=0.2587  Rmin=1.3464  Rmax=1.8961     3

 selected bond angles (degree)
 --------------------
C3-C1-N2= 45.24                C4-C1-N2= 45.16                C4-C1-C3= 77.53                C3-N2-C1= 47.78                
C4-N2-C1= 47.91                C4-N2-C3= 81.71                N2-C3-C1= 86.98                C4-C3-C1= 51.31                
C4-C3-N2= 49.10                N2-C4-C1= 86.93                C3-C4-C1= 51.16                C3-C4-N2= 49.19                

 selected dihedral angles (degree)
 ---------------------------------
N2-C3-C1-C4=322.91            C4-C3-C1-N2= 37.09            C1-C3-N2-C4= 38.52            C4-C3-N2-C1=321.48            
N2-C4-C1-C3= 37.15            C3-C4-C1-N2=322.85            C1-C4-N2-C3=321.58            C3-C4-N2-C1= 38.42            
C1-C4-C3-N2=127.18            N2-C4-C3-C1=232.82            
           -------------------------------------------------
          |                Final Singlepoint                |
           -------------------------------------------------

          ...................................................
          :                      SETUP                      :
          :.................................................:
          :  # basis functions                  16          :
          :  # atomic orbitals                  16          :
          :  # shells                            8          :
          :  # electrons                        17          :
          :  max. iterations                   250          :
          :  Hamiltonian                  GFN2-xTB          :
          :  restarted?                      false          :
          :  GBSA solvation                  false          :
          :  PC potential                    false          :
          :  electronic temp.          300.0000000     K    :
          :  accuracy                    1.0000000          :
          :  -> integral cutoff          0.2500000E+02      :
          :  -> integral neglect         0.1000000E-07      :
          :  -> SCF convergence          0.1000000E-05 Eh   :
          :  -> wf. convergence          0.1000000E-03 e    :
          :  Broyden damping             0.4000000          :
          ...................................................

 iter      E             dE          RMSdq      gap      omega  full diag
   1     -9.0949175 -0.909492E+01  0.276E-06    2.07       0.0  T
   2     -9.0949175  0.230926E-13  0.291E-06    2.07   17205.5  T
   3     -9.0949175 -0.301981E-13  0.156E-06    2.07   32081.3  T

   *** convergence criteria satisfied after 3 iterations ***

         #    Occupation            Energy/Eh            Energy/eV
      -------------------------------------------------------------
         1        2.0000           -0.7677619             -20.8919
       ...           ...                  ...                  ...
         3        2.0000           -0.6451938             -17.5566
         4        2.0000           -0.5911524             -16.0861
         5        2.0000           -0.5540666             -15.0769
         6        2.0000           -0.5112633             -13.9122
         7        2.0000           -0.4793316             -13.0433
         8        1.9999           -0.4498112             -12.2400
         9        1.0001           -0.4325384             -11.7700 (HOMO)
        10                         -0.3565724              -9.7028 (LUMO)
        11                         -0.2938867              -7.9971
        12                         -0.2799429              -7.6176
        13                          0.0759849               2.0677
        14                          0.1305886               3.5535
       ...                                ...                  ...
        16                          0.4899203              13.3314
      -------------------------------------------------------------
                  HL-Gap            0.0759661 Eh            2.0671 eV
             Fermi-level           -0.4178651 Eh          -11.3707 eV

 SCC (total)                   0 d,  0 h,  0 min,  0.002 sec
 SCC setup                      ...        0 min,  0.000 sec (  2.577%)
 Dispersion                     ...        0 min,  0.000 sec (  0.278%)
 integral evaluation            ...        0 min,  0.001 sec ( 37.452%)
 zeroth order Hamiltonian       ...        0 min,  0.000 sec (  0.479%)
 iterations                     ...        0 min,  0.000 sec ( 17.960%)
 molecular gradient             ...        0 min,  0.001 sec ( 39.128%)
 printout                       ...        0 min,  0.000 sec (  1.858%)

         :::::::::::::::::::::::::::::::::::::::::::::::::::::
         ::                     SUMMARY                     ::
         :::::::::::::::::::::::::::::::::::::::::::::::::::::
         :: total energy              -8.983448972827 Eh    ::
         :: gradient norm              0.000573949479 Eh/a0 ::
         :: HOMO-LUMO gap              2.067141568868 eV    ::
         ::.................................................::
         :: SCC energy                -9.094917529730 Eh    ::
         :: -> isotropic ES           -0.004998511597 Eh    ::
         :: -> anisotropic ES          0.002632109164 Eh    ::
         :: -> anisotropic XC          0.009078273307 Eh    ::
         :: -> dispersion             -0.001671610791 Eh    ::
         :: repulsion energy           0.111468551896 Eh    ::
         :: add. restraining           0.000000000000 Eh    ::
         :::::::::::::::::::::::::::::::::::::::::::::::::::::

           ------------------------------------------------- 
          |                Numerical Hessian                |
           ------------------------------------------------- 
step length          :   0.00500
SCC accuracy         :   0.30000
Hessian scale factor :   1.00000
frozen atoms in %    :   0.00000    0
RMS gradient         :   0.00057
estimated CPU  time      0.00 min
estimated wall time      0.00 min

writing file <hessian>.

 projected vibrational frequencies (cm-1)
eigval :       -0.00    -0.00    -0.00     0.00     0.00     0.00
eigval :      307.24   593.46   723.72  1005.09  1263.65  1507.49
           -------------------------------------------------
          |                Property Printout                |
           -------------------------------------------------

    * Orbital Energies and Occupations

         #    Occupation            Energy/Eh            Energy/eV
      -------------------------------------------------------------
         1        2.0000           -0.7677619             -20.8919
         2        2.0000           -0.6566469             -17.8683
         3        2.0000           -0.6451938             -17.5566
         4        2.0000           -0.5911524             -16.0861
         5        2.0000           -0.5540666             -15.0769
         6        2.0000           -0.5112633             -13.9122
         7        2.0000           -0.4793316             -13.0433
         8        1.9999           -0.4498112             -12.2400
         9        1.0001           -0.4325384             -11.7700 (HOMO)
        10                         -0.3565724              -9.7028 (LUMO)
        11                         -0.2938867              -7.9971
        12                         -0.2799430              -7.6176
        13                          0.0759849               2.0677
        14                          0.1305886               3.5535
        15                          0.1752465               4.7687
        16                          0.4899203              13.3314
      -------------------------------------------------------------
                  HL-Gap            0.0759660 Eh            2.0671 eV
             Fermi-level           -0.4178651 Eh          -11.3707 eV

     #   Z        covCN         q      C6AA      α(0)
     1   6 C      2.514    -0.028    28.832     8.772
     2   7 N      2.374    -0.070    22.736     7.080
     3   6 C      2.769     0.049    26.881     8.491
     4   6 C      2.769     0.049    26.892     8.493

 Mol. C6AA /au·bohr⁶  :        419.944303
 Mol. C8AA /au·bohr⁸  :      11442.145409
 Mol. α(0) /au        :         32.836255


Wiberg/Mayer (AO) data.
largest (>0.10) Wiberg bond orders for each atom
          total WBO             WBO to atom ...
     1  C   2.947        C    3 1.172    C    4 1.159    N    2 0.617
     2  N   3.055        C    4 1.224    C    3 1.214    C    1 0.617
     3  C   2.934        N    2 1.214    C    1 1.172    C    4 0.548
     4  C   2.931        N    2 1.224    C    1 1.159    C    3 0.548

MOs/occ written to file <molden.input>


molecular dipole:
                 x           y           z       tot (Debye)
 q only:       -0.002      -0.000      -0.109
   full:        0.152       0.215      -0.273       0.963
molecular quadrupole (traceless):
                xx          xy          yy          xz          yz          zz
 q only:        0.197      -0.311      -0.002      -0.140      -0.189      -0.195
  q+dip:       -0.217       0.112      -0.102      -0.609      -0.833       0.319
   full:       -0.592       0.178      -0.445      -0.960      -1.337       1.037

           -------------------------------------------------
          |                Geometry Summary                 |
           -------------------------------------------------

      molecular mass/u    :       50.0389109
   center of mass at/Å    :        0.0141937       0.0192970       0.0296447
Molecule has the following symmetry elements: (sigma) 
It seems to be the Cs point group
  moments of inertia/u·Å² :        0.2141594E+02   0.2601635E+02   0.4191716E+02
rotational constants/cm⁻¹ :        0.7871536E+00   0.6479629E+00   0.4021654E+00

 * 2 selected distances

     #   Z        #   Z                                     value/Å
     2   7 N      3   6 C                                 1.3482968 (max)
     2   7 N      4   6 C                                 1.3464016 (min)

 * 1 distinct bonds (by element types)

   Z      Z             #   av. dist./Å        max./Å        min./Å
   6 C    7 N           2     1.3473492     1.3482968     1.3464016

           -------------------------------------------------
          |               Frequency Printout                |
           -------------------------------------------------
 projected vibrational frequencies (cm-1)
eigval :       -0.00    -0.00    -0.00     0.00     0.00     0.00
eigval :      307.24   593.46   723.72  1005.09  1263.65  1507.49
 reduced masses (amu)
   1: 12.07   2: 12.73   3: 12.85   4: 12.46   5: 12.70   6: 12.42   7: 12.37   8: 12.60
   9: 12.33  10: 12.50  11: 12.47  12: 12.61
 IR intensities (amu)
   1:  0.14   2:  0.08   3:  0.11   4:  0.02   5:  0.07   6:  0.06   7:  0.47   8:  0.39
   9:  0.10  10:  2.16  11:  1.25  12:  0.36
 Raman intensities (amu)
   1:  0.00   2:  0.00   3:  0.00   4:  0.00   5:  0.00   6:  0.00   7:  0.00   8:  0.00
   9:  0.00  10:  0.00  11:  0.00  12:  0.00
 output can be read by thermo (or use thermo option).
 writing <g98.out> molden fake output.
 recommended (thermochemical) frequency scaling factor: 1.0
           -------------------------------------------------
          |             Thermodynamic Functions             |
           -------------------------------------------------

cs  symmetry found (for desy threshold:  0.10E+00) used in thermo

          ...................................................
          :                      SETUP                      :
          :.................................................:
          :  # frequencies                           6      :
          :  # imaginary freq.                       0      :
          :  linear?                             false      :
          :  only rotor calc.                    false      :
          :  symmetry                               cs      :
          :  rotational number                       1      :
          :  scaling factor                  1.0000000      :
          :  rotor cutoff                   50.0000000 cm⁻¹ :
          :  imag. cutoff                  -20.0000000 cm⁻¹ :
          :.................................................:

    mode    ω/cm⁻¹     T·S(HO)/kcal·mol⁻¹    T·S(FR)/kcal·mol⁻¹   T·S(vib)
   ------------------------------------------------------------------------
   ------------------------------------------------------------------------

   temp. (K)  partition function   enthalpy   heat capacity  entropy
                                   cal/mol     cal/K/mol   cal/K/mol   J/K/mol
 298.15  VIB   1.43                  459.421      4.102      2.253
         ROT  0.117E+05              888.752      2.981     21.592
         INT  0.167E+05             1348.173      7.083     23.844
         TR   0.342E+27             1481.254      4.968     37.637
         TOT                        2829.4270    12.0508    61.4816   257.2389

   temp. (K)  partition function   enthalpy   heat capacity  entropy
                                   cal/mol     cal/K/mol   cal/K/mol   J/K/mol
 120.00  VIB   1.03                   24.395      0.822      0.256
         ROT  0.298E+04              357.707      2.981     18.879
         INT  0.306E+04              382.102      3.803     19.135
         TR   0.874E+26              596.178      4.968     33.118
         TOT                         978.2796     8.7713    52.2530   218.6265

   temp. (K)  partition function   enthalpy   heat capacity  entropy
                                   cal/mol     cal/K/mol   cal/K/mol   J/K/mol
 100.00  VIB   1.01                   11.092      0.514      0.136
         ROT  0.227E+04              298.089      2.981     18.335
         INT  0.230E+04              309.181      3.495     18.471
         TR   0.665E+26              496.815      4.968     32.212
         TOT                         805.9956     8.4627    50.6837   212.0604

   temp. (K)  partition function   enthalpy   heat capacity  entropy
                                   cal/mol     cal/K/mol   cal/K/mol   J/K/mol
  80.00  VIB   1.00                    3.557      0.250      0.053
         ROT  0.162E+04              238.471      2.981     17.670
         INT  0.163E+04              242.029      3.231     17.723
         TR   0.476E+26              397.452      4.968     31.104
         TOT                         639.4806     8.1987    48.8273   204.2936

   temp. (K)  partition function   enthalpy   heat capacity  entropy
                                   cal/mol     cal/K/mol   cal/K/mol   J/K/mol
  60.00  VIB   1.00                    0.556      0.068      0.011
         ROT  0.105E+04              178.853      2.981     16.813
         INT  0.105E+04              179.410      3.049     16.823
         TR   0.309E+26              298.089      4.968     29.676
         TOT                         477.4987     8.0175    46.4991   194.5523

   temp. (K)  partition function   enthalpy   heat capacity  entropy
                                   cal/mol     cal/K/mol   cal/K/mol   J/K/mol
  40.00  VIB   1.00                    0.014      0.004      0.000
         ROT   574.                  119.236      2.981     15.604
         INT   574.                  119.250      2.985     15.604
         TR   0.168E+26              198.726      4.968     27.662
         TOT                         317.9755     7.9529    43.2666   181.0274

   temp. (K)  partition function   enthalpy   heat capacity  entropy
                                   cal/mol     cal/K/mol   cal/K/mol   J/K/mol
  20.00  VIB   1.00                    0.000      0.000     -0.001
         ROT   203.                   59.618      2.981     13.538
         INT   203.                   59.618      2.981     13.537
         TR   0.595E+25               99.363      4.968     24.220
         TOT                         158.9808     7.9490    37.7575   157.9774

   temp. (K)  partition function   enthalpy   heat capacity  entropy
                                   cal/mol     cal/K/mol   cal/K/mol   J/K/mol
  10.00  VIB   1.00                    0.000      0.000     -0.001
         ROT   71.7                   29.809      2.981     11.472
         INT   71.7                   29.809      2.981     11.470
         TR   0.210E+25               49.681      4.968     20.778
         TOT                          79.4904     7.9490    32.2488   134.9289

       T/K    H(0)-H(T)+PV         H(T)/Eh          T*S/Eh         G(T)/Eh
   ------------------------------------------------------------------------
    298.15    0.450898E-02    0.168126E-01    0.292119E-01   -0.123993E-01
    120.00    0.155899E-02    0.138626E-01    0.999245E-02    0.387013E-02
    100.00    0.128444E-02    0.135880E-01    0.807695E-02    0.551107E-02
     80.00    0.101908E-02    0.133227E-01    0.622491E-02    0.709776E-02
     60.00    0.760943E-03    0.130645E-01    0.444606E-02    0.861847E-02
     40.00    0.506726E-03    0.128103E-01    0.275799E-02    0.100523E-01
     20.00    0.253352E-03    0.125569E-01    0.120341E-02    0.113535E-01
     10.00    0.126676E-03    0.124303E-01    0.513917E-03    0.119163E-01 (used)
   ------------------------------------------------------------------------

         :::::::::::::::::::::::::::::::::::::::::::::::::::::
         ::                  THERMODYNAMIC                  ::
         :::::::::::::::::::::::::::::::::::::::::::::::::::::
         :: total free energy          -8.971532623997 Eh   ::
         ::.................................................::
         :: total energy               -8.983448972819 Eh   ::
         :: zero point energy           0.012303589919 Eh   ::
         :: G(RRHO) w/o ZPVE           -0.000387241097 Eh   ::
         :: G(RRHO) contrib.            0.011916348822 Eh   ::
         :::::::::::::::::::::::::::::::::::::::::::::::::::::

optimized geometry written to: xtbopt.xyz


           -------------------------------------------------
          | TOTAL ENERGY               -8.983448972819 Eh   |
          | TOTAL ENTHALPY             -8.971018706884 Eh   |
          | TOTAL FREE ENERGY          -8.971532623997 Eh   |
          | GRADIENT NORM               0.000573924841 Eh/α |
          | HOMO-LUMO GAP               2.067140233152 eV   |
           -------------------------------------------------

------------------------------------------------------------------------
 * finished run on 2020/05/12 at 11:45:03.988     
------------------------------------------------------------------------
 total:
 * wall-time:     0 d,  0 h,  0 min,  0.167 sec
 *  cpu-time:     0 d,  0 h,  0 min,  0.167 sec
 * ratio c/w:     0.999 speedup
 SCF:
 * wall-time:     0 d,  0 h,  0 min,  0.003 sec
 *  cpu-time:     0 d,  0 h,  0 min,  0.003 sec
 * ratio c/w:     1.000 speedup
 ANC optimizer:
 * wall-time:     0 d,  0 h,  0 min,  0.087 sec
 *  cpu-time:     0 d,  0 h,  0 min,  0.087 sec
 * ratio c/w:     0.998 speedup
 numerical hessian:
 * wall-time:     0 d,  0 h,  0 min,  0.060 sec
 *  cpu-time:     0 d,  0 h,  0 min,  0.060 sec
 * ratio c/w:     0.999 speedup

