[Molden Format]
[Title]
[Atoms] AU
C      1     6 -0.10227516178447E+01 -0.13995056906636E+01 -0.74304688912835E+00
N      2     7  0.67243228463706E+00  0.91419279235687E+00  0.14044326098739E+01
C      3     6 -0.11731391889188E+01  0.12203563571952E+01 -0.32530232158207E+00
C      4     6  0.15234585221364E+01 -0.73504156916251E+00 -0.33608339916683E+00
[GTO]
           1 0
 s           4   1.0000000000000000     
   51.049363095579913      -0.16312063210127389     
   8.7911227406887544      -0.19911024581000730     
  0.70640422258929825       0.31882047753655751     
  0.26922813413411617       0.12706504184240380     
 p           4   1.0000000000000000     
   5.8263656140800002       0.73716451545209605     
   1.5106896018720002       0.68216371614850257     
  0.53256483288000001       0.35783053929253711     
  0.21202323690600003        5.3983030275847881E-002

           2 0
 s           4   1.0000000000000000     
   63.594024466941008      -0.19234388414721629     
   10.951417231523665      -0.23478107924953728     
  0.87999310257376984       0.37593753901700888     
  0.33538715296521110       0.14982889271862770     
 p           4   1.0000000000000000     
   7.2965040481495080       0.97658666315667420     
   1.8918745450712575       0.90372226730345739     
  0.66694432110824120       0.47404958461536373     
  0.26552202674130870        7.1516067715011844E-002

           3 0
 s           4   1.0000000000000000     
   51.049363095579913      -0.16312063210127389     
   8.7911227406887544      -0.19911024581000730     
  0.70640422258929825       0.31882047753655751     
  0.26922813413411617       0.12706504184240380     
 p           4   1.0000000000000000     
   5.8263656140800002       0.73716451545209605     
   1.5106896018720002       0.68216371614850257     
  0.53256483288000001       0.35783053929253711     
  0.21202323690600003        5.3983030275847881E-002

           4 0
 s           4   1.0000000000000000     
   51.049363095579913      -0.16312063210127389     
   8.7911227406887544      -0.19911024581000730     
  0.70640422258929825       0.31882047753655751     
  0.26922813413411617       0.12706504184240380     
 p           4   1.0000000000000000     
   5.8263656140800002       0.73716451545209605     
   1.5106896018720002       0.68216371614850257     
  0.53256483288000001       0.35783053929253711     
  0.21202323690600003        5.3983030275847881E-002

[MO]
Sym=     1a
Ene=  -0.76776194020355437     
Spin= Alpha
Occup=     2.00000000
           1  0.26548969881098911     
           2   7.5244245849189650E-002
           3  0.10322826619123172     
           4   5.4086616952177646E-002
           5  0.31920191989296198     
           6  -8.0982352301401259E-002
           7 -0.11005054587292026     
           8 -0.18655732965156918     
           9  0.29351271602891776     
          10  0.11051277376880791     
          11 -0.10849962040806679     
          12   4.5987562315219818E-002
          13  0.29342652318581469     
          14 -0.13698512795024270     
          15   7.1303285947557388E-002
          16   4.7084431996380183E-002
Sym=     2a
Ene=  -0.65664688418773531     
Spin= Alpha
Occup=     2.00000000
           1 -0.47433979535801507     
           2  -1.8072898072628060E-002
           3  -3.1890797092662196E-002
           4   4.7817921438923411E-002
           5  0.49540306886691110     
           6   8.5824343525428393E-002
           7  0.10786574431663373     
           8  -7.1073134270245211E-002
           9  -3.7484164254496286E-002
          10  0.15930888748024968     
          11  0.20642018634156739     
          12  0.17021787326393883     
          13  -2.3028796265757757E-002
          14  0.14863152410823127     
          15  0.21317000495807620     
          16  0.17325068263544324     
Sym=     3a
Ene=  -0.64519375672912427     
Spin= Alpha
Occup=     2.00000000
           1  -7.2192461915418747E-003
           2 -0.20266398279513886     
           3  0.14697007717166913     
           4   1.9865718587268812E-003
           5   7.7599680087973109E-003
           6 -0.36182183195344170     
           7  0.26561686801882789     
           8   8.5277046682589921E-004
           9  0.45690306252199364     
          10  -5.2990003936062097E-002
          11   3.8943253448921411E-002
          12  0.11250230790444835     
          13 -0.45838101463443381     
          14  -4.9302992207650699E-002
          15   4.5689529247520198E-002
          16 -0.10637566991676567     
Sym=     4a
Ene=  -0.59115242512210142     
Spin= Alpha
Occup=     2.00000000
           1   8.9520400842027656E-002
           2  -7.6465204511666510E-002
           3 -0.10740567439754187     
           4  0.27030417331983891     
           5  0.22861146225137266     
           6 -0.21922473728213032     
           7 -0.30390726171470817     
           8  0.32931982165615231     
           9 -0.17319860889771971     
          10 -0.16930737177499686     
          11 -0.14316459188291272     
          12  0.29498849907097541     
          13 -0.17289607884144059     
          14  -8.2084018453872989E-002
          15 -0.20683669483774586     
          16  0.29443208016040245     
Sym=     5a
Ene=  -0.55406659397360147     
Spin= Alpha
Occup=     2.00000000
           1  -1.7586110655208325E-003
           2  0.36587921524028477     
           3 -0.26458884336782240     
           4  -6.0998096085008969E-004
           5  -2.7524167349950693E-003
           6 -0.33362884148877109     
           7  0.23916734664463951     
           8  -1.5818546918759221E-004
           9 -0.13093447880279735     
          10  0.23457414690588027     
          11  0.21125672608007945     
          12  0.25165457684998022     
          13  0.12968442228840532     
          14 -0.13205365132909869     
          15 -0.28563586300401933     
          16 -0.25277732166655642     
Sym=     6a
Ene=  -0.51126334470598678     
Spin= Alpha
Occup=     2.00000000
           1  0.49237936944636462     
           2 -0.15408334308287913     
           3 -0.21474338600152126     
           4 -0.26422758035997307     
           5  0.50302905971080636     
           6  0.28507480493239473     
           7  0.39442733861821799     
           8  0.31981886661506759     
           9 -0.10951607921671686     
          10   1.2619321395867454E-002
          11  -3.6845479863517605E-002
          12  -7.2892293945152856E-002
          13 -0.10814066175884808     
          14  -3.9708981376782158E-002
          15  -1.2406159889862059E-003
          16  -7.4680369222414320E-002
Sym=     7a
Ene=  -0.47933155597569510     
Spin= Alpha
Occup=     2.00000000
           1  -6.8359685301926917E-002
           2   3.6898206117344623E-002
           3   4.9791782034652655E-002
           4  -1.6792611250323504E-002
           5   9.0429908539712098E-002
           6   2.9622221857085150E-002
           7   4.1512218967754498E-002
           8  0.25693846908400403     
           9  0.46604210818530706     
          10 -0.41006434149740800     
          11  0.26875711553969167     
          12  -8.4219717311663292E-003
          13  0.46756359086195654     
          14  0.38196578401870535     
          15 -0.30938427081545106     
          16  -1.4492366443170559E-002
Sym=     8a
Ene=  -0.44981121190772200     
Spin= Alpha
Occup=     1.99988728
           1 -0.36680472013232268     
           2  0.33007134624770623     
           3  0.45208079328981338     
           4 -0.24227423423044234     
           5  0.25292120411002639     
           6  -9.8246880654467947E-002
           7 -0.14221272179317651     
           8  0.50664869518741151     
           9  -6.8662146892373030E-002
          10   5.6495145957269975E-002
          11 -0.15966037557501367     
          12 -0.20011685833166457     
          13  -7.5029831535856351E-002
          14 -0.17831620025758765     
          15   1.4674041616108966E-003
          16 -0.18988391412752639     
Sym=     9a
Ene=  -0.43253844977563854     
Spin= Alpha
Occup=     1.00011272
           1   4.4292933442747857E-003
           2  0.21937375451255775     
           3 -0.16771300807454878     
           4  -8.3303660612193064E-004
           5  -2.4772303370839363E-003
           6  0.17206965279453021     
           7 -0.12480148232346516     
           8  -5.8441911006346268E-003
           9  0.31468946916319906     
          10  -2.5829567158561408E-002
          11  0.47148103851943318     
          12 -0.36799072728403964     
          13 -0.31225497338216646     
          14 -0.44907619770364454     
          15 -0.12293330479066004     
          16  0.37451443764291747     
Sym=    10a
Ene=  -0.35657244402643878     
Spin= Alpha
Occup=     0.00000000
           1 -0.10272206947083386     
           2  0.20048855017535891     
           3  0.26842081847853111     
           4  0.66510957356663947     
           5  -3.1510409854260839E-002
           6  0.41128635121397245     
           7  0.56337868508534306     
           8  -1.7712703670661543E-002
           9  -3.1672707715693665E-002
          10 -0.11738257813325755     
          11 -0.20053091093436057     
          12  -1.4118336954916280E-002
          13  -3.3790810511118784E-002
          14 -0.15804807933712334     
          15 -0.17307254601465188     
          16  -1.2949921965465025E-002
Sym=    11a
Ene=  -0.29388667203597285     
Spin= Alpha
Occup=     0.00000000
           1   3.0114073119529055E-004
           2  0.21936638794664837     
           3 -0.16160037174269704     
           4   2.0625916202626662E-003
           5   8.5219588739696432E-004
           6  0.21744187397961470     
           7 -0.16239947412822031     
           8   3.1339519173275310E-003
           9   1.2431516642673177E-002
          10 -0.61801700219765476     
          11  0.14171698572880273     
          12  0.40150202323099260     
          13  -1.0721824664356174E-002
          14 -0.32671719803136484     
          15  0.55052293930407437     
          16 -0.40485298990144208     
Sym=    12a
Ene=  -0.27994298183890037     
Spin= Alpha
Occup=     0.00000000
           1  -8.7187171464942287E-002
           2  0.17214455391818065     
           3  0.23699483143938951     
           4 -0.63272166942705765     
           5  -4.1778918295948882E-002
           6  0.15459433868132730     
           7  0.21294971487980116     
           8 -0.37624125637436490     
           9  -8.4878014278542468E-002
          10 -0.28013876332659349     
          11 -0.20407121294163580     
          12  0.43119369069051022     
          13  -8.4373204428465534E-002
          14 -0.10986256686055719     
          15 -0.32294342914145341     
          16  0.42324513275676495     
Sym=    13a
Ene=    7.5984860332572540E-002
Spin= Alpha
Occup=     0.00000000
           1   7.1612165914239564E-003
           2  0.65541690236367323     
           3 -0.46624156227128105     
           4  -1.8406939333751719E-003
           5  -5.0157651949728002E-003
           6 -0.47012665145041810     
           7  0.34141074179361269     
           8   5.5070633837813561E-003
           9   9.2880971669286633E-002
          10 -0.32836597073648138     
          11 -0.50138251351894836     
          12 -0.40765219371418532     
          13  -9.5474615766816914E-002
          14  0.38823198438650697     
          15  0.47312880118304129     
          16  0.41494622505633666     
Sym=    14a
Ene=   0.13058862621723630     
Spin= Alpha
Occup=     0.00000000
           1  0.52978053354935739     
           2  0.29773309429046196     
           3  0.37645933724414654     
           4  -1.8674365780386597E-002
           5 -0.70112835617094393     
           6  0.15014922474821035     
           7  0.12934674076105748     
           8  0.58394574991542636     
           9   9.1919895894367859E-002
          10  0.41245956876050677     
          11  0.33503108620296229     
          12  0.48283302245528609     
          13   2.6097625756030234E-002
          14  0.23800762328074548     
          15  0.45913924075804086     
          16  0.44417461082981297     
Sym=    15a
Ene=   0.17524648154832845     
Spin= Alpha
Occup=     0.00000000
           1  -2.8194045999077967E-002
           2  0.40594525716451596     
           3 -0.32608643113603414     
           4  -1.3942316995309094E-003
           5   3.9787268686312889E-002
           6  0.56728124622203813     
           7 -0.42602328875489748     
           8  -3.5574182530086075E-002
           9  0.65462264269036052     
          10  0.36273637117766266     
          11 -0.41619823001325079     
          12  0.26974247204174989     
          13 -0.66312024329008701     
          14  0.48582583552774888     
          15 -0.26648575007252523     
          16 -0.32400112111541990     
Sym=    16a
Ene=   0.48992027223422729     
Spin= Alpha
Occup=     0.00000000
           1  0.73075426666590204     
           2  0.43469739644064481     
           3  0.60654508666106421     
           4  0.18543611730669612     
           5  0.51982647954049166     
           6 -0.16308438953236185     
           7 -0.22497039541041947     
           8 -0.48213796237750101     
           9 -0.61337300889124247     
          10 -0.27192468927743435     
          11  0.55056494595018879     
          12 -0.17698852505475160     
          13 -0.60855238524501520     
          14  0.59960468486910012     
          15  -9.2233307727089084E-002
          16 -0.18474753608230202     
