 Entering Gaussian System, Link 0=g16
 Initial command:
 /applis/site/cecic/gaussian16/B.01/nehalem/g16/l1.exe "/bettik/tinaccil/g16/12754457_N/Gau-212879.inp" -scrdir="/bettik/tinaccil/g16/12754457_N/"
 Entering Link 1 = /applis/site/cecic/gaussian16/B.01/nehalem/g16/l1.exe PID=    212881.
  
 Copyright (c) 1988-2017, Gaussian, Inc.  All Rights Reserved.
  
 This is part of the Gaussian(R) 16 program.  It is based on
 the Gaussian(R) 09 system (copyright 2009, Gaussian, Inc.),
 the Gaussian(R) 03 system (copyright 2003, Gaussian, Inc.),
 the Gaussian(R) 98 system (copyright 1998, Gaussian, Inc.),
 the Gaussian(R) 94 system (copyright 1995, Gaussian, Inc.),
 the Gaussian 92(TM) system (copyright 1992, Gaussian, Inc.),
 the Gaussian 90(TM) system (copyright 1990, Gaussian, Inc.),
 the Gaussian 88(TM) system (copyright 1988, Gaussian, Inc.),
 the Gaussian 86(TM) system (copyright 1986, Carnegie Mellon
 University), and the Gaussian 82(TM) system (copyright 1983,
 Carnegie Mellon University). Gaussian is a federally registered
 trademark of Gaussian, Inc.
  
 This software contains proprietary and confidential information,
 including trade secrets, belonging to Gaussian, Inc.
  
 This software is provided under written license and may be
 used, copied, transmitted, or stored only in accord with that
 written license.
  
 The following legend is applicable only to US Government
 contracts under FAR:
  
                    RESTRICTED RIGHTS LEGEND
  
 Use, reproduction and disclosure by the US Government is
 subject to restrictions as set forth in subparagraphs (a)
 and (c) of the Commercial Computer Software - Restricted
 Rights clause in FAR 52.227-19.
  
 Gaussian, Inc.
 340 Quinnipiac St., Bldg. 40, Wallingford CT 06492
  
  
 ---------------------------------------------------------------
 Warning -- This program may not be used in any manner that
 competes with the business of Gaussian, Inc. or will provide
 assistance to any competitor of Gaussian, Inc.  The licensee
 of this program is prohibited from giving any competitor of
 Gaussian, Inc. access to this program.  By using this program,
 the user acknowledges that Gaussian, Inc. is engaged in the
 business of creating and licensing software in the field of
 computational chemistry and represents and warrants to the
 licensee that it is not a competitor of Gaussian, Inc. and that
 it will not use this program in any manner prohibited above.
 ---------------------------------------------------------------
  

 Cite this work as:
 Gaussian 16, Revision B.01,
 M. J. Frisch, G. W. Trucks, H. B. Schlegel, G. E. Scuseria, 
 M. A. Robb, J. R. Cheeseman, G. Scalmani, V. Barone, 
 G. A. Petersson, H. Nakatsuji, X. Li, M. Caricato, A. V. Marenich, 
 J. Bloino, B. G. Janesko, R. Gomperts, B. Mennucci, H. P. Hratchian, 
 J. V. Ortiz, A. F. Izmaylov, J. L. Sonnenberg, D. Williams-Young, 
 F. Ding, F. Lipparini, F. Egidi, J. Goings, B. Peng, A. Petrone, 
 T. Henderson, D. Ranasinghe, V. G. Zakrzewski, J. Gao, N. Rega, 
 G. Zheng, W. Liang, M. Hada, M. Ehara, K. Toyota, R. Fukuda, 
 J. Hasegawa, M. Ishida, T. Nakajima, Y. Honda, O. Kitao, H. Nakai, 
 T. Vreven, K. Throssell, J. A. Montgomery, Jr., J. E. Peralta, 
 F. Ogliaro, M. J. Bearpark, J. J. Heyd, E. N. Brothers, K. N. Kudin, 
 V. N. Staroverov, T. A. Keith, R. Kobayashi, J. Normand, 
 K. Raghavachari, A. P. Rendell, J. C. Burant, S. S. Iyengar, 
 J. Tomasi, M. Cossi, J. M. Millam, M. Klene, C. Adamo, R. Cammi, 
 J. W. Ochterski, R. L. Martin, K. Morokuma, O. Farkas, 
 J. B. Foresman, and D. J. Fox, Gaussian, Inc., Wallingford CT, 2016.
 
 ******************************************
 Gaussian 16:  ES64L-G16RevB.01 20-Dec-2017
                 5-Oct-2020 
 ******************************************
 %nosave
 %nproc=8
 Will use up to    8 processors via shared memory.
 %mem=2gb
 %chk=input
 ------------------------
 #P ROCCSD(T)/aug-cc-pvtz
 ------------------------
 1/38=1,172=1/1;
 2/12=2,17=6,18=5,40=1/2;
 3/5=16,6=1,7=10,11=2,25=1,30=1,116=101/1,2,3;
 4//1;
 5/5=2,38=5/2;
 8/5=-1,6=4,9=120000,10=1/1,4;
 9/5=7,14=2/13;
 6/7=2,8=2,9=2,10=2/1;
 99/5=1,9=1/99;
 Leave Link    1 at Mon Oct  5 21:36:17 2020, MaxMem=   268435456 cpu:               0.8 elap:               0.2
 (Enter /applis/site/cecic/gaussian16/B.01/nehalem/g16/l101.exe)
 -----
 Title
 -----
 Symbolic Z-matrix:
 Charge =  1 Multiplicity = 3
 N
 
 ITRead=  0
 MicOpt= -1
 NAtoms=      1 NQM=        1 NQMF=       0 NMMI=      0 NMMIF=      0
                NMic=       0 NMicF=      0.
                    Isotopes and Nuclear Properties:
 (Nuclear quadrupole moments (NQMom) in fm**2, nuclear magnetic moments (NMagM)
  in nuclear magnetons)

  Atom         1
 IAtWgt=          14
 AtmWgt=  14.0030740
 NucSpn=           2
 AtZEff=  -0.0000000
 NQMom=    2.0440000
 NMagM=    0.4037610
 AtZNuc=   7.0000000
 Leave Link  101 at Mon Oct  5 21:36:17 2020, MaxMem=   268435456 cpu:               1.5 elap:               0.2
 (Enter /applis/site/cecic/gaussian16/B.01/nehalem/g16/l202.exe)
                          Input orientation:                          
 ---------------------------------------------------------------------
 Center     Atomic      Atomic             Coordinates (Angstroms)
 Number     Number       Type             X           Y           Z
 ---------------------------------------------------------------------
      1          7           0        0.000000    0.000000    0.000000
 ---------------------------------------------------------------------
 Stoichiometry    N(1+,3)
 Framework group  OH[O(N)]
 Deg. of freedom     0
 Full point group                 OH      NOp  48
 Largest Abelian subgroup         D2H     NOp   8
 Largest concise Abelian subgroup C1      NOp   1
                         Standard orientation:                         
 ---------------------------------------------------------------------
 Center     Atomic      Atomic             Coordinates (Angstroms)
 Number     Number       Type             X           Y           Z
 ---------------------------------------------------------------------
      1          7           0        0.000000    0.000000    0.000000
 ---------------------------------------------------------------------
 Leave Link  202 at Mon Oct  5 21:36:17 2020, MaxMem=   268435456 cpu:               0.0 elap:               0.0
 (Enter /applis/site/cecic/gaussian16/B.01/nehalem/g16/l301.exe)
 Standard basis: Aug-CC-pVTZ (5D, 7F)
 Ernie: Thresh=  0.10000D-02 Tol=  0.10000D-05 Strict=F.
 Ernie:  3 primitive shells out of 30 were deleted.
 There are    14 symmetry adapted cartesian basis functions of AG  symmetry.
 There are     3 symmetry adapted cartesian basis functions of B1G symmetry.
 There are     3 symmetry adapted cartesian basis functions of B2G symmetry.
 There are     3 symmetry adapted cartesian basis functions of B3G symmetry.
 There are     2 symmetry adapted cartesian basis functions of AU  symmetry.
 There are    10 symmetry adapted cartesian basis functions of B1U symmetry.
 There are    10 symmetry adapted cartesian basis functions of B2U symmetry.
 There are    10 symmetry adapted cartesian basis functions of B3U symmetry.
 There are    11 symmetry adapted basis functions of AG  symmetry.
 There are     3 symmetry adapted basis functions of B1G symmetry.
 There are     3 symmetry adapted basis functions of B2G symmetry.
 There are     3 symmetry adapted basis functions of B3G symmetry.
 There are     2 symmetry adapted basis functions of AU  symmetry.
 There are     8 symmetry adapted basis functions of B1U symmetry.
 There are     8 symmetry adapted basis functions of B2U symmetry.
 There are     8 symmetry adapted basis functions of B3U symmetry.
    46 basis functions,    72 primitive gaussians,    55 cartesian basis functions
     4 alpha electrons        2 beta electrons
       nuclear repulsion energy         0.0000000000 Hartrees.
 IExCor=    0 DFT=F Ex=HF Corr=None ExCW=0 ScaHFX=  1.000000
 ScaDFX=  1.000000  1.000000  1.000000  1.000000 ScalE2=  1.000000  1.000000
 IRadAn=      5 IRanWt=     -1 IRanGd=            0 ICorTp=0 IEmpDi=  4
 NAtoms=    1 NActive=    1 NUniq=    1 SFac= 1.00D+00 NAtFMM=   60 NAOKFM=F Big=F
 Integral buffers will be    131072 words long.
 Raffenetti 2 integral format.
 Two-electron integral symmetry is turned on.
 Leave Link  301 at Mon Oct  5 21:36:17 2020, MaxMem=   268435456 cpu:               0.5 elap:               0.1
 (Enter /applis/site/cecic/gaussian16/B.01/nehalem/g16/l302.exe)
 NPDir=0 NMtPBC=     1 NCelOv=     1 NCel=       1 NClECP=     1 NCelD=      1
         NCelK=      1 NCelE2=     1 NClLst=     1 CellRange=     0.0.
 One-electron integrals computed using PRISM.
 One-electron integral symmetry used in STVInt
 NBasis=    46 RedAO= T EigKep=  3.23D-02  NBF=    11     3     3     3     2     8     8     8
 NBsUse=    46 1.00D-06 EigRej= -1.00D+00 NBFU=    11     3     3     3     2     8     8     8
 Leave Link  302 at Mon Oct  5 21:36:17 2020, MaxMem=   268435456 cpu:               1.0 elap:               0.2
 (Enter /applis/site/cecic/gaussian16/B.01/nehalem/g16/l303.exe)
 DipDrv:  MaxL=1.
 Leave Link  303 at Mon Oct  5 21:36:17 2020, MaxMem=   268435456 cpu:               0.3 elap:               0.1
 (Enter /applis/site/cecic/gaussian16/B.01/nehalem/g16/l401.exe)
 ExpMin= 4.91D-02 ExpMax= 1.14D+04 ExpMxC= 3.89D+02 IAcc=3 IRadAn=         5 AccDes= 0.00D+00
 Harris functional with IExCor=  205 and IRadAn=       5 diagonalized for initial guess.
 HarFok:  IExCor=  205 AccDes= 0.00D+00 IRadAn=         5 IDoV= 1 UseB2=F ITyADJ=14
 ICtDFT=  3500011 ScaDFX=  1.000000  1.000000  1.000000  1.000000
 FoFCou: FMM=F IPFlag=           0 FMFlag=      100000 FMFlg1=           0
         NFxFlg=           0 DoJE=T BraDBF=F KetDBF=T FulRan=T
         wScrn=  0.000000 ICntrl=       500 IOpCl=  0 I1Cent=   200000004 NGrid=           0
         NMat0=    1 NMatS0=      1 NMatT0=    0 NMatD0=    1 NMtDS0=    0 NMtDT0=    0
 Petite list used in FoFCou.
 Harris En= -53.9071977018021    
 JPrj=0 DoOrth=F DoCkMO=F.
 Initial guess orbital symmetries:
       Occupied  (A1G) (A1G) (T1U) (T1U)
       Virtual   (T1U) (A1G) (T1U) (T1U) (T1U) (T2G) (T2G) (T2G)
                 (EG) (EG) (T1U) (T1U) (T1U) (A1G) (T2U) (T2U)
                 (T2U) (A2U) (T1U) (T1U) (T1U) (T2G) (T2G) (T2G)
                 (EG) (EG) (T1U) (T1U) (T1U) (T2U) (T2U) (T2U)
                 (A2U) (T1U) (T1U) (T1U) (T2G) (T2G) (T2G) (EG)
                 (EG) (A1G)
 Leave Link  401 at Mon Oct  5 21:36:17 2020, MaxMem=   268435456 cpu:               1.4 elap:               0.2
 (Enter /applis/site/cecic/gaussian16/B.01/nehalem/g16/l502.exe)
 Keep R1 and R2 ints in memory in symmetry-blocked form, NReq=4488473.
 FoFCou: FMM=F IPFlag=           0 FMFlag=           0 FMFlg1=           0
         NFxFlg=           0 DoJE=F BraDBF=F KetDBF=F FulRan=T
         wScrn=  0.000000 ICntrl=       600 IOpCl=  0 I1Cent=           0 NGrid=           0
         NMat0=    1 NMatS0=   1081 NMatT0=    0 NMatD0=    1 NMtDS0=    0 NMtDT0=    0
 Petite list used in FoFCou.
 Restricted open shell SCF:
 Using DIIS extrapolation, IDIIS=  1040.
 NGot=   268435456 LenX=   268267006 LenY=   268263540
 Requested convergence on RMS density matrix=1.00D-08 within 128 cycles.
 Requested convergence on MAX density matrix=1.00D-06.
 Requested convergence on             energy=1.00D-06.
 No special actions if energy rises.

 Cycle   1  Pass 1  IDiag  1:
 Density matrix breaks symmetry, PCut= 1.00D-07
 Density has only Abelian symmetry.
 E= -53.7584076286489    
 DIIS: error= 1.04D-01 at cycle   1 NSaved=   1.
 NSaved= 1 IEnMin= 1 EnMin= -53.7584076286489     IErMin= 1 ErrMin= 1.04D-01
 ErrMax= 1.04D-01  0.00D+00 EMaxC= 1.00D-01 BMatC= 1.99D-01 BMatP= 1.99D-01
 IDIUse=3 WtCom= 0.00D+00 WtEn= 1.00D+00
 Coeff-Com:  0.100D+01
 Coeff-En:   0.100D+01
 Coeff:      0.100D+01
 Gap=     0.000 Goal=   None    Shift=    0.000
 GapD=    0.000 DampG=0.250 DampE=0.250 DampFc=0.2500 IDamp=-1.
 Damping current iteration by 2.50D-01
 RMSDP=8.38D-03 MaxDP=1.50D-01              OVMax= 3.20D-01

 Cycle   2  Pass 1  IDiag  1:
 Density matrix breaks symmetry, PCut= 1.00D-07
 Density has only Abelian symmetry.
 E= -53.7772120238895     Delta-E=       -0.018804395241 Rises=F Damp=T
 DIIS: error= 6.03D-02 at cycle   2 NSaved=   2.
 NSaved= 2 IEnMin= 2 EnMin= -53.7772120238895     IErMin= 2 ErrMin= 6.03D-02
 ErrMax= 6.03D-02  0.00D+00 EMaxC= 1.00D-01 BMatC= 5.49D-02 BMatP= 1.99D-01
 IDIUse=3 WtCom= 3.97D-01 WtEn= 6.03D-01
 Coeff-Com: -0.141D+00 0.114D+01
 Coeff-En:   0.336D+00 0.664D+00
 Coeff:      0.147D+00 0.853D+00
 Gap=     0.000 Goal=   None    Shift=    0.000
 RMSDP=3.89D-03 MaxDP=8.10D-02 DE=-1.88D-02 OVMax= 2.50D-01

 Cycle   3  Pass 1  IDiag  1:
 Density matrix breaks symmetry, PCut= 1.00D-07
 Density has only Abelian symmetry.
 E= -53.8547865645382     Delta-E=       -0.077574540649 Rises=F Damp=F
 DIIS: error= 5.23D-02 at cycle   3 NSaved=   3.
 NSaved= 3 IEnMin= 3 EnMin= -53.8547865645382     IErMin= 3 ErrMin= 5.23D-02
 ErrMax= 5.23D-02  0.00D+00 EMaxC= 1.00D-01 BMatC= 2.58D-02 BMatP= 5.49D-02
 IDIUse=3 WtCom= 4.77D-01 WtEn= 5.23D-01
 Coeff-Com: -0.362D+00 0.580D+00 0.782D+00
 Coeff-En:   0.000D+00 0.000D+00 0.100D+01
 Coeff:     -0.173D+00 0.276D+00 0.896D+00
 Gap=     0.009 Goal=   None    Shift=    0.000
 RMSDP=3.64D-03 MaxDP=8.07D-02 DE=-7.76D-02 OVMax= 1.55D-01

 Cycle   4  Pass 1  IDiag  1:
 Density matrix breaks symmetry, PCut= 1.00D-07
 Density has only Abelian symmetry.
 E= -53.8823993590466     Delta-E=       -0.027612794508 Rises=F Damp=F
 DIIS: error= 9.93D-03 at cycle   4 NSaved=   4.
 NSaved= 4 IEnMin= 4 EnMin= -53.8823993590466     IErMin= 4 ErrMin= 9.93D-03
 ErrMax= 9.93D-03  0.00D+00 EMaxC= 1.00D-01 BMatC= 2.35D-03 BMatP= 2.58D-02
 IDIUse=3 WtCom= 9.01D-01 WtEn= 9.93D-02
 Coeff-Com: -0.185D+00 0.285D+00 0.438D+00 0.462D+00
 Coeff-En:   0.000D+00 0.000D+00 0.162D+00 0.838D+00
 Coeff:     -0.167D+00 0.257D+00 0.410D+00 0.500D+00
 Gap=     0.015 Goal=   None    Shift=    0.000
 RMSDP=1.82D-03 MaxDP=4.18D-02 DE=-2.76D-02 OVMax= 6.91D-02

 Cycle   5  Pass 1  IDiag  1:
 Density matrix breaks symmetry, PCut= 1.00D-07
 Density has only Abelian symmetry.
 E= -53.8809959432287     Delta-E=        0.001403415818 Rises=F Damp=F
 DIIS: error= 1.93D-02 at cycle   5 NSaved=   5.
 NSaved= 5 IEnMin= 4 EnMin= -53.8823993590466     IErMin= 4 ErrMin= 9.93D-03
 ErrMax= 1.93D-02  0.00D+00 EMaxC= 1.00D-01 BMatC= 3.10D-03 BMatP= 2.35D-03
 IDIUse=2 WtCom= 0.00D+00 WtEn= 1.00D+00
 Coeff-En:   0.000D+00 0.000D+00 0.000D+00 0.583D+00 0.417D+00
 Coeff:      0.000D+00 0.000D+00 0.000D+00 0.583D+00 0.417D+00
 Gap=     0.018 Goal=   None    Shift=    0.000
 RMSDP=1.11D-03 MaxDP=2.42D-02 DE= 1.40D-03 OVMax= 4.87D-02

 Cycle   6  Pass 1  IDiag  1:
 Density matrix breaks symmetry, PCut= 1.00D-07
 Density has only Abelian symmetry.
 E= -53.8845291756872     Delta-E=       -0.003533232459 Rises=F Damp=F
 DIIS: error= 2.50D-03 at cycle   6 NSaved=   6.
 NSaved= 6 IEnMin= 6 EnMin= -53.8845291756872     IErMin= 6 ErrMin= 2.50D-03
 ErrMax= 2.50D-03  0.00D+00 EMaxC= 1.00D-01 BMatC= 1.49D-04 BMatP= 2.35D-03
 IDIUse=3 WtCom= 9.75D-01 WtEn= 2.50D-02
 EnCoef did     4 forward-backward iterations
 Coeff-Com: -0.283D+00 0.380D+00-0.179D+00-0.810D-01 0.207D+01-0.903D+00
 Coeff-En:   0.000D+00 0.000D+00 0.000D+00 0.818D-02 0.744D-02 0.984D+00
 Coeff:     -0.275D+00 0.370D+00-0.175D+00-0.788D-01 0.201D+01-0.856D+00
 Gap=     0.008 Goal=   None    Shift=    0.000
 RMSDP=1.46D-03 MaxDP=3.33D-02 DE=-3.53D-03 OVMax= 6.13D-02

 Cycle   7  Pass 1  IDiag  1:
 Density matrix breaks symmetry, PCut= 1.00D-07
 Density has only Abelian symmetry.
 E= -53.8786791760649     Delta-E=        0.005849999622 Rises=F Damp=F
 DIIS: error= 2.51D-02 at cycle   7 NSaved=   7.
 NSaved= 7 IEnMin= 6 EnMin= -53.8845291756872     IErMin= 6 ErrMin= 2.50D-03
 ErrMax= 2.51D-02  0.00D+00 EMaxC= 1.00D-01 BMatC= 5.29D-03 BMatP= 1.49D-04
 IDIUse=2 WtCom= 0.00D+00 WtEn= 1.00D+00
 Rare condition: small coef for last iteration:  0.000D+00
 Coeff-En:   0.000D+00 0.000D+00 0.000D+00 0.674D+00 0.000D+00 0.000D+00
 Coeff-En:   0.326D+00
 Coeff:      0.000D+00 0.000D+00 0.000D+00 0.674D+00 0.000D+00 0.000D+00
 Coeff:      0.326D+00
 Gap=     0.018 Goal=   None    Shift=    0.000
 RMSDP=1.45D-03 MaxDP=3.40D-02 DE= 5.85D-03 OVMax= 5.85D-02

 Cycle   8  Pass 1  IDiag  1:
 Density matrix breaks symmetry, PCut= 1.00D-07
 Density has only Abelian symmetry.
 E= -53.8844425907213     Delta-E=       -0.005763414656 Rises=F Damp=F
 DIIS: error= 3.40D-03 at cycle   8 NSaved=   8.
 NSaved= 8 IEnMin= 6 EnMin= -53.8845291756872     IErMin= 6 ErrMin= 2.50D-03
 ErrMax= 3.40D-03  0.00D+00 EMaxC= 1.00D-01 BMatC= 2.47D-04 BMatP= 1.49D-04
 IDIUse=3 WtCom= 9.75D-01 WtEn= 2.50D-02
 Coeff-Com:  0.895D-02-0.171D-01 0.675D-01-0.356D+00 0.670D+00 0.749D+01
 Coeff-Com: -0.410D+00-0.645D+01
 Coeff-En:   0.000D+00 0.000D+00 0.000D+00 0.126D+00 0.000D+00 0.000D+00
 Coeff-En:   0.000D+00 0.874D+00
 Coeff:      0.872D-02-0.167D-01 0.658D-01-0.344D+00 0.653D+00 0.730D+01
 Coeff:     -0.400D+00-0.627D+01
 Gap=     0.019 Goal=   None    Shift=    0.000
 RMSDP=3.98D-04 MaxDP=6.34D-03 DE=-5.76D-03 OVMax= 8.47D-03

 Cycle   9  Pass 1  IDiag  1:
 Density matrix breaks symmetry, PCut= 1.00D-07
 Density has only Abelian symmetry.
 E= -53.8846332508335     Delta-E=       -0.000190660112 Rises=F Damp=F
 DIIS: error= 8.37D-04 at cycle   9 NSaved=   9.
 NSaved= 9 IEnMin= 9 EnMin= -53.8846332508335     IErMin= 9 ErrMin= 8.37D-04
 ErrMax= 8.37D-04  0.00D+00 EMaxC= 1.00D-01 BMatC= 6.51D-06 BMatP= 1.49D-04
 IDIUse=3 WtCom= 9.92D-01 WtEn= 8.37D-03
 Coeff-Com:  0.364D-02-0.445D-02 0.168D-02 0.918D-02-0.991D-01-0.568D-01
 Coeff-Com:  0.886D-01 0.739D-01 0.983D+00
 Coeff-En:   0.000D+00 0.000D+00 0.000D+00 0.000D+00 0.000D+00 0.000D+00
 Coeff-En:   0.000D+00 0.000D+00 0.100D+01
 Coeff:      0.361D-02-0.441D-02 0.166D-02 0.910D-02-0.982D-01-0.564D-01
 Coeff:      0.879D-01 0.733D-01 0.983D+00
 Gap=     0.019 Goal=   None    Shift=    0.000
 RMSDP=3.66D-05 MaxDP=8.36D-04 DE=-1.91D-04 OVMax= 1.37D-03

 Cycle  10  Pass 1  IDiag  1:
 Density matrix breaks symmetry, PCut= 1.00D-07
 Density has only Abelian symmetry.
 E= -53.8846395589927     Delta-E=       -0.000006308159 Rises=F Damp=F
 DIIS: error= 2.55D-04 at cycle  10 NSaved=  10.
 NSaved=10 IEnMin=10 EnMin= -53.8846395589927     IErMin=10 ErrMin= 2.55D-04
 ErrMax= 2.55D-04  0.00D+00 EMaxC= 1.00D-01 BMatC= 5.54D-07 BMatP= 6.51D-06
 IDIUse=3 WtCom= 9.97D-01 WtEn= 2.55D-03
 Coeff-Com:  0.132D-02-0.170D-02 0.148D-02-0.268D-02-0.206D-01 0.703D-01
 Coeff-Com:  0.200D-01-0.500D-01 0.130D-01 0.969D+00
 Coeff-En:   0.000D+00 0.000D+00 0.000D+00 0.000D+00 0.000D+00 0.000D+00
 Coeff-En:   0.000D+00 0.000D+00 0.000D+00 0.100D+01
 Coeff:      0.132D-02-0.169D-02 0.148D-02-0.268D-02-0.205D-01 0.701D-01
 Coeff:      0.200D-01-0.499D-01 0.129D-01 0.969D+00
 Gap=     0.018 Goal=   None    Shift=    0.000
 RMSDP=8.44D-06 MaxDP=1.76D-04 DE=-6.31D-06 OVMax= 3.66D-04

 Cycle  11  Pass 1  IDiag  1:
 Density matrix breaks symmetry, PCut= 1.00D-07
 Density has only Abelian symmetry.
 E= -53.8846400857763     Delta-E=       -0.000000526784 Rises=F Damp=F
 DIIS: error= 9.92D-05 at cycle  11 NSaved=  11.
 NSaved=11 IEnMin=11 EnMin= -53.8846400857763     IErMin=11 ErrMin= 9.92D-05
 ErrMax= 9.92D-05  0.00D+00 EMaxC= 1.00D-01 BMatC= 8.42D-08 BMatP= 5.54D-07
 IDIUse=1 WtCom= 1.00D+00 WtEn= 0.00D+00
 Coeff-Com:  0.224D-04-0.506D-04 0.134D-03-0.825D-03 0.357D-02 0.181D-01
 Coeff-Com: -0.196D-02-0.166D-01-0.142D-01-0.490D+00 0.150D+01
 Coeff:      0.224D-04-0.506D-04 0.134D-03-0.825D-03 0.357D-02 0.181D-01
 Coeff:     -0.196D-02-0.166D-01-0.142D-01-0.490D+00 0.150D+01
 Gap=     0.018 Goal=   None    Shift=    0.000
 RMSDP=5.26D-06 MaxDP=1.11D-04 DE=-5.27D-07 OVMax= 2.26D-04

 Cycle  12  Pass 1  IDiag  1:
 Density matrix breaks symmetry, PCut= 1.00D-07
 Density has only Abelian symmetry.
 E= -53.8846401797925     Delta-E=       -0.000000094016 Rises=F Damp=F
 DIIS: error= 2.82D-06 at cycle  12 NSaved=  12.
 NSaved=12 IEnMin=12 EnMin= -53.8846401797925     IErMin=12 ErrMin= 2.82D-06
 ErrMax= 2.82D-06  0.00D+00 EMaxC= 1.00D-01 BMatC= 7.24D-11 BMatP= 8.42D-08
 IDIUse=1 WtCom= 1.00D+00 WtEn= 0.00D+00
 Coeff-Com:  0.129D-04-0.165D-04 0.104D-04 0.199D-04-0.232D-03 0.312D-03
 Coeff-Com:  0.248D-03-0.248D-03 0.260D-02-0.201D-01 0.346D-01 0.983D+00
 Coeff:      0.129D-04-0.165D-04 0.104D-04 0.199D-04-0.232D-03 0.312D-03
 Coeff:      0.248D-03-0.248D-03 0.260D-02-0.201D-01 0.346D-01 0.983D+00
 Gap=     0.018 Goal=   None    Shift=    0.000
 RMSDP=1.14D-07 MaxDP=2.60D-06 DE=-9.40D-08 OVMax= 4.35D-06

 Cycle  13  Pass 1  IDiag  1:
 Density matrix breaks symmetry, PCut= 1.00D-07
 Density has only Abelian symmetry.
 E= -53.8846401798615     Delta-E=       -0.000000000069 Rises=F Damp=F
 DIIS: error= 9.64D-07 at cycle  13 NSaved=  13.
 NSaved=13 IEnMin=13 EnMin= -53.8846401798615     IErMin=13 ErrMin= 9.64D-07
 ErrMax= 9.64D-07  0.00D+00 EMaxC= 1.00D-01 BMatC= 7.92D-12 BMatP= 7.24D-11
 IDIUse=1 WtCom= 1.00D+00 WtEn= 0.00D+00
 Coeff-Com: -0.295D-06 0.475D-06 0.198D-07-0.521D-05-0.112D-04 0.825D-06
 Coeff-Com: -0.294D-05 0.154D-04-0.232D-03 0.653D-02-0.252D-01-0.140D+00
 Coeff-Com:  0.116D+01
 Coeff:     -0.295D-06 0.475D-06 0.198D-07-0.521D-05-0.112D-04 0.825D-06
 Coeff:     -0.294D-05 0.154D-04-0.232D-03 0.653D-02-0.252D-01-0.140D+00
 Coeff:      0.116D+01
 Gap=     0.018 Goal=   None    Shift=    0.000
 RMSDP=5.38D-08 MaxDP=1.14D-06 DE=-6.90D-11 OVMax= 2.31D-06

 Cycle  14  Pass 1  IDiag  1:
 Density matrix breaks symmetry, PCut= 1.00D-07
 Density has only Abelian symmetry.
 E= -53.8846401798703     Delta-E=       -0.000000000009 Rises=F Damp=F
 DIIS: error= 2.54D-08 at cycle  14 NSaved=  14.
 NSaved=14 IEnMin=14 EnMin= -53.8846401798703     IErMin=14 ErrMin= 2.54D-08
 ErrMax= 2.54D-08  0.00D+00 EMaxC= 1.00D-01 BMatC= 5.67D-15 BMatP= 7.92D-12
 IDIUse=1 WtCom= 1.00D+00 WtEn= 0.00D+00
 Coeff-Com:  0.154D-07-0.311D-07-0.120D-08 0.417D-07 0.186D-05 0.164D-06
 Coeff-Com: -0.285D-06-0.513D-06-0.144D-04-0.485D-04 0.817D-03-0.199D-02
 Coeff-Com:  0.467D-02 0.997D+00
 Coeff:      0.154D-07-0.311D-07-0.120D-08 0.417D-07 0.186D-05 0.164D-06
 Coeff:     -0.285D-06-0.513D-06-0.144D-04-0.485D-04 0.817D-03-0.199D-02
 Coeff:      0.467D-02 0.997D+00
 Gap=     0.018 Goal=   None    Shift=    0.000
 RMSDP=1.48D-09 MaxDP=3.24D-08 DE=-8.80D-12 OVMax= 6.19D-08

 Density matrix breaks symmetry, PCut= 1.00D-07
 Density has only Abelian symmetry.
 SCF Done:  E(ROHF) =  -53.8846401799     A.U. after   14 cycles
            NFock= 14  Conv=0.15D-08     -V/T= 2.0002
 <Sx>= 0.0000 <Sy>= 0.0000 <Sz>= 1.0000 <S**2>= 2.0000 S= 1.0000
 <L.S>= 0.000000000000E+00
 KE= 5.387273296277D+01 PE=-1.239268661242D+02 EE= 1.616949298155D+01
 Annihilation of the first spin contaminant:
 S**2 before annihilation     2.0000,   after     2.0000
 Leave Link  502 at Mon Oct  5 21:36:18 2020, MaxMem=   268435456 cpu:               5.6 elap:               0.8
 (Enter /applis/site/cecic/gaussian16/B.01/nehalem/g16/l801.exe)
 Windowed orbitals will be sorted by symmetry type.
 Density matrix breaks symmetry, PCut= 1.00D-07
 Density has only Abelian symmetry.
 GenMOA:  NOpAll= 48 NOp2=8 NOpUse=  8 JSym2X=1
 FoFJK:  IHMeth= 1 ICntrl=       0 DoSepK=F KAlg= 0 I1Cent=           0 FoldK=F
 IRaf=         0 NMat=       1 IRICut=       1 DoRegI=T DoRafI=F ISym2E= 1 IDoP0=0 IntGTp=1.
 FoFCou: FMM=F IPFlag=           0 FMFlag=      100000 FMFlg1=           0
         NFxFlg=           0 DoJE=F BraDBF=F KetDBF=F FulRan=T
         wScrn=  0.000000 ICntrl=         0 IOpCl=  1 I1Cent=           0 NGrid=           0
         NMat0=    1 NMatS0=      1 NMatT0=    0 NMatD0=    1 NMtDS0=    0 NMtDT0=    0
 Petite list used in FoFCou.
 <Sx>= 0.0000 <Sy>= 0.0000 <Sz>= 1.0000 <S**2>= 2.0000 S= 1.0000
 ExpMin= 4.91D-02 ExpMax= 1.14D+04 ExpMxC= 3.89D+02 IAcc=3 IRadAn=         5 AccDes= 0.00D+00
 HarFok:  IExCor=  205 AccDes= 0.00D+00 IRadAn=         5 IDoV=-2 UseB2=F ITyADJ=14
 ICtDFT= 12500011 ScaDFX=  1.000000  1.000000  1.000000  1.000000
 Largest valence mixing into a core orbital is  1.23D-04
 Largest core mixing into a valence orbital is  2.29D-05
 Largest valence mixing into a core orbital is  1.97D-04
 Largest core mixing into a valence orbital is  9.70D-05
 Range of M.O.s used for correlation:     2    46
 NBasis=    46 NAE=     4 NBE=     2 NFC=     1 NFV=     0
 NROrb=     45 NOA=     3 NOB=     1 NVA=    42 NVB=    44
 Singles contribution to E2=   -0.4064496009D-02
 Leave Link  801 at Mon Oct  5 21:36:23 2020, MaxMem=   268435456 cpu:              30.5 elap:               4.4
 (Enter /applis/site/cecic/gaussian16/B.01/nehalem/g16/l804.exe)
 Open-shell transformation, MDV=   268435456 ITran=4 ISComp=2.
 Unit  1 TFree=         71201 TCopy=        252054.
 Semi-Direct transformation.
 ModeAB=           2 MOrb=             3 LenV=     268163321
 LASXX=        16350 LTotXX=       16350 LenRXX=       16350
 LTotAB=       17992 MaxLAS=      207900 LenRXY=      207900
 NonZer=      227745 LenScr=      720896 LnRSAI=           0
 LnScr1=           0 LExtra=           0 Total=       945146
 MaxDsk=          -1 SrtSym=           F ITran=            4
 DoSDTr:  NPSUse=  8
 JobTyp=1 Pass  1:  I=   1 to   3.
 (rs|ai) integrals will be sorted in core.
 Complete sort for first half transformation.
 First half transformation complete.
 Complete sort for second half transformation.
 Second half transformation complete.
 ModeAB=           2 MOrb=             1 LenV=     268163321
 LASXX=         5722 LTotXX=        5722 LenRXX=       69300
 LTotAB=        5471 MaxLAS=       69300 LenRXY=        5471
 NonZer=       75915 LenScr=      720896 LnRSAI=           0
 LnScr1=           0 LExtra=           0 Total=       795667
 MaxDsk=          -1 SrtSym=           F ITran=            4
 DoSDTr:  NPSUse=  8
 JobTyp=2 Pass  1:  I=   1 to   1.
 (rs|ai) integrals will be sorted in core.
 Complete sort for first half transformation.
 First half transformation complete.
 Complete sort for second half transformation.
 Second half transformation complete.
 Spin components of T(2) and E(2):
     alpha-alpha T2 =       0.2706189384D-02 E2=     -0.1320935565D-01
     alpha-beta  T2 =       0.1649105397D-01 E2=     -0.6040985688D-01
     beta-beta   T2 =       0.0000000000D+00 E2=      0.0000000000D+00
 ANorm=    0.1010396914D+01
 E2 =    -0.7768370854D-01 EUMP2 =    -0.53962323888406D+02
 (S**2,0)=  0.20000D+01           (S**2,1)=  0.20000D+01
 E(PUHF)=      -0.53884640180D+02        E(PMP2)=      -0.53962323888D+02
 Leave Link  804 at Mon Oct  5 21:36:23 2020, MaxMem=   268435456 cpu:               4.7 elap:               0.7
 (Enter /applis/site/cecic/gaussian16/B.01/nehalem/g16/l913.exe)
 CIDS:  MDV=   268435456.
 Frozen-core window:  NFC=   1 NFV=   0.
 IFCWin=0 IBDFC=1 NFBD=     0     0 NFCmp=     0     0 NFFFC=     0     0
 Using original routines for 1st iteration.
 Using DD4UQ or CC4UQ for 2nd and later iterations.
 Keep R2 and R3 ints in memory in symmetry-blocked form, NReq=4491939.
 FoFCou: FMM=F IPFlag=           0 FMFlag=           0 FMFlg1=           0
         NFxFlg=           0 DoJE=F BraDBF=F KetDBF=F FulRan=T
         wScrn=  0.000000 ICntrl=       600 IOpCl=  0 I1Cent=           0 NGrid=           0
         NMat0=    1 NMatS0=   1081 NMatT0=    0 NMatD0=    1 NMtDS0=    0 NMtDT0=    0
 Petite list used in FoFCou.
 CIDS: In Core Option IDoMem=           1.
 CCSD(T)
 =======
 Iterations=  50 Convergence= 0.100D-06
 Produce multiple copies of IABC intergrals
 Iteration Nr.   1
 **********************
 DD1Dir will call FoFMem   1 times, MxPair=        10
 NAB=     3 NAA=     3 NBB=     0.
 DD1Dir will call FoFMem   1 times, MxPair=        10
 NAB=     3 NAA=     3 NBB=     0.
 MP4(R+Q)=  0.16731509D-01
 Maximum subspace dimension=  5
 A-vector RMS=  2.5803194D-04 Max=  2.1016294D-03 conv= 1.00D-05.
 RLE energy=       -0.0763923697
 E3=       -0.15432496D-01        EROMP3=      -0.53977756385D+02
 E4(SDQ)=  -0.35749269D-02        ROMP4(SDQ)=  -0.53981331312D+02
 VARIATIONAL ENERGIES WITH THE FIRST-ORDER WAVEFUNCTION:
 DE(Corr)= -0.76368581E-01 E(Corr)=     -53.961008760    
 NORM(A)=   0.10099549D+01
 Iteration Nr.   2
 **********************
 DD1Dir will call FoFMem   1 times, MxPair=        10
 NAB=     3 NAA=     3 NBB=     0.
 A-vector RMS=  2.2561972D-03 Max=  2.7883507D-02 conv= 1.00D-05.
 RLE energy=       -0.0775029341
 DE(Corr)= -0.91463800E-01 E(CORR)=     -53.976103980     Delta=-1.51D-02
 NORM(A)=   0.10103276D+01
 Iteration Nr.   3
 **********************
 DD1Dir will call FoFMem   1 times, MxPair=        10
 NAB=     3 NAA=     3 NBB=     0.
 A-vector RMS=  2.1427284D-03 Max=  2.6867431D-02 conv= 1.00D-05.
 RLE energy=       -0.0896639771
 DE(Corr)= -0.91772779E-01 E(CORR)=     -53.976412959     Delta=-3.09D-04
 NORM(A)=   0.10156282D+01
 Iteration Nr.   4
 **********************
 DD1Dir will call FoFMem   1 times, MxPair=        10
 NAB=     3 NAA=     3 NBB=     0.
 A-vector RMS=  8.9612390D-04 Max=  1.2330564D-02 conv= 1.00D-05.
 RLE energy=       -0.1049793344
 DE(Corr)= -0.95641247E-01 E(CORR)=     -53.980281427     Delta=-3.87D-03
 NORM(A)=   0.10249627D+01
 Iteration Nr.   5
 **********************
 DD1Dir will call FoFMem   1 times, MxPair=        10
 NAB=     3 NAA=     3 NBB=     0.
 A-vector RMS=  6.6603802D-04 Max=  8.2542344D-03 conv= 1.00D-05.
 RLE energy=       -0.1005656625
 DE(Corr)= -0.10052379     E(CORR)=     -53.985163967     Delta=-4.88D-03
 NORM(A)=   0.10220222D+01
 Iteration Nr.   6
 **********************
 DD1Dir will call FoFMem   1 times, MxPair=        10
 NAB=     3 NAA=     3 NBB=     0.
 A-vector RMS=  2.0850722D-04 Max=  2.5409762D-03 conv= 1.00D-05.
 RLE energy=       -0.0985114293
 DE(Corr)= -0.99152752E-01 E(CORR)=     -53.983792932     Delta= 1.37D-03
 NORM(A)=   0.10207501D+01
 Iteration Nr.   7
 **********************
 DD1Dir will call FoFMem   1 times, MxPair=        10
 NAB=     3 NAA=     3 NBB=     0.
 A-vector RMS=  3.8027196D-06 Max=  3.5362266D-05 conv= 1.00D-05.
 RLE energy=       -0.0985349137
 DE(Corr)= -0.98519637E-01 E(CORR)=     -53.983159817     Delta= 6.33D-04
 NORM(A)=   0.10207691D+01
 Iteration Nr.   8
 **********************
 DD1Dir will call FoFMem   1 times, MxPair=        10
 NAB=     3 NAA=     3 NBB=     0.
 A-vector RMS=  9.8324379D-07 Max=  1.9349338D-05 conv= 1.00D-05.
 RLE energy=       -0.0985247968
 DE(Corr)= -0.98528706E-01 E(CORR)=     -53.983168885     Delta=-9.07D-06
 NORM(A)=   0.10207614D+01
 Iteration Nr.   9
 **********************
 DD1Dir will call FoFMem   1 times, MxPair=        10
 NAB=     3 NAA=     3 NBB=     0.
 A-vector RMS=  1.0145261D-07 Max=  7.0626046D-07 conv= 1.00D-05.
 RLE energy=       -0.0985248659
 DE(Corr)= -0.98524844E-01 E(CORR)=     -53.983165024     Delta= 3.86D-06
 NORM(A)=   0.10207615D+01
 Iteration Nr.  10
 **********************
 DD1Dir will call FoFMem   1 times, MxPair=        10
 NAB=     3 NAA=     3 NBB=     0.
 A-vector RMS=  4.9727210D-08 Max=  2.8069894D-07 conv= 1.00D-05.
 RLE energy=       -0.0985248854
 DE(Corr)= -0.98524871E-01 E(CORR)=     -53.983165051     Delta=-2.69D-08
 NORM(A)=   0.10207615D+01
 CI/CC converged in   10 iterations to DelEn=-2.69D-08 Conv= 1.00D-07 ErrA1= 4.97D-08 Conv= 1.00D-05
 Wavefunction amplitudes converged. E(Corr)=     -53.983165051    
 Dominant configurations:
 ***********************
 Spin Case        I    J    A    B          Value
   ABAB           2    2    5    3      -0.118393D+00
 Largest amplitude= 1.18D-01
 Time for triples=      351.73 seconds.
 T4(CCSD)= -0.16797582D-02
 T5(CCSD)= -0.40666191D-04
 CCSD(T)= -0.53984885475D+02
 Discarding MO integrals.
 Leave Link  913 at Mon Oct  5 21:37:15 2020, MaxMem=   268435456 cpu:             360.5 elap:              51.5
 (Enter /applis/site/cecic/gaussian16/B.01/nehalem/g16/l601.exe)
 Copying SCF densities to generalized density rwf, IOpCl= 0 IROHF=1.
 SCF density gives NOpUse=  8 NOpAll= 48.
 Marking SCF density as not fully symmetric.

 **********************************************************************

            Population analysis using the SCF Density.

 **********************************************************************

 Orbital symmetries:
       Occupied  (A1G) (A1G) (?A) (?A)
       Virtual   (?A) (?B) (?A) (?A) (?A) (?B) (T2G) (T2G) (T2G)
                 (?B) (?A) (?A) (?A) (?B) (?A) (?A) (?A) (?B) (T2G)
                 (T2G) (?B) (T2G) (?A) (A2U) (?A) (?A) (?A) (?A)
                 (?A) (?A) (?A) (?A) (A2U) (?A) (?A) (?A) (EG)
                 (T2G) (T2G) (EG) (T2G) (A1G)
 Unable to determine electronic state:  an orbital has unidentified symmetry.
 Alpha  occ. eigenvalues --  -16.32124  -1.61323  -1.10948  -1.10948
 Alpha virt. eigenvalues --   -0.46742  -0.12529  -0.07924  -0.07924  -0.07023
 Alpha virt. eigenvalues --    0.15599   0.15646   0.15646   0.15820   0.15820
 Alpha virt. eigenvalues --    0.36498   0.36498   0.40907   0.57558   1.06830
 Alpha virt. eigenvalues --    1.06830   1.08251   1.08251   1.08767   1.09678
 Alpha virt. eigenvalues --    1.09873   1.09873   1.10466   1.10466   1.11467
 Alpha virt. eigenvalues --    1.11467   2.73518   2.73518   2.78686   4.30556
 Alpha virt. eigenvalues --    4.30877   4.30877   4.31845   4.31845   4.33467
 Alpha virt. eigenvalues --    4.33467   4.42859   4.42859   4.43740   4.43740
 Alpha virt. eigenvalues --    4.44048   5.75291
          Condensed to atoms (all electrons):
               1
     1  N    6.000000
          Atomic-Atomic Spin Densities.
               1
     1  N    2.000000
 Mulliken charges and spin densities:
               1          2
     1  N    1.000000   2.000000
 Sum of Mulliken charges =   1.00000   2.00000
 Mulliken charges and spin densities with hydrogens summed into heavy atoms:
               1          2
     1  N    1.000000   2.000000
 Electronic spatial extent (au):  <R**2>=              7.7849
 Charge=              1.0000 electrons
 Dipole moment (field-independent basis, Debye):
    X=              0.0000    Y=              0.0000    Z=              0.0000  Tot=              0.0000
 Quadrupole moment (field-independent basis, Debye-Ang):
   XX=             -2.7797   YY=             -3.8456   ZZ=             -3.8456
   XY=              0.0000   XZ=             -0.0000   YZ=             -0.0000
 Traceless Quadrupole moment (field-independent basis, Debye-Ang):
   XX=              0.7106   YY=             -0.3553   ZZ=             -0.3553
   XY=              0.0000   XZ=             -0.0000   YZ=             -0.0000
 Octapole moment (field-independent basis, Debye-Ang**2):
  XXX=              0.0000  YYY=              0.0000  ZZZ=              0.0000  XYY=              0.0000
  XXY=              0.0000  XXZ=              0.0000  XZZ=              0.0000  YZZ=              0.0000
  YYZ=              0.0000  XYZ=              0.0000
 Hexadecapole moment (field-independent basis, Debye-Ang**3):
 XXXX=             -1.5067 YYYY=             -2.5915 ZZZZ=             -2.5915 XXXY=              0.0000
 XXXZ=             -0.0000 YYYX=              0.0000 YYYZ=             -0.0000 ZZZX=             -0.0000
 ZZZY=             -0.0000 XXYY=             -0.6830 XXZZ=             -0.6830 YYZZ=             -0.8638
 XXYZ=             -0.0000 YYXZ=             -0.0000 ZZXY=              0.0000
 N-N= 0.000000000000D+00 E-N=-1.239268663265D+02  KE= 5.387273296277D+01
 Symmetry AG   KE= 4.936697262804D+01
 Symmetry B1G  KE= 2.096430622207D-37
 Symmetry B2G  KE= 2.096430622206D-37
 Symmetry B3G  KE= 8.273988954008D-54
 Symmetry AU   KE= 4.634466066594D-41
 Symmetry B1U  KE= 2.252880167364D+00
 Symmetry B2U  KE= 2.252880167364D+00
 Symmetry B3U  KE= 8.446947814457D-33
 Symmetry AG   SP= 7.035810556721D-16
 Symmetry B1G  SP= 9.901083298474D-54
 Symmetry B2G  SP= 1.512132687287D-53
 Symmetry B3G  SP= 5.795634610462D-70
 Symmetry AU   SP= 8.290511188402D-42
 Symmetry B1U  SP= 1.000000000000D+00
 Symmetry B2U  SP= 1.000000000000D+00
 Symmetry B3U  SP= 3.749399481526D-33
                          Isotropic Fermi Contact Couplings
        Atom                 a.u.       MegaHertz       Gauss      10(-4) cm-1
     1  N(14)              0.00000       0.00000       0.00000       0.00000
 --------------------------------------------------------
       Center         ----  Spin Dipole Couplings  ----
                      3XX-RR        3YY-RR        3ZZ-RR
 --------------------------------------------------------
     1   Atom       -3.015656      1.507828      1.507828
 --------------------------------------------------------
                        XY            XZ            YZ
 --------------------------------------------------------
     1   Atom        0.000000      0.000000      0.000000
 --------------------------------------------------------


 ---------------------------------------------------------------------------------
              Anisotropic Spin Dipole Couplings in Principal Axis System
 ---------------------------------------------------------------------------------

       Atom             a.u.   MegaHertz   Gauss  10(-4) cm-1        Axes

              Baa    -3.0157  -116.307   -41.501   -38.796  1.0000  0.0000  0.0000
     1 N(14)  Bbb     1.5078    58.154    20.751    19.398 -0.0000  1.0000  0.0000
              Bcc     1.5078    58.154    20.751    19.398  0.0000  0.0000  1.0000
 

 ---------------------------------------------------------------------------------

 No NMR shielding tensors so no spin-rotation constants.
 Leave Link  601 at Mon Oct  5 21:37:16 2020, MaxMem=   268435456 cpu:               3.2 elap:               0.5
 (Enter /applis/site/cecic/gaussian16/B.01/nehalem/g16/l9999.exe)
 1\1\GINC-DAHU107\SP\ROCCSD(T)-FC\Aug-CC-pVTZ\N1(1+,3)\TINACCIL\05-Oct-
 2020\0\\#P ROCCSD(T)/aug-cc-pvtz\\Title\\1,3\N\\Version=ES64L-G16RevB.
 01\HF=-53.8846402\MP2=-53.9623239\MP3=-53.9777564\PUHF=-53.8846402\PMP
 2-0=-53.9623239\MP4SDQ=-53.9813313\CCSD=-53.9831651\CCSD(T)=-53.984885
 5\RMSD=1.484e-09\PG=OH [O(N1)]\\@


 ERROR IS A HARDY PLANT... IT FLOURISHETH IN EVERY SOIL.
            MARTIN FARQUHAR TUPPER
 Job cpu time:       0 days  0 hours  6 minutes 50.7 seconds.
 Elapsed time:       0 days  0 hours  0 minutes 59.1 seconds.
 File lengths (MBytes):  RWF=     20 Int=      0 D2E=      0 Chk=      2 Scr=      1
 Normal termination of Gaussian 16 at Mon Oct  5 21:37:16 2020.
