2
 energy: -0.982685488593 gnorm: 0.000856620507 xtb: 6.2.2 (9d81278992624c895f80dd42a50cac0aa55982e2)
H         0.38894771001310   -0.00000203652545   -0.00000135768363
H        -0.38894771001310    0.00000203652545    0.00000135768363
