 Entering Gaussian System
 *********************************************
 Gaussian 98:
 frequency output generated by the xtb code
 *********************************************
                         Standard orientation:
 --------------------------------------------------------------------
  Center     Atomic     Atomic              Coordinates (Angstroms)
  Number     Number      Type              X           Y           Z
 --------------------------------------------------------------------
    1          6             0       -1.283320   -0.061018    0.094057
    2          6             0       -0.083947   -0.002586    0.007324
    3          6             0        1.276116    0.060711   -0.096115
    4          7             0        2.420007    0.113385   -0.177449
    5          1             0       -2.328856   -0.110491    0.172183
 --------------------------------------------------------------------
     1 basis functions        1 primitive gaussians
     1 alpha electrons        1 beta electrons

 Harmonic frequencies (cm**-1), IR intensities (KM/Mole),
 Raman scattering activities (A**4/amu), Raman depolarization ratios,
 reduced masses (AMU), force constants (mDyne/A) and normal coordinates:
                      1                      2                      3
                        a                      a                      a 
 Frequencies --   198.6513               198.7322               471.9104
 Red. masses --    11.7272                11.7290                11.3864
 Frc consts  --     0.0000                 0.0000                 0.0000
 IR Inten    --     0.3102                 0.3097                 0.2192
 Raman Activ --     0.0000                 0.0000                 0.0000
 Depolar     --     0.0000                 0.0000                 0.0000
 Atom AN      X      Y      Z        X      Y      Z        X      Y      Z
   1   6    -0.02   0.44  -0.02     0.03   0.02   0.44     0.01  -0.26   0.01
   2   6     0.03  -0.63   0.02    -0.04  -0.03  -0.63    -0.03   0.55  -0.02
   3   6     0.02  -0.38   0.01    -0.03  -0.02  -0.38     0.03  -0.69   0.02
   4   7    -0.02   0.45  -0.02     0.03   0.02   0.45    -0.01   0.29  -0.01
   5   1    -0.01   0.25  -0.01     0.02   0.01   0.25    -0.01   0.27  -0.01
                      4                      5                      6
                        a                      a                      a 
 Frequencies --   471.9726               671.3406               671.3495
 Red. masses --    11.3870                 3.6075                 3.6081
 Frc consts  --     0.0000                 0.0000                 0.0000
 IR Inten    --     0.2192                 0.2699                 0.2702
 Raman Activ --     0.0000                 0.0000                 0.0000
 Depolar     --     0.0000                 0.0000                 0.0000
 Atom AN      X      Y      Z        X      Y      Z        X      Y      Z
   1   6    -0.02  -0.01  -0.26    -0.03   0.05  -0.32     0.01  -0.32  -0.05
   2   6     0.04   0.02   0.55    -0.01   0.02  -0.14     0.00  -0.14  -0.02
   3   6    -0.05  -0.02  -0.68     0.03  -0.05   0.31    -0.01   0.31   0.05
   4   7     0.02   0.01   0.29    -0.01   0.01  -0.09     0.00  -0.09  -0.01
   5   1     0.02   0.01   0.27     0.07  -0.13   0.86    -0.03   0.86   0.13
                      7                      8                      9
                        a                      a                      a 
 Frequencies --   915.8799              2214.1354              2367.0164
 Red. masses --    12.3312                11.2781                12.6036
 Frc consts  --     0.0000                 0.0000                 0.0000
 IR Inten    --     0.0984                 0.1261                 1.2595
 Raman Activ --     0.0000                 0.0000                 0.0000
 Depolar     --     0.0000                 0.0000                 0.0000
 Atom AN      X      Y      Z        X      Y      Z        X      Y      Z
   1   6     0.57   0.03  -0.04    -0.55  -0.03   0.04    -0.12  -0.01   0.01
   2   6     0.40   0.02  -0.03     0.72   0.03  -0.05     0.28   0.01  -0.02
   3   6    -0.39  -0.02   0.03     0.19   0.01  -0.01    -0.75  -0.03   0.05
   4   7    -0.57  -0.03   0.04    -0.26  -0.01   0.02     0.57   0.03  -0.04
   5   1     0.18   0.01  -0.01    -0.28  -0.01   0.02    -0.07  -0.00   0.01
                     10
                        a 
 Frequencies --  3391.9552
 Red. masses --     2.4927
 Frc consts  --     0.0000
 IR Inten    --     0.0658
 Raman Activ --     0.0000
 Depolar     --     0.0000
 Atom AN      X      Y      Z        X      Y      Z        X      Y      Z
   1   6     0.35   0.02  -0.03
   2   6    -0.09  -0.00   0.01
   3   6    -0.00  -0.00   0.00
   4   7     0.00   0.00  -0.00
   5   1    -0.93  -0.04   0.07
