3
 energy: -9.614069184103 gnorm: 0.281691953006 xtb: 6.2.2 (9d81278992624c895f80dd42a50cac0aa55982e2)
N        -0.02420400000000    0.54743800000000    0.00000000000000
N         1.11661400000000   -0.26406300000000    0.00000000000000
O        -1.09241100000000   -0.28337500000000    0.00000000000000
3
 energy: -9.667789996247 gnorm: 0.137601470892 xtb: 6.2.2 (9d81278992624c895f80dd42a50cac0aa55982e2)
N        -0.00468570123200    0.44532667024002    0.00000000000000
N         1.07896222290416   -0.20767388604068    0.00000000000000
O        -1.07427752167217   -0.23765278419934    0.00000000000000
3
 energy: -9.669286260881 gnorm: 0.178940457424 xtb: 6.2.2 (9d81278992624c895f80dd42a50cac0aa55982e2)
N         0.01977965285298    0.36654527155951    0.00000000000000
N         1.02469450185885   -0.16085098565029    0.00000000000000
O        -1.04447515471183   -0.20569428590922    0.00000000000000
3
 energy: -9.677295855606 gnorm: 0.026888568546 xtb: 6.2.2 (9d81278992624c895f80dd42a50cac0aa55982e2)
N         0.00170136880951    0.37941628537188    0.00000000000000
N         1.08069193087870   -0.17338464104271    0.00000000000000
O        -1.08239429968821   -0.20603164432917    0.00000000000000
3
 energy: -9.677582116224 gnorm: 0.006222388913 xtb: 6.2.2 (9d81278992624c895f80dd42a50cac0aa55982e2)
N         0.00249389721697    0.37897864278818    0.00000000000000
N         1.07172633977737   -0.17295332302691    0.00000000000000
O        -1.07422123699434   -0.20602531976126    0.00000000000000
3
 energy: -9.677595215194 gnorm: 0.000524438049 xtb: 6.2.2 (9d81278992624c895f80dd42a50cac0aa55982e2)
N         0.00362068138460    0.37715643840797    0.00000000000000
N         1.07085278834906   -0.17165602291313    0.00000000000000
O        -1.07447446973367   -0.20550041549484    0.00000000000000
3
 energy: -9.677595357760 gnorm: 0.000282788094 xtb: 6.2.2 (9d81278992624c895f80dd42a50cac0aa55982e2)
N         0.00351328892633    0.37772702178880    0.00000000000000
N         1.07063475403396   -0.17197423338636    0.00000000000000
O        -1.07414904296029   -0.20575278840244    0.00000000000000
