[Molden Format]
[Title]
[Atoms] AU
N      1     7  0.66428906979445E-02  0.71380052005165E+00 -0.12689920051742E-05
N      2     7  0.20232045752662E+01 -0.32499476491904E+00 -0.64951178149167E-05
O      3     8 -0.20298493556901E+01 -0.38880575512272E+00  0.77641164165460E-05
[GTO]
           1 0
 s           4   1.0000000000000000     
   63.594024466941008      -0.19234388414721629     
   10.951417231523665      -0.23478107924953728     
  0.87999310257376984       0.37593753901700888     
  0.33538715296521110       0.14982889271862770     
 p           4   1.0000000000000000     
   7.2965040481495080       0.97658666315667420     
   1.8918745450712575       0.90372226730345739     
  0.66694432110824120       0.47404958461536373     
  0.26552202674130870        7.1516067715011844E-002

           2 0
 s           4   1.0000000000000000     
   63.594024466941008      -0.19234388414721629     
   10.951417231523665      -0.23478107924953728     
  0.87999310257376984       0.37593753901700888     
  0.33538715296521110       0.14982889271862770     
 p           4   1.0000000000000000     
   7.2965040481495080       0.97658666315667420     
   1.8918745450712575       0.90372226730345739     
  0.66694432110824120       0.47404958461536373     
  0.26552202674130870        7.1516067715011844E-002

           3 0
 s           4   1.0000000000000000     
   69.137961906196551      -0.20478756370077797     
   11.906129132707308      -0.24997023136827334     
  0.95670827744340703       0.40025880240639616     
  0.36462520496073686       0.15952206667693555     
 p           4   1.0000000000000000     
   8.2124193257781641        1.1321556799186829     
   2.1293576997098116        1.0476840782254817     
  0.75066448202360914       0.54956508217158984     
  0.29885246543283073        8.2908486592766617E-002

[MO]
Sym=     1a
Ene=  -0.80408744015711331     
Spin= Alpha
Occup=     2.00000000
           1 -0.41961039844536374     
           2  0.18885841640132314     
           3  0.17371192129339763     
           4  -9.4874020221116960E-007
           5  -8.8676309368933712E-002
           6  0.11623253216827975     
           7  -2.9783530212871140E-003
           8  -3.9656598050794309E-007
           9 -0.53595685359500755     
          10 -0.24409233325325547     
          11 -0.11151925433667075     
          12   1.0835124803405611E-006
Sym=     2a
Ene=  -0.74181796566119829     
Spin= Alpha
Occup=     2.00000000
           1  0.31665163428821741     
           2  0.37621954102561089     
           3  -9.7791469301184708E-002
           4  -1.1458035649735203E-006
           5  0.42278244603187404     
           6 -0.21321355632992559     
           7  0.11513473322792371     
           8   5.3496224916359618E-007
           9 -0.40302303421792829     
          10  0.10916887892137077     
          11  -7.4523010634608394E-002
          12  -2.2635482110630611E-007
Sym=     3a
Ene=  -0.65823633541560611     
Spin= Alpha
Occup=     2.00000000
           1 -0.33804793426632312     
           2  0.23536720844446554     
           3 -0.28347935450282924     
           4  -5.8935649630988200E-007
           5  0.25960431698912367     
           6  -2.9763211420622507E-002
           7  -6.3537865466909857E-002
           8   1.0214258722332475E-007
           9  0.54825927242531025     
          10 -0.29975430035152473     
          11 -0.46301428850941384     
          12   1.5914040198661793E-006
Sym=     4a
Ene=  -0.64881373039922763     
Spin= Alpha
Occup=     2.00000000
           1  -1.5791317677207646E-007
           2   2.2855432271123074E-006
           3   9.1828148426721414E-007
           4  0.63721694515100202     
           5   9.6986793821043525E-008
           6   1.0047881096291177E-006
           7   4.3728335470409772E-007
           8  0.29775268490188900     
           9   2.0855295031997324E-007
          10   1.8253667789786292E-006
          11   7.1832888400461636E-007
          12  0.54172233136486792     
Sym=     5a
Ene=  -0.62134584097162948     
Spin= Alpha
Occup=     2.00000000
           1  0.23319152383034097     
           2  0.16348119455051496     
           3  0.48443942697021636     
           4  -1.3170321668515136E-006
           5  0.13720818041891705     
           6  0.10788401940931276     
           7  0.31648088992729556     
           8  -8.8756024383162327E-007
           9  0.34581145562616961     
          10 -0.50672083321919292     
          11  0.22992677142481432     
          12   1.4253163003431246E-006
Sym=     6a
Ene=  -0.54116216049229326     
Spin= Alpha
Occup=     2.00000000
           1  0.19052899743323606     
           2  0.17695186308287877     
           3   7.7969089591737636E-002
           4  -7.3810928382985171E-007
           5 -0.71632549383324728     
           6 -0.40421011576446086     
           7  0.31241203856328531     
           8   9.1597871042127232E-007
           9   6.1726066682965847E-002
          10   2.0620912731545132E-002
          11 -0.41363391958880935     
          12   6.0552323425278075E-007
Sym=     7a
Ene=  -0.49677224947135967     
Spin= Alpha
Occup=     1.99998687
           1   5.1593167974105418E-009
           2  -7.9097180569659029E-007
           3  -4.1839584185712189E-007
           4 -0.23109525312260915     
           5  -5.7524227088164201E-008
           6  -2.3675907951237309E-006
           7  -1.1509322373442418E-006
           8 -0.66437157358308296     
           9   4.3353053524550204E-008
          10   2.4736771788287863E-006
          11   1.2420726378913680E-006
          12  0.71963520803861702     
Sym=     8a
Ene=  -0.47541366560799653     
Spin= Alpha
Occup=     1.00001313
           1  -5.9669295098573674E-002
           2  0.10855262139088782     
           3 -0.20515382352292100     
           4  -2.3194910111593224E-008
           5 -0.16118745532044260     
           6 -0.58396304265065857     
           7 -0.40239082698445794     
           8   2.7758305709517617E-006
           9  -3.5688290964041559E-002
          10 -0.45242955171688304     
          11  0.51077011373456582     
          12   6.5058315034614439E-007
Sym=     9a
Ene=  -0.38243998715695771     
Spin= Alpha
Occup=     1.00000000
           1  0.39693980454332667     
           2  -5.9571051574932955E-002
           3  0.58524601368421181     
           4  -8.6314586060712035E-007
           5   8.1174798924338362E-002
           6  -8.9281583108869245E-002
           7 -0.73262169075763683     
           8   1.6190616695637710E-006
           9  -2.1983673310647558E-002
          10  -3.5248468546107942E-002
          11 -0.45159720994926783     
          12   9.3185119005751819E-007
Sym=    10a
Ene=  -0.31579915632485517     
Spin= Alpha
Occup=     0.00000000
           1  -1.7725726481264055E-008
           2  -2.7555139398445820E-006
           3  -1.4060227511662908E-006
           4 -0.78956403477986159     
           5   1.9149266479911227E-009
           6   2.5228059849077283E-006
           7   1.2991302752207732E-006
           8  0.71881524282666798     
           9   1.4177866424909621E-008
          10   1.6481588682032689E-006
          11   8.5009156257990736E-007
          12  0.47327515142855786     
Sym=    11a
Ene=   0.18101704484290898     
Spin= Alpha
Occup=     0.00000000
           1  0.90882317402220159     
           2 -0.35522014443913785     
           3 -0.67442585043595693     
           4   2.4157410926534292E-006
           5 -0.26944415557992080     
           6  0.49949459740627394     
           7  -1.3482427596290080E-002
           8  -1.7219980924850666E-006
           9 -0.54140886909658326     
          10 -0.75283016456610807     
          11 -0.29215820088233574     
          12   3.1292070812960793E-006
Sym=    12a
Ene=   0.44240703673285731     
Spin= Alpha
Occup=     0.00000000
           1 -0.35558742546870836     
           2  -1.1364001520854885     
           3  0.19695874785054696     
           4   3.6201070993102109E-006
           5  0.69773595736707605     
           6 -0.72734826570243705     
           7  0.47294822570515405     
           8   1.7096314060850153E-006
           9 -0.35969113197332742     
          10 -0.29803428328353215     
          11 -0.32687531627812288     
          12   1.6115249978571350E-006
