 Entering Gaussian System
 *********************************************
 Gaussian 98:
 frequency output generated by the xtb code
 *********************************************
                         Standard orientation:
 --------------------------------------------------------------------
  Center     Atomic     Atomic              Coordinates (Angstroms)
  Number     Number      Type              X           Y           Z
 --------------------------------------------------------------------
    1          7             0        0.003515    0.377727   -0.000001
    2          7             0        1.070634   -0.171980   -0.000003
    3          8             0       -1.074150   -0.205747    0.000004
 --------------------------------------------------------------------
     1 basis functions        1 primitive gaussians
     1 alpha electrons        1 beta electrons

 Harmonic frequencies (cm**-1), IR intensities (KM/Mole),
 Raman scattering activities (A**4/amu), Raman depolarization ratios,
 reduced masses (AMU), force constants (mDyne/A) and normal coordinates:
                      1                      2                      3
                        a                      a                      a 
 Frequencies --   616.1338              1389.9550              1692.9759
 Red. masses --    14.6022                15.0183                14.0092
 Frc consts  --     0.0000                 0.0000                 0.0000
 IR Inten    --     0.4105                 1.1394                 1.0170
 Raman Activ --     0.0000                 0.0000                 0.0000
 Depolar     --     0.0000                 0.0000                 0.0000
 Atom AN      X      Y      Z        X      Y      Z        X      Y      Z
   1   7    -0.01  -0.59   0.00    -0.46  -0.47   0.00    -0.64   0.34   0.00
   2   7     0.52   0.30  -0.00    -0.20   0.11   0.00     0.60  -0.33  -0.00
   3   8    -0.48   0.27   0.00     0.63   0.34  -0.00     0.04  -0.00  -0.00
