3
 energy: -9.677595357657 gnorm: 0.000279766843 xtb: 6.2.2 (9d81278992624c895f80dd42a50cac0aa55982e2)
N         0.00351526669802    0.37772700338751   -0.00000067152171
N         1.07063385355883   -0.17197983921420   -0.00000343706865
O        -1.07415012025685   -0.20574716416807    0.00000410859385
