$hessian                                                                        
        0.8442391031  -0.1021363255  -0.0000027687  -0.4903858941   0.2732683002
        0.0000012348  -0.3538532090  -0.1711319747   0.0000015339
       -0.1021363255   0.4700976521  -0.0000004639   0.3462829147  -0.2585383119
       -0.0000007575  -0.2441465893  -0.2115593402   0.0000012215
       -0.0000027687  -0.0000004639   0.0000000000   0.0000011074  -0.0000005027
       -0.0000000000   0.0000016613   0.0000009666  -0.0000000000
       -0.4903858941   0.3462829147   0.0000011074   0.6486869946  -0.2971861949
       -0.0000017457  -0.1583011005  -0.0490967198   0.0000006383
        0.2732683002  -0.2585383119  -0.0000005027  -0.2971861949   0.1995667658
        0.0000006891   0.0239178947   0.0589715460  -0.0000001864
        0.0000012348  -0.0000007575  -0.0000000000  -0.0000017457   0.0000006891
        0.0000000000   0.0000005108   0.0000000685  -0.0000000000
       -0.3538532090  -0.2441465893   0.0000016613  -0.1583011005   0.0239178947
        0.0000005108   0.5121543095   0.2202286945  -0.0000021721
       -0.1711319747  -0.2115593402   0.0000009666  -0.0490967198   0.0589715460
        0.0000000685   0.2202286945   0.1525877942  -0.0000010351
        0.0000015339   0.0000012215  -0.0000000000   0.0000006383  -0.0000001864
       -0.0000000000  -0.0000021721  -0.0000010351   0.0000000000
