      -----------------------------------------------------------      
     |                   =====================                   |     
     |                           x T B                           |     
     |                   =====================                   |     
     |                         S. Grimme                         |     
     |          Mulliken Center for Theoretical Chemistry        |     
     |                    University of Bonn                     |     
      -----------------------------------------------------------      

   * xtb version 6.2.2 (9d81278992624c895f80dd42a50cac0aa55982e2) compiled by '@Darwin' on 04/03/2020

   xtb is free software: you can redistribute it and/or modify it under
   the terms of the GNU Lesser General Public License as published by
   the Free Software Foundation, either version 3 of the License, or
   (at your option) any later version.
   
   xtb is distributed in the hope that it will be useful,
   but WITHOUT ANY WARRANTY; without even the implied warranty of
   MERCHANTABILITY or FITNESS FOR A PARTICULAR PURPOSE.  See the
   GNU Lesser General Public License for more details.
   
   Cite this work as:
   * S. Grimme, C. Bannwarth, P. Shushkov, J. Chem. Theory Comput., 2017,
     13, 1989-2009. DOI: 10.1021/acs.jctc.7b00118
   * C. Bannwarth, S. Ehlert and S. Grimme., J. Chem. Theory Comput., 2019,
     15, 1652-1671. DOI: 10.1021/acs.jctc.8b01176
   * P. Pracht, E. Caldeweyher, S. Ehlert, S. Grimme, ChemRxiv, 2019, preprint.
     DOI: 10.26434/chemrxiv.8326202.v1
   
   for DFT-D4:
   * E. Caldeweyher, C. Bannwarth and S. Grimme, J. Chem. Phys., 2017,
     147, 034112. DOI: 10.1063/1.4993215
   * E. Caldeweyher, S. Ehlert, A. Hansen, H. Neugebauer, S. Spicher,
     C. Bannwarth and S. Grimme, J. Chem. Phys., 2019, 150, 154122.
     DOI: 10.1063/1.5090222
   
   for sTDA-xTB:
   * S. Grimme and C. Bannwarth, J. Chem. Phys., 2016, 145, 054103.
     DOI: 10.1063/1.4959605
   
   in the mass-spec context:
   * V. Asgeirsson, C. Bauer and S. Grimme, Chem. Sci., 2017, 8, 4879.
     DOI: 10.1039/c7sc00601b
   
   for metadynamics refer to:
   * S. Grimme, J. Chem. Theory Comput., 2019, 155, 2847-2862
     DOI: 10.1021/acs.jctc.9b00143
   
   with help from (in alphabetical order)
   C. Bannwarth, F. Bohle, G. Brandenburg, E. Caldeweyher, M. Checinski,
   S. Dohm, S. Ehlert, S. Ehrlich, F. März, H. Neugebauer, J. Pisarek,
   P. Pracht, P. Shushkov, and S. Spicher.
   
 * started run on 2020/05/12 at 11:44:28.619     

           -------------------------------------------------
          |                Calculation Setup                |
           -------------------------------------------------

          program call               : xtb --input H3C1N1_3_S_0.input H3C1N1_3_S_0.xyz --ohess --molden --namespace H3C1N1_3_S_0 output.out
          calculation namespace      : H3C1N1_3_S_0
          coordinate file            : H3C1N1_3_S_0.xyz
          number of atoms            :                     5
          number of electrons        :                    12
          charge                     :                     0
          spin                       :                   0.0
          first test random number   :      0.16939080942294

   ID    Z sym.   atoms
    1    6 C      1
    2    7 N      2
    3    1 H      3-5

           -------------------------------------------------
          |                 G F N 2 - x T B                 |
           -------------------------------------------------

        Reference                      10.1021/acs.jctc.8b01176
      * Hamiltonian:
        H0-scaling (s, p, d)           1.850000    2.230000    2.230000
        zeta-weighting                 0.500000
      * Dispersion:
        s8                             2.700000
        a1                             0.520000
        a2                             5.000000
        s9                             5.000000
      * Repulsion:
        kExp                           1.500000    1.000000
        rExp                           1.000000
      * Coulomb:
        alpha                          2.000000
        third order                    shell-resolved
        anisotropic                    true
        a3                             3.000000
        a5                             4.000000
        cn-shift                       1.200000
        cn-exp                         4.000000
        max-rad                        5.000000


          ...................................................
          :                      SETUP                      :
          :.................................................:
          :  # basis functions                  11          :
          :  # atomic orbitals                  11          :
          :  # shells                            7          :
          :  # electrons                        12          :
          :  max. iterations                   250          :
          :  Hamiltonian                  GFN2-xTB          :
          :  restarted?                      false          :
          :  GBSA solvation                  false          :
          :  PC potential                    false          :
          :  electronic temp.          300.0000000     K    :
          :  accuracy                    1.0000000          :
          :  -> integral cutoff          0.2500000E+02      :
          :  -> integral neglect         0.1000000E-07      :
          :  -> SCF convergence          0.1000000E-05 Eh   :
          :  -> wf. convergence          0.1000000E-03 e    :
          :  Broyden damping             0.4000000          :
          ...................................................

 iter      E             dE          RMSdq      gap      omega  full diag
   1     -6.2106986 -0.621070E+01  0.633E+00    0.00       0.0  T
   2     -6.3457403 -0.135042E+00  0.346E+00    0.00       1.0  T
   3     -6.3466462 -0.905845E-03  0.233E+00    0.00       1.0  T
   4     -6.3473177 -0.671523E-03  0.326E-01    0.00       1.0  T
   5     -6.3473618 -0.440604E-04  0.166E-01    0.00       1.0  T
   6     -6.3473696 -0.785171E-05  0.317E-02    0.00       1.4  T
   7     -6.3473721 -0.249445E-05  0.999E-03    0.00       4.5  T
   8     -6.3473722 -0.116918E-06  0.351E-03    0.00      12.7  T
   9     -6.3473722 -0.529765E-08  0.235E-03    0.00      19.1  T
  10     -6.3473723 -0.764486E-08  0.719E-05    0.00     621.8  T
  11     -6.3473723 -0.279510E-11  0.290E-05    0.00    1544.6  T

   *** convergence criteria satisfied after 11 iterations ***

         #    Occupation            Energy/Eh            Energy/eV
      -------------------------------------------------------------
         1        2.0000           -0.6629803             -18.0406
         2        2.0000           -0.5754770             -15.6595
         3        2.0000           -0.5754770             -15.6595
         4        2.0000           -0.5735800             -15.6079
         5        2.0000           -0.3592525              -9.7758
         6        1.0000           -0.1926376              -5.2419 (HOMO)
         7        1.0000           -0.1926376              -5.2419 (LUMO)
         8                         -0.0484709              -1.3190
         9                          0.1177216               3.2034
        10                          0.1177223               3.2034
        11                          0.1702741               4.6334
      -------------------------------------------------------------
                  HL-Gap            0.0000000 Eh            0.0000 eV
             Fermi-level           -0.1926376 Eh           -5.2419 eV

 SCC (total)                   0 d,  0 h,  0 min,  0.002 sec
 SCC setup                      ...        0 min,  0.000 sec (  4.268%)
 Dispersion                     ...        0 min,  0.000 sec (  0.602%)
 integral evaluation            ...        0 min,  0.000 sec ( 23.566%)
 zeroth order Hamiltonian       ...        0 min,  0.000 sec (  0.707%)
 iterations                     ...        0 min,  0.001 sec ( 43.650%)
 molecular gradient             ...        0 min,  0.000 sec ( 24.156%)
 printout                       ...        0 min,  0.000 sec (  2.566%)

         :::::::::::::::::::::::::::::::::::::::::::::::::::::
         ::                     SUMMARY                     ::
         :::::::::::::::::::::::::::::::::::::::::::::::::::::
         :: total energy              -6.293482551051 Eh    ::
         :: gradient norm              0.058665431613 Eh/a0 ::
         :: HOMO-LUMO gap              0.000000060910 eV    ::
         ::.................................................::
         :: SCC energy                -6.347372251805 Eh    ::
         :: -> isotropic ES            0.021498707205 Eh    ::
         :: -> anisotropic ES          0.003038325007 Eh    ::
         :: -> anisotropic XC          0.002548948627 Eh    ::
         :: -> dispersion             -0.000994602218 Eh    ::
         :: repulsion energy           0.053889686563 Eh    ::
         :: add. restraining           0.000000000000 Eh    ::
         :::::::::::::::::::::::::::::::::::::::::::::::::::::

      ----------------------------------------------------------- 
     |                   =====================                   |
     |                        A N C O P T                        |
     |                   =====================                   |
     |               Approximate Normal Coordinate               |
     |                Rational Function Optimizer                |
      ----------------------------------------------------------- 

          ...................................................
          :                      SETUP                      :
          :.................................................:
          :   optimization level            normal          :
          :   max. optcycles                   200          :
          :   ANC micro-cycles                  20          :
          :   degrees of freedom                 9          :
          :.................................................:
          :   RF solver                   davidson          :
          :   write xtbopt.log                true          :
          :   linear?                        false          :
          :   energy convergence         0.5000000E-05 Eh   :
          :   grad. convergence          0.1000000E-02 Eh/α :
          :   maximium RF displ.         1.0000000          :
          :   Hlow (freq-cutoff)         0.1000000E-01      :
          :   Hmax (freq-cutoff)         5.0000000          :
          :   S6 in model hess.         20.0000000          :
          ...................................................

generating ANC from model Hessian ...
Using Lindh-Hessian (1995)
 Shifting diagonal of input Hessian by    0.0000000000000000     
 Lowest  eigenvalues of input Hessian
   -0.000000   -0.000000   -0.000000   -0.000000    0.000000    0.000000
    0.125621    0.125621    0.176096    0.176097    0.193386    0.507126
    1.297198    1.297199    1.314603
 Highest eigenvalues
    0.176097    0.193386    0.507126    1.297198    1.297199    1.314603


........................................................................
.............................. CYCLE    1 ..............................
........................................................................
   1     -6.3473723 -0.634737E+01  0.804E-06    0.00       0.0  T
   2     -6.3473723 -0.110134E-12  0.424E-06    0.00   10553.0  T
   3     -6.3473723  0.444089E-14  0.254E-06    0.00   17583.9  T
     SCC iter.                  ...        0 min,  0.000 sec
     gradient                   ...        0 min,  0.000 sec
 * total energy  :    -6.2934826 Eh     change        0.3022746E-09 Eh
   gradient norm :     0.0586649 Eh/α   predicted     0.0000000E+00 (-100.00%)
   displ. norm   :     0.1569311 α      lambda       -0.6695859E-02
   maximum displ.:     0.1496095 α      in ANC's #5, #9, #6, ...

........................................................................
.............................. CYCLE    2 ..............................
........................................................................
   1     -6.3505040 -0.635050E+01  0.739E-01    0.00       0.0  T
   2     -6.3510013 -0.497354E-03  0.323E-01    0.00       1.0  T
   3     -6.3510232 -0.219028E-04  0.138E-01    0.00       1.0  T
   4     -6.3510267 -0.345535E-05  0.313E-02    0.00       1.4  T
   5     -6.3510272 -0.462886E-06  0.707E-03    0.00       6.3  T
   6     -6.3510272 -0.119474E-07  0.798E-04    0.00      56.0  T
   7     -6.3510272 -0.529878E-10  0.415E-04    0.00     107.8  T
     SCC iter.                  ...        0 min,  0.000 sec
     gradient                   ...        0 min,  0.000 sec
 * total energy  :    -6.2982594 Eh     change       -0.4776805E-02 Eh
   gradient norm :     0.0375495 Eh/α   predicted    -0.3430380E-02 ( -28.19%)
   displ. norm   :     0.1159365 α      lambda       -0.3022608E-02
   maximum displ.:     0.0991744 α      in ANC's #5, #9, #6, ...

........................................................................
.............................. CYCLE    3 ..............................
........................................................................
   1     -6.3527322 -0.635273E+01  0.730E-01    0.00       0.0  T
   2     -6.3532634 -0.531226E-03  0.290E-01    0.00       1.0  T
   3     -6.3532778 -0.144398E-04  0.139E-01    0.00       1.0  T
   4     -6.3532813 -0.346085E-05  0.260E-02    0.00       1.7  T
   5     -6.3532816 -0.287506E-06  0.926E-03    0.00       4.8  T
   6     -6.3532816 -0.989997E-08  0.405E-03    0.00      11.0  T
   7     -6.3532816 -0.348144E-08  0.345E-04    0.00     129.4  T
   8     -6.3532816 -0.232578E-10  0.155E-04    0.00     287.6  T
     SCC iter.                  ...        0 min,  0.001 sec
     gradient                   ...        0 min,  0.000 sec
 * total energy  :    -6.3002707 Eh     change       -0.2011303E-02 Eh
   gradient norm :     0.0243047 Eh/α   predicted    -0.1531619E-02 ( -23.85%)
   displ. norm   :     0.0630960 α      lambda       -0.1200921E-02
   maximum displ.:     0.0499245 α      in ANC's #9, #5, #6, ...

........................................................................
.............................. CYCLE    4 ..............................
........................................................................
   1     -6.3548556 -0.635486E+01  0.546E-01    0.00       0.0  T
   2     -6.3551803 -0.324725E-03  0.204E-01    0.00       1.0  T
   3     -6.3551859 -0.561907E-05  0.107E-01    0.00       1.0  T
   4     -6.3551879 -0.202685E-05  0.172E-02    0.00       2.6  T
   5     -6.3551880 -0.743201E-07  0.400E-03    0.00      11.2  T
   6     -6.3551880 -0.335892E-08  0.121E-03    0.00      37.1  T
   7     -6.3551880 -0.250859E-09  0.196E-04    0.00     227.8  T
   8     -6.3551880 -0.114158E-10  0.583E-05    0.00     767.5  T
     SCC iter.                  ...        0 min,  0.000 sec
     gradient                   ...        0 min,  0.000 sec
 * total energy  :    -6.3011303 Eh     change       -0.8596677E-03 Eh
   gradient norm :     0.0144693 Eh/α   predicted    -0.6028497E-03 ( -29.87%)
   displ. norm   :     0.0542118 α      lambda       -0.7292761E-03
   maximum displ.:     0.0471244 α      in ANC's #9, #6, #5, ...

........................................................................
.............................. CYCLE    5 ..............................
........................................................................
   1     -6.3563148 -0.635631E+01  0.458E-01    0.00       0.0  T
   2     -6.3565448 -0.229972E-03  0.175E-01    0.00       1.0  T
   3     -6.3565480 -0.324885E-05  0.928E-02    0.00       1.0  T
   4     -6.3565494 -0.137689E-05  0.169E-02    0.00       2.7  T
   5     -6.3565494 -0.299379E-07  0.162E-03    0.00      27.6  T
   6     -6.3565495 -0.168341E-08  0.115E-03    0.00      39.0  T
   7     -6.3565495 -0.279122E-09  0.286E-04    0.00     156.1  T
   8     -6.3565495 -0.102620E-10  0.124E-04    0.00     359.7  T
     SCC iter.                  ...        0 min,  0.000 sec
     gradient                   ...        0 min,  0.000 sec
 * total energy  :    -6.3015821 Eh     change       -0.4517988E-03 Eh
   gradient norm :     0.0052825 Eh/α   predicted    -0.3657085E-03 ( -19.06%)
   displ. norm   :     0.0281260 α      lambda       -0.1447586E-03
   maximum displ.:     0.0249149 α      in ANC's #5, #9, #6, ...

........................................................................
.............................. CYCLE    6 ..............................
........................................................................
   1     -6.3566855 -0.635669E+01  0.122E-01    0.00       0.0  T
   2     -6.3566934 -0.789215E-05  0.593E-02    0.00       1.0  T
   3     -6.3566939 -0.468188E-06  0.209E-02    0.00       2.1  T
   4     -6.3566939 -0.426829E-07  0.598E-03    0.00       7.5  T
   5     -6.3566939 -0.744095E-08  0.164E-03    0.00      27.3  T
   6     -6.3566939 -0.405423E-09  0.117E-03    0.00      38.1  T
   7     -6.3566939 -0.258562E-09  0.119E-04    0.00     377.1  T
   8     -6.3566939 -0.114753E-11  0.187E-05    0.00    2391.3  T
     SCC iter.                  ...        0 min,  0.000 sec
     gradient                   ...        0 min,  0.000 sec
 * total energy  :    -6.3016760 Eh     change       -0.9383780E-04 Eh
   gradient norm :     0.0022600 Eh/α   predicted    -0.7243448E-04 ( -22.81%)
   displ. norm   :     0.0171485 α      lambda       -0.3549546E-04
   maximum displ.:     0.0167753 α      in ANC's #5, #6, #9, ...

........................................................................
.............................. CYCLE    7 ..............................
........................................................................
   1     -6.3569044 -0.635690E+01  0.600E-02    0.00       0.0  T
   2     -6.3569071 -0.264953E-05  0.288E-02    0.00       1.6  T
   3     -6.3569073 -0.220974E-06  0.104E-02    0.00       4.3  T
   4     -6.3569073 -0.559973E-08  0.267E-03    0.00      16.7  T
   5     -6.3569073 -0.183470E-08  0.519E-04    0.00      86.1  T
   6     -6.3569073 -0.193392E-10  0.362E-04    0.00     123.4  T
     SCC iter.                  ...        0 min,  0.000 sec
     gradient                   ...        0 min,  0.000 sec
 * total energy  :    -6.3016967 Eh     change       -0.2076401E-04 Eh
   gradient norm :     0.0007786 Eh/α   predicted    -0.1775307E-04 ( -14.50%)
   displ. norm   :     0.0061781 α      lambda       -0.2542528E-05
   maximum displ.:     0.0046645 α      in ANC's #5, #6, #9, ...

........................................................................
.............................. CYCLE    8 ..............................
........................................................................
   1     -6.3571652 -0.635717E+01  0.314E-02    0.00       0.0  T
   2     -6.3571665 -0.132393E-05  0.123E-02    0.00       3.6  T
   3     -6.3571665 -0.415709E-07  0.675E-03    0.00       6.6  T
   4     -6.3571665 -0.418181E-08  0.457E-03    0.00       9.8  T
   5     -6.3571665 -0.292784E-08  0.122E-03    0.00      36.5  T
   6     -6.3571665 -0.606557E-09  0.218E-04    0.00     205.1  T
   7     -6.3571665 -0.369482E-11  0.176E-05    0.00    2546.8  T
     SCC iter.                  ...        0 min,  0.000 sec
     gradient                   ...        0 min,  0.000 sec
 * total energy  :    -6.3016980 Eh     change       -0.1260692E-05 Eh
   gradient norm :     0.0002199 Eh/α   predicted    -0.1272353E-05 (   0.92%)
   displ. norm   :     0.0019547 α      lambda       -0.2569527E-06
   maximum displ.:     0.0018045 α      in ANC's #5, #6, #9, ...

   *** GEOMETRY OPTIMIZATION CONVERGED AFTER 8 ITERATIONS ***

------------------------------------------------------------------------
 total energy gain   :        -0.0082154 Eh       -5.1553 kcal/mol
 total RMSD          :         0.1404448 a0        0.0743 Å
 total power (kW/mol):        -2.6962035 (step)-1920.7570 (real)
------------------------------------------------------------------------

 ANCopt (total)                0 d,  0 h,  0 min,  0.011 sec
 optimizer setup                ...        0 min,  0.000 sec (  0.618%)
 model hessian                  ...        0 min,  0.000 sec (  0.798%)
 ANC generation                 ...        0 min,  0.000 sec (  0.494%)
 coordinate transformation      ...        0 min,  0.000 sec (  0.156%)
 single point calculation       ...        0 min,  0.010 sec ( 91.198%)
 optimization log               ...        0 min,  0.000 sec (  1.710%)
 hessian update                 ...        0 min,  0.000 sec (  0.262%)
 rational function              ...        0 min,  0.000 sec (  1.963%)

================
 final structure:
================
5
 xtb: 6.2.2 (9d81278992624c895f80dd42a50cac0aa55982e2)
C         1.50038310293480   -0.04868101580703   -0.14000398173103
N        -0.12960335251795    0.00420548583290    0.01209385891894
H        -0.37628673463087   -0.19736875559106    0.98063725447610
H        -0.45395543147432    0.93580431275688   -0.24574403811064
H        -0.54053858431166   -0.69396002719169   -0.60698409355337

 Bond Distances (Angstroems)
 ---------------------------
C1-N2=1.6379         N2-C1=1.6379         N2-H3=1.0196         N2-H4=1.0196         N2-H5=1.0196         H3-N2=1.0196         
H4-N2=1.0196         H5-N2=1.0196         
 N  H  Rav=1.0196 sigma=0.0000  Rmin=1.0196  Rmax=1.0196     3
 N  C  Rav=1.6379 sigma=0.0000  Rmin=1.6379  Rmax=1.6379     1

 selected bond angles (degree)
 --------------------
H3-N2-C1=108.82                H4-N2-C1=108.82                H4-N2-H3=110.11                H5-N2-C1=108.82                
H5-N2-H3=110.11                H5-N2-H4=110.11                

 selected dihedral angles (degree)
 ---------------------------------

           -------------------------------------------------
          |                Final Singlepoint                |
           -------------------------------------------------

          ...................................................
          :                      SETUP                      :
          :.................................................:
          :  # basis functions                  11          :
          :  # atomic orbitals                  11          :
          :  # shells                            7          :
          :  # electrons                        12          :
          :  max. iterations                   250          :
          :  Hamiltonian                  GFN2-xTB          :
          :  restarted?                      false          :
          :  GBSA solvation                  false          :
          :  PC potential                    false          :
          :  electronic temp.          300.0000000     K    :
          :  accuracy                    1.0000000          :
          :  -> integral cutoff          0.2500000E+02      :
          :  -> integral neglect         0.1000000E-07      :
          :  -> SCF convergence          0.1000000E-05 Eh   :
          :  -> wf. convergence          0.1000000E-03 e    :
          :  Broyden damping             0.4000000          :
          ...................................................

 iter      E             dE          RMSdq      gap      omega  full diag
   1     -6.3571665 -0.635717E+01  0.130E-06    0.00       0.0  T
   2     -6.3571665  0.710543E-14  0.767E-07    0.00   58330.9  T
   3     -6.3571665 -0.799361E-14  0.416E-07    0.00  100000.0  T

   *** convergence criteria satisfied after 3 iterations ***

         #    Occupation            Energy/Eh            Energy/eV
      -------------------------------------------------------------
         1        2.0000           -0.6605076             -17.9733
         2        2.0000           -0.5719235             -15.5628
         3        2.0000           -0.5719235             -15.5628
         4        2.0000           -0.5613402             -15.2748
         5        2.0000           -0.4063823             -11.0582
         6        1.0000           -0.2177740              -5.9259 (HOMO)
         7        1.0000           -0.2177740              -5.9259 (LUMO)
         8                         -0.0672736              -1.8306
         9                          0.0249140               0.6779
        10                          0.1542955               4.1986
        11                          0.1542958               4.1986
      -------------------------------------------------------------
                  HL-Gap            0.0000000 Eh            0.0000 eV
             Fermi-level           -0.2177740 Eh           -5.9259 eV

 SCC (total)                   0 d,  0 h,  0 min,  0.001 sec
 SCC setup                      ...        0 min,  0.000 sec (  4.374%)
 Dispersion                     ...        0 min,  0.000 sec (  0.726%)
 integral evaluation            ...        0 min,  0.000 sec ( 32.951%)
 zeroth order Hamiltonian       ...        0 min,  0.000 sec (  0.649%)
 iterations                     ...        0 min,  0.000 sec ( 20.917%)
 molecular gradient             ...        0 min,  0.000 sec ( 33.066%)
 printout                       ...        0 min,  0.000 sec (  6.418%)

         :::::::::::::::::::::::::::::::::::::::::::::::::::::
         ::                     SUMMARY                     ::
         :::::::::::::::::::::::::::::::::::::::::::::::::::::
         :: total energy              -6.301697988378 Eh    ::
         :: gradient norm              0.000219930955 Eh/a0 ::
         :: HOMO-LUMO gap              0.000000228969 eV    ::
         ::.................................................::
         :: SCC energy                -6.357166539849 Eh    ::
         :: -> isotropic ES            0.003957342751 Eh    ::
         :: -> anisotropic ES          0.003399890313 Eh    ::
         :: -> anisotropic XC          0.003273006138 Eh    ::
         :: -> dispersion             -0.000977785714 Eh    ::
         :: repulsion energy           0.055468533340 Eh    ::
         :: add. restraining           0.000000000000 Eh    ::
         :::::::::::::::::::::::::::::::::::::::::::::::::::::

           ------------------------------------------------- 
          |                Numerical Hessian                |
           ------------------------------------------------- 
step length          :   0.00500
SCC accuracy         :   0.30000
Hessian scale factor :   1.00000
frozen atoms in %    :   0.00000    0
RMS gradient         :   0.00022
estimated CPU  time      0.00 min
estimated wall time      0.00 min

writing file <hessian>.

 projected vibrational frequencies (cm-1)
eigval :       -0.00    -0.00    -0.00     0.00     0.00     0.00
eigval :      613.44   631.44   631.48  1150.59  1469.45  1469.58
eigval :     3297.31  3300.91  3301.07
           -------------------------------------------------
          |                Property Printout                |
           -------------------------------------------------

    * Orbital Energies and Occupations

         #    Occupation            Energy/Eh            Energy/eV
      -------------------------------------------------------------
         1        2.0000           -0.6605076             -17.9733
         2        2.0000           -0.5719235             -15.5628
         3        2.0000           -0.5719235             -15.5628
         4        2.0000           -0.5613402             -15.2748
         5        2.0000           -0.4063823             -11.0582
         6        1.0000           -0.2177740              -5.9259 (HOMO)
         7        1.0000           -0.2177740              -5.9259 (LUMO)
         8                         -0.0672736              -1.8306
         9                          0.0249140               0.6779
        10                          0.1542955               4.1986
        11                          0.1542958               4.1986
      -------------------------------------------------------------
                  HL-Gap            0.0000000 Eh            0.0000 eV
             Fermi-level           -0.2177740 Eh           -5.9259 eV

     #   Z        covCN         q      C6AA      α(0)
     1   6 C      0.868    -0.440    51.786    12.016
     2   7 N      3.447    -0.152    24.270     7.317
     3   1 H      0.860     0.197     1.120     1.658
     4   1 H      0.860     0.197     1.120     1.658
     5   1 H      0.860     0.197     1.120     1.658

 Mol. C6AA /au·bohr⁶  :        233.201135
 Mol. C8AA /au·bohr⁸  :       5293.026143
 Mol. α(0) /au        :         24.305229


Wiberg/Mayer (AO) data.
largest (>0.10) Wiberg bond orders for each atom
Molecule has the following symmetry elements: (C3) 3*(sigma) 
It seems to be the C3v point group
          total WBO             WBO to atom ...
     1  C   0.736        N    2 0.727
     2  N   3.568        H    5 0.947    H    4 0.947    H    3 0.947    C    1 0.727
     3  H   0.952        N    2 0.947
     4  H   0.952        N    2 0.947
     5  H   0.952        N    2 0.947

MOs/occ written to file <molden.input>


molecular dipole:
                 x           y           z       tot (Debye)
 q only:       -1.723       0.056       0.161
   full:       -2.307       0.075       0.215       5.891
molecular quadrupole (traceless):
                xx          xy          yy          xz          yz          zz
 q only:       -4.063       0.199       2.055       0.572      -0.019       2.008
  q+dip:       -6.390       0.313       3.232       0.899      -0.029       3.158
   full:       -6.214       0.304       3.143       0.874      -0.028       3.071

           -------------------------------------------------
          |                Geometry Summary                 |
           -------------------------------------------------

      molecular mass/u    :       29.0412614
   center of mass at/Å    :        0.5104364      -0.0165641      -0.0476316
  moments of inertia/u·Å² :        0.2816311E+01   0.2194463E+02   0.2194463E+02
rotational constants/cm⁻¹ :        0.5985714E+01   0.7681893E+00   0.7681893E+00

 * 3 selected distances

     #   Z        #   Z                                     value/Å
     2   7 N      3   1 H                                 1.0195887 (max)
     2   7 N      4   1 H                                 1.0195887
     2   7 N      5   1 H                                 1.0195883 (min)

 * 1 distinct bonds (by element types)

   Z      Z             #   av. dist./Å        max./Å        min./Å
   1 H    7 N           3     1.0195886     1.0195887     1.0195883

           -------------------------------------------------
          |               Frequency Printout                |
           -------------------------------------------------
 projected vibrational frequencies (cm-1)
eigval :       -0.00    -0.00    -0.00     0.00     0.00     0.00
eigval :      613.44   631.44   631.48  1150.59  1469.45  1469.58
eigval :     3297.31  3300.91  3301.07
 reduced masses (amu)
   1:  4.26   2:  8.96   3: 11.02   4: 11.49   5: 11.68   6:  9.88   7: 12.75   8:  2.86
   9:  2.86  10:  2.31  11:  1.86  12:  1.86  13:  1.14  14:  2.09  15:  2.09
 IR intensities (amu)
   1:  0.14   2:  0.09   3:  0.57   4:  0.52   5:  0.27   6:  0.21   7:  1.06   8:  0.13
   9:  0.13  10:  0.47  11:  0.23  12:  0.23  13:  0.07  14:  0.10  15:  0.10
 Raman intensities (amu)
   1:  0.00   2:  0.00   3:  0.00   4:  0.00   5:  0.00   6:  0.00   7:  0.00   8:  0.00
   9:  0.00  10:  0.00  11:  0.00  12:  0.00  13:  0.00  14:  0.00  15:  0.00
 output can be read by thermo (or use thermo option).
 writing <g98.out> molden fake output.
 recommended (thermochemical) frequency scaling factor: 1.0
           -------------------------------------------------
          |             Thermodynamic Functions             |
           -------------------------------------------------

c3v symmetry found (for desy threshold:  0.10E+00) used in thermo

          ...................................................
          :                      SETUP                      :
          :.................................................:
          :  # frequencies                           9      :
          :  # imaginary freq.                       0      :
          :  linear?                             false      :
          :  only rotor calc.                    false      :
          :  symmetry                              c3v      :
          :  rotational number                       3      :
          :  scaling factor                  1.0000000      :
          :  rotor cutoff                   50.0000000 cm⁻¹ :
          :  imag. cutoff                  -20.0000000 cm⁻¹ :
          :.................................................:

    mode    ω/cm⁻¹     T·S(HO)/kcal·mol⁻¹    T·S(FR)/kcal·mol⁻¹   T·S(vib)
   ------------------------------------------------------------------------
   ------------------------------------------------------------------------

   temp. (K)  partition function   enthalpy   heat capacity  entropy
                                   cal/mol     cal/K/mol   cal/K/mol   J/K/mol
 298.15  VIB   1.17                  295.676      3.341      1.302
         ROT   938.                  888.752      2.981     16.581
         INT  0.110E+04             1184.428      6.322     17.883
         TR   0.151E+27             1481.254      4.968     36.016
         TOT                        2665.6820    11.2905    53.8986   225.5119

   temp. (K)  partition function   enthalpy   heat capacity  entropy
                                   cal/mol     cal/K/mol   cal/K/mol   J/K/mol
 120.00  VIB   1.00                    2.987      0.187      0.028
         ROT   239.                  357.707      2.981     13.868
         INT   240.                  360.694      3.168     13.896
         TR   0.387E+26              596.178      4.968     31.497
         TOT                         956.8716     8.1358    45.3927   189.9231

   temp. (K)  partition function   enthalpy   heat capacity  entropy
                                   cal/mol     cal/K/mol   cal/K/mol   J/K/mol
 100.00  VIB   1.00                    0.667      0.060      0.007
         ROT   182.                  298.089      2.981     13.324
         INT   182.                  298.756      3.041     13.332
         TR   0.294E+26              496.815      4.968     30.591
         TOT                         795.5711     8.0090    43.9230   183.7740

   temp. (K)  partition function   enthalpy   heat capacity  entropy
                                   cal/mol     cal/K/mol   cal/K/mol   J/K/mol
  80.00  VIB   1.00                    0.071      0.010      0.001
         ROT   130.                  238.471      2.981     12.659
         INT   130.                  238.542      2.991     12.660
         TR   0.210E+26              397.452      4.968     29.483
         TOT                         635.9938     7.9589    42.1433   176.3277

   temp. (K)  partition function   enthalpy   heat capacity  entropy
                                   cal/mol     cal/K/mol   cal/K/mol   J/K/mol
  60.00  VIB   1.00                    0.002      0.000     -0.000
         ROT   84.7                  178.853      2.981     11.802
         INT   84.7                  178.855      2.981     11.802
         TR   0.137E+26              298.089      4.968     28.055
         TOT                         476.9441     7.9495    39.8563   166.7586

   temp. (K)  partition function   enthalpy   heat capacity  entropy
                                   cal/mol     cal/K/mol   cal/K/mol   J/K/mol
  40.00  VIB   1.00                    0.000      0.000     -0.000
         ROT   46.1                  119.236      2.981     10.593
         INT   46.1                  119.236      2.981     10.593
         TR   0.744E+25              198.726      4.968     26.041
         TOT                         317.9616     7.9490    36.6341   153.2771

   temp. (K)  partition function   enthalpy   heat capacity  entropy
                                   cal/mol     cal/K/mol   cal/K/mol   J/K/mol
  20.00  VIB   1.00                    0.000      0.000     -0.000
         ROT   16.3                   59.618      2.981      8.527
         INT   16.3                   59.618      2.981      8.526
         TR   0.263E+25               99.363      4.968     22.599
         TOT                         158.9808     7.9490    31.1258   130.2305

   temp. (K)  partition function   enthalpy   heat capacity  entropy
                                   cal/mol     cal/K/mol   cal/K/mol   J/K/mol
  10.00  VIB   1.00                    0.000      0.000     -0.000
         ROT   5.76                   29.809      2.981      6.461
         INT   5.76                   29.809      2.981      6.460
         TR   0.930E+24               49.681      4.968     19.157
         TOT                          79.4904     7.9490    25.6176   107.1840

       T/K    H(0)-H(T)+PV         H(T)/Eh          T*S/Eh         G(T)/Eh
   ------------------------------------------------------------------------
    298.15    0.424803E-02    0.403918E-01    0.256090E-01    0.147828E-01
    120.00    0.152487E-02    0.376686E-01    0.868055E-02    0.289881E-01
    100.00    0.126782E-02    0.374116E-01    0.699958E-02    0.304120E-01
     80.00    0.101352E-02    0.371573E-01    0.537277E-02    0.317845E-01
     60.00    0.760059E-03    0.369038E-01    0.381090E-02    0.330929E-01
     40.00    0.506704E-03    0.366505E-01    0.233521E-02    0.343153E-01
     20.00    0.253352E-03    0.363971E-01    0.992044E-03    0.354051E-01
     10.00    0.126676E-03    0.362704E-01    0.408242E-03    0.358622E-01 (used)
   ------------------------------------------------------------------------

         :::::::::::::::::::::::::::::::::::::::::::::::::::::
         ::                  THERMODYNAMIC                  ::
         :::::::::::::::::::::::::::::::::::::::::::::::::::::
         :: total free energy          -6.265835801308 Eh   ::
         ::.................................................::
         :: total energy               -6.301697988378 Eh   ::
         :: zero point energy           0.036143753237 Eh   ::
         :: G(RRHO) w/o ZPVE           -0.000281566166 Eh   ::
         :: G(RRHO) contrib.            0.035862187070 Eh   ::
         :::::::::::::::::::::::::::::::::::::::::::::::::::::

optimized geometry written to: xtbopt.xyz


           -------------------------------------------------
          | TOTAL ENERGY               -6.301697988378 Eh   |
          | TOTAL ENTHALPY             -6.265427559126 Eh   |
          | TOTAL FREE ENERGY          -6.265835801308 Eh   |
          | GRADIENT NORM               0.000219929698 Eh/α |
          | HOMO-LUMO GAP               0.000000281644 eV   |
           -------------------------------------------------

------------------------------------------------------------------------
 * finished run on 2020/05/12 at 11:44:28.687     
------------------------------------------------------------------------
 total:
 * wall-time:     0 d,  0 h,  0 min,  0.067 sec
 *  cpu-time:     0 d,  0 h,  0 min,  0.066 sec
 * ratio c/w:     0.991 speedup
 SCF:
 * wall-time:     0 d,  0 h,  0 min,  0.002 sec
 *  cpu-time:     0 d,  0 h,  0 min,  0.002 sec
 * ratio c/w:     1.000 speedup
 ANC optimizer:
 * wall-time:     0 d,  0 h,  0 min,  0.013 sec
 *  cpu-time:     0 d,  0 h,  0 min,  0.013 sec
 * ratio c/w:     0.996 speedup
 numerical hessian:
 * wall-time:     0 d,  0 h,  0 min,  0.034 sec
 *  cpu-time:     0 d,  0 h,  0 min,  0.034 sec
 * ratio c/w:     0.999 speedup

