5
 energy: -11.043327637316 gnorm: 0.000833594449 xtb: 6.2.2 (9d81278992624c895f80dd42a50cac0aa55982e2)
C        -1.66406446472810    0.01693165239706   -0.03126190566315
C        -0.49167625961949   -0.29670704351274   -0.72704731400367
N         0.73106378822493   -0.00426059524307    0.01277314458218
C        -0.51487224322432    0.15718158708281    0.75401838257448
C         1.93954817935047    0.12685439928292   -0.00848130748634
