$hessian                                                                        
        0.7389161682  -0.2270607387   0.0303138759  -0.0866692895   0.0304423033
       -0.0041237446  -0.6749272829   0.2042583373  -0.0272704316   0.0225780943
       -0.0078014268   0.0010717640
       -0.2270607387   0.0773521114  -0.0094030640   0.0303625100   0.0018440219
        0.0012783197   0.2044897628  -0.0790496063   0.0084589827  -0.0077602074
       -0.0000927582  -0.0003315913
        0.0303138759  -0.0094030640   0.0081807246  -0.0040605426   0.0012620352
        0.0111099585  -0.0272991855   0.0084583056  -0.0168270389   0.0010416640
       -0.0003239725  -0.0024621054
       -0.0866692895   0.0303625100  -0.0040605426   1.5299849501  -0.4507430025
        0.0598597179  -0.4684211123   0.1271300617  -0.0168697474  -0.9756580228
        0.2925763024  -0.0389460542
        0.0304423033   0.0018440219   0.0012620352  -0.4507430025   0.2229438882
       -0.0186415290   0.1280501440  -0.0953876998   0.0052368531   0.2924810009
       -0.1292025081   0.0121478173
       -0.0041237446   0.0012783197   0.0111099585   0.0598597179  -0.0186415290
        0.0851318933  -0.0168803226   0.0052021282  -0.0566378927  -0.0388863382
        0.0121331090  -0.0396146157
       -0.6749272829   0.2044897628  -0.0272991855  -0.4684211123   0.1280501440
       -0.0168803226   1.2179518301  -0.3619747355   0.0482152589  -0.0742842466
        0.0298107548  -0.0040206340
        0.2042583373  -0.0790496063   0.0084583056   0.1271300617  -0.0953876998
        0.0052021282  -0.3619747355   0.1621351916  -0.0149421863   0.0304858954
        0.0121784673   0.0012770640
       -0.0272704316   0.0084589827  -0.0168270389  -0.0168697474   0.0052368531
       -0.0566378927   0.0482152589  -0.0149421863   0.0519607176  -0.0040617104
        0.0012618958   0.0215037661
        0.0225780943  -0.0077602074   0.0010416640  -0.9756580228   0.2924810009
       -0.0388863382  -0.0742842466   0.0304858954  -0.0040617104   1.0279107713
       -0.3147469616   0.0419164304
       -0.0078014268  -0.0000927582  -0.0003239725   0.2925763024  -0.1292025081
        0.0121331090   0.0298107548   0.0121784673   0.0012618958  -0.3147469616
        0.1169889752  -0.0130741675
        0.0010717640  -0.0003315913  -0.0024621054  -0.0389460542   0.0121478173
       -0.0396146157  -0.0040206340   0.0012770640   0.0215037661   0.0419164304
       -0.0130741675   0.0205825207
