5
 energy: -10.913954041288 gnorm: 0.159237654210 xtb: 6.2.2 (9d81278992624c895f80dd42a50cac0aa55982e2)
C         1.25510100000000   -0.58463100000000   -0.20765400000000
C         0.01588100000000   -0.27605800000000    0.60140400000000
N        -0.79296200000000    0.73806000000000   -0.12112800000000
C        -1.15650600000000   -0.68710700000000   -0.15955500000000
C         0.67848600000000    0.80973600000000   -0.11306600000000
5
 energy: -10.948932139564 gnorm: 0.122681741797 xtb: 6.2.2 (9d81278992624c895f80dd42a50cac0aa55982e2)
C         1.32001018569208   -0.50595060847501   -0.17006428071345
C         0.00699699269576   -0.37821627743579    0.56504548245851
N        -0.75999321977606    0.71935415841055   -0.14352656552767
C        -1.24529076908446   -0.63756412054642   -0.11195276419644
C         0.67827681047268    0.80237684804667   -0.13950087202095
5
 energy: -10.981303797033 gnorm: 0.087987887859 xtb: 6.2.2 (9d81278992624c895f80dd42a50cac0aa55982e2)
C         1.32060341186887   -0.40457261257465   -0.11607479588387
C         0.00207085902414   -0.53047526482978    0.53955708516244
N        -0.70283355570202    0.69922129930392   -0.17269366464376
C        -1.28570922791609   -0.56778540094172   -0.06121943662517
C         0.66586851272510    0.80361197904222   -0.18956818800964
5
 energy: -10.998051895107 gnorm: 0.073781565224 xtb: 6.2.2 (9d81278992624c895f80dd42a50cac0aa55982e2)
C         1.29560427341055   -0.36298026929475   -0.05402757808589
C         0.01327585968824   -0.65132689909190    0.51863248856091
N        -0.68258339128457    0.69734187823882   -0.16956351188989
C        -1.27172327580841   -0.50973625925616   -0.04188450969772
C         0.64542653399419    0.82670154940399   -0.25315588888741
5
 energy: -11.008411531519 gnorm: 0.055279953533 xtb: 6.2.2 (9d81278992624c895f80dd42a50cac0aa55982e2)
C         1.23925351967889   -0.34477808027385    0.00465094007034
C         0.02998547145089   -0.76297871256654    0.50267570521283
N        -0.68179167191192    0.71086860132390   -0.16519714828414
C        -1.22568315971223   -0.46989195857217   -0.02942603490829
C         0.63823584049437    0.86678015008865   -0.31270246209074
5
 energy: -11.011253385633 gnorm: 0.034118182490 xtb: 6.2.2 (9d81278992624c895f80dd42a50cac0aa55982e2)
C         1.22014869944801   -0.33316298827830    0.02271753321714
C         0.03295675822625   -0.81438970322711    0.49326965975873
N        -0.68477012834882    0.73426010355415   -0.17604775074190
C        -1.21227676873795   -0.46837473686897   -0.01346666612818
C         0.64394143941252    0.88166732482023   -0.32647177610578
5
 energy: -11.012956789375 gnorm: 0.026113972226 xtb: 6.2.2 (9d81278992624c895f80dd42a50cac0aa55982e2)
C         1.21514046601095   -0.33284277050080    0.03161377366312
C         0.03463822776378   -0.83994014450287    0.49111707061720
N        -0.70217998898985    0.76518535097819   -0.17934270082512
C        -1.19123005925950   -0.47016887889774   -0.00770785433033
C         0.64363135447462    0.87776644292322   -0.33567928912487
5
 energy: -11.014257183697 gnorm: 0.030362572957 xtb: 6.2.2 (9d81278992624c895f80dd42a50cac0aa55982e2)
C         1.21130430022062   -0.33049064421283    0.02877919586555
C         0.04098808916008   -0.86058097869093    0.49534954507642
N        -0.71858050096945    0.79353457251750   -0.19849364814013
C        -1.17106573528238   -0.46805905584688    0.00299860211045
C         0.63735384687113    0.86559610623314   -0.32863269491228
5
 energy: -11.015949481064 gnorm: 0.040113759174 xtb: 6.2.2 (9d81278992624c895f80dd42a50cac0aa55982e2)
C         1.22109695076441   -0.33120411034957    0.02518728344772
C         0.05745347388781   -0.88439168242244    0.50146294429249
N        -0.74401987002845    0.82464481199189   -0.22467597195821
C        -1.15170931607509   -0.45265229140314    0.01513000144815
C         0.61717876145132    0.84360327218326   -0.31710325723015
5
 energy: -11.019923348888 gnorm: 0.054665715135 xtb: 6.2.2 (9d81278992624c895f80dd42a50cac0aa55982e2)
C         1.24379158326246   -0.33601746225328    0.00557062180074
C         0.09298408528718   -0.90932546429740    0.51578837382351
N        -0.78042113707008    0.86015108837493   -0.28346212937858
C        -1.12836667505388   -0.41774483613148    0.03869969775727
C         0.57201214357431    0.80293667430723   -0.27659556400295
5
 energy: -11.005992309408 gnorm: 0.153432433860 xtb: 6.2.2 (9d81278992624c895f80dd42a50cac0aa55982e2)
C         1.33936293236143   -0.35844844477601   -0.08170604552509
C         0.23555080229704   -0.98561342305388    0.58077505084351
N        -0.92085355466786    0.98648086770256   -0.51439755353942
C        -1.04272779181452   -0.27719436452647    0.12396072108189
C         0.38866761182390    0.63477536465381   -0.10863117286089
5
 energy: -11.013984772177 gnorm: 0.141709264965 xtb: 6.2.2 (9d81278992624c895f80dd42a50cac0aa55982e2)
C         1.29733003744568   -0.34740981414837   -0.09699100421385
C         0.17517924368468   -0.83669498435699    0.61880171502502
N        -0.82035344393877    0.83412386756176   -0.39829056960687
C        -1.09544342938775   -0.31206514531603    0.03276784997790
C         0.44328759219617    0.66204607625963   -0.15628699118220
5
 energy: -11.015795078760 gnorm: 0.116860636261 xtb: 6.2.2 (9d81278992624c895f80dd42a50cac0aa55982e2)
C         1.21491119214786   -0.30864050627553    0.03896929531791
C         0.10965173645522   -1.02819920624249    0.48464233503855
N        -0.79560849299069    0.92020596296979   -0.33159137718601
C        -1.08255222051154   -0.38967881616388    0.09215090361320
C         0.55359778489915    0.80631256571211   -0.28417015678365
5
 energy: -11.025549644231 gnorm: 0.097776737226 xtb: 6.2.2 (9d81278992624c895f80dd42a50cac0aa55982e2)
C         1.29628133366579   -0.35204904679699   -0.04714819554632
C         0.17352755213691   -0.93485120457480    0.53758423615505
N        -0.85345258092045    0.92869686041454   -0.41516546964642
C        -1.08676616066955   -0.34990458523823    0.09195241219395
C         0.47040985578730    0.70810797619547   -0.16722198315626
5
 energy: -11.026009070026 gnorm: 0.089235764311 xtb: 6.2.2 (9d81278992624c895f80dd42a50cac0aa55982e2)
C         1.27883967678021   -0.32522320884175   -0.02304810595135
C         0.17044751910858   -0.94657158412148    0.57710820955178
N        -0.84013060015056    0.89746071893032   -0.36617339493757
C        -1.05680478800255   -0.30231064170665    0.04708545704768
C         0.44764819226432    0.67664471573956   -0.23497116571053
5
 energy: -11.029875155910 gnorm: 0.073877045072 xtb: 6.2.2 (9d81278992624c895f80dd42a50cac0aa55982e2)
C         1.28214078634430   -0.33039809496272   -0.01498834812163
C         0.16929320972783   -0.96742906794924    0.54540701618918
N        -0.84969341088878    0.92430100384791   -0.37978568692360
C        -1.06295614131475   -0.32149391094104    0.07240242052091
C         0.46121555613140    0.69502007000509   -0.22303440166485
5
 energy: -11.030466812191 gnorm: 0.074341991162 xtb: 6.2.2 (9d81278992624c895f80dd42a50cac0aa55982e2)
C         1.28492819021150   -0.32761617165935   -0.01128399091732
C         0.17477821133226   -0.97703820164256    0.54174004858448
N        -0.85639182659229    0.92909168457737   -0.38469913248750
C        -1.05735629011822   -0.31132157810296    0.07695106888707
C         0.45404171516676    0.68688426682750   -0.22270699406673
5
 energy: -11.032724278773 gnorm: 0.072733338893 xtb: 6.2.2 (9d81278992624c895f80dd42a50cac0aa55982e2)
C         1.28485876431025   -0.31343333979503    0.02049264235029
C         0.18593119027340   -1.02153408450492    0.50566716062672
N        -0.87548299128981    0.94330185570571   -0.38557429028208
C        -1.03212278864911   -0.27580810211917    0.09687313942589
C         0.43681582535526    0.66747367071342   -0.23745765212082
5
 energy: -11.034514008154 gnorm: 0.063288544525 xtb: 6.2.2 (9d81278992624c895f80dd42a50cac0aa55982e2)
C         1.28385009354133   -0.31052413319981    0.04346052189593
C         0.18347342751539   -1.03309147240535    0.46980074478208
N        -0.87928984997069    0.94313005332227   -0.37145376234783
C        -1.02563225993339   -0.26765785719948    0.10677122325892
C         0.43759858884735    0.66814340948237   -0.24857772758910
5
 energy: -11.036652662738 gnorm: 0.047478826697 xtb: 6.2.2 (9d81278992624c895f80dd42a50cac0aa55982e2)
C         1.28296986897641   -0.31048733333617    0.07315999297385
C         0.17521868498454   -1.03595857389375    0.41231699942731
N        -0.87202946355484    0.93522186144018   -0.34776106773255
C        -1.03238923298472   -0.27105109820008    0.12089146194667
C         0.44623014257861    0.68227514398983   -0.25860638661527
5
 energy: -11.037634281353 gnorm: 0.035947136285 xtb: 6.2.2 (9d81278992624c895f80dd42a50cac0aa55982e2)
C         1.28780827643696   -0.31250369126074    0.08554442615717
C         0.17739647639095   -1.03343662884610    0.38340461058520
N        -0.86661804141745    0.93378967687980   -0.34045177799369
C        -1.04231144749476   -0.27436408823973    0.12853582513448
C         0.44372473608431    0.68651473146678   -0.25703208388316
5
 energy: -11.038360482982 gnorm: 0.023384204640 xtb: 6.2.2 (9d81278992624c895f80dd42a50cac0aa55982e2)
C         1.28839981341796   -0.31646035619973    0.08617234882541
C         0.18593124243284   -1.03336465503567    0.38813960320320
N        -0.86355183872890    0.93956933192537   -0.33685583975937
C        -1.04875549762460   -0.27612182554353    0.12290259874144
C         0.43797628050271    0.68637750485356   -0.26035771101068
5
 energy: -11.038873725779 gnorm: 0.006693368587 xtb: 6.2.2 (9d81278992624c895f80dd42a50cac0aa55982e2)
C         1.28813158462598   -0.31974164446255    0.09283289970947
C         0.19793812133429   -1.03560125919140    0.38397998640581
N        -0.85445353256818    0.94469598527980   -0.33791290407260
C        -1.05955598409546   -0.27688637178158    0.12656370973765
C         0.42793981070338    0.68753329015572   -0.26546269178033
5
 energy: -11.038906952428 gnorm: 0.004359882349 xtb: 6.2.2 (9d81278992624c895f80dd42a50cac0aa55982e2)
C         1.28833468831160   -0.31957958010793    0.09266496071933
C         0.19725368242781   -1.03420916066587    0.38454211455193
N        -0.85214667698181    0.94494219653434   -0.33667513875687
C        -1.06111622640448   -0.27930926644892    0.12605861826869
C         0.42767453264689    0.68815581068838   -0.26658955478308
5
 energy: -11.038932538370 gnorm: 0.001796339270 xtb: 6.2.2 (9d81278992624c895f80dd42a50cac0aa55982e2)
C         1.28907919161309   -0.31911046859492    0.09323450262220
C         0.19525656701155   -1.03167579488000    0.38303050239297
N        -0.84939873896527    0.94438339349293   -0.33628825164547
C        -1.06314379774024   -0.28258336539520    0.12768128837451
C         0.42820677808088    0.68898623537719   -0.26765704174422
5
 energy: -11.038937617150 gnorm: 0.001213411733 xtb: 6.2.2 (9d81278992624c895f80dd42a50cac0aa55982e2)
C         1.28989218306002   -0.31944279011516    0.09346026879722
C         0.19449307513138   -1.02952925355428    0.38201058308342
N        -0.84912973446043    0.94392931129188   -0.33628316225765
C        -1.06405191390073   -0.28372551223575    0.12838017254840
C         0.42879639016975    0.68876824461330   -0.26756686217139
5
 energy: -11.038941134685 gnorm: 0.000989009713 xtb: 6.2.2 (9d81278992624c895f80dd42a50cac0aa55982e2)
C         1.29103906452206   -0.31996427944069    0.09350550864845
C         0.19448611780022   -1.02764319572839    0.38125066149678
N        -0.84949793603423    0.94341933142578   -0.33633694546458
C        -1.06512539704021   -0.28377994790238    0.12858595200106
C         0.42909815075216    0.68796809164568   -0.26700417668171
