      -----------------------------------------------------------      
     |                   =====================                   |     
     |                           x T B                           |     
     |                   =====================                   |     
     |                         S. Grimme                         |     
     |          Mulliken Center for Theoretical Chemistry        |     
     |                    University of Bonn                     |     
      -----------------------------------------------------------      

   * xtb version 6.2.2 (9d81278992624c895f80dd42a50cac0aa55982e2) compiled by '@Darwin' on 04/03/2020

   xtb is free software: you can redistribute it and/or modify it under
   the terms of the GNU Lesser General Public License as published by
   the Free Software Foundation, either version 3 of the License, or
   (at your option) any later version.
   
   xtb is distributed in the hope that it will be useful,
   but WITHOUT ANY WARRANTY; without even the implied warranty of
   MERCHANTABILITY or FITNESS FOR A PARTICULAR PURPOSE.  See the
   GNU Lesser General Public License for more details.
   
   Cite this work as:
   * S. Grimme, C. Bannwarth, P. Shushkov, J. Chem. Theory Comput., 2017,
     13, 1989-2009. DOI: 10.1021/acs.jctc.7b00118
   * C. Bannwarth, S. Ehlert and S. Grimme., J. Chem. Theory Comput., 2019,
     15, 1652-1671. DOI: 10.1021/acs.jctc.8b01176
   * P. Pracht, E. Caldeweyher, S. Ehlert, S. Grimme, ChemRxiv, 2019, preprint.
     DOI: 10.26434/chemrxiv.8326202.v1
   
   for DFT-D4:
   * E. Caldeweyher, C. Bannwarth and S. Grimme, J. Chem. Phys., 2017,
     147, 034112. DOI: 10.1063/1.4993215
   * E. Caldeweyher, S. Ehlert, A. Hansen, H. Neugebauer, S. Spicher,
     C. Bannwarth and S. Grimme, J. Chem. Phys., 2019, 150, 154122.
     DOI: 10.1063/1.5090222
   
   for sTDA-xTB:
   * S. Grimme and C. Bannwarth, J. Chem. Phys., 2016, 145, 054103.
     DOI: 10.1063/1.4959605
   
   in the mass-spec context:
   * V. Asgeirsson, C. Bauer and S. Grimme, Chem. Sci., 2017, 8, 4879.
     DOI: 10.1039/c7sc00601b
   
   for metadynamics refer to:
   * S. Grimme, J. Chem. Theory Comput., 2019, 155, 2847-2862
     DOI: 10.1021/acs.jctc.9b00143
   
   with help from (in alphabetical order)
   C. Bannwarth, F. Bohle, G. Brandenburg, E. Caldeweyher, M. Checinski,
   S. Dohm, S. Ehlert, S. Ehrlich, F. März, H. Neugebauer, J. Pisarek,
   P. Pracht, P. Shushkov, and S. Spicher.
   
 * started run on 2020/05/12 at 11:44:16.745     

           -------------------------------------------------
          |                Calculation Setup                |
           -------------------------------------------------

          program call               : xtb --input C4N1_41_S_3.input C4N1_41_S_3.xyz --ohess --molden --namespace C4N1_41_S_3 output.out
          calculation namespace      : C4N1_41_S_3
          coordinate file            : C4N1_41_S_3.xyz
          number of atoms            :                     5
          number of electrons        :                    21
          charge                     :                     0
          spin                       :                   1.5
          first test random number   :      0.60993570147023

   ID    Z sym.   atoms
    1    6 C      1, 2, 4, 5
    2    7 N      3

           -------------------------------------------------
          |                 G F N 2 - x T B                 |
           -------------------------------------------------

        Reference                      10.1021/acs.jctc.8b01176
      * Hamiltonian:
        H0-scaling (s, p, d)           1.850000    2.230000    2.230000
        zeta-weighting                 0.500000
      * Dispersion:
        s8                             2.700000
        a1                             0.520000
        a2                             5.000000
        s9                             5.000000
      * Repulsion:
        kExp                           1.500000    1.000000
        rExp                           1.000000
      * Coulomb:
        alpha                          2.000000
        third order                    shell-resolved
        anisotropic                    true
        a3                             3.000000
        a5                             4.000000
        cn-shift                       1.200000
        cn-exp                         4.000000
        max-rad                        5.000000


          ...................................................
          :                      SETUP                      :
          :.................................................:
          :  # basis functions                  20          :
          :  # atomic orbitals                  20          :
          :  # shells                           10          :
          :  # electrons                        21          :
          :  max. iterations                   250          :
          :  Hamiltonian                  GFN2-xTB          :
          :  restarted?                      false          :
          :  GBSA solvation                  false          :
          :  PC potential                    false          :
          :  electronic temp.          300.0000000     K    :
          :  accuracy                    1.0000000          :
          :  -> integral cutoff          0.2500000E+02      :
          :  -> integral neglect         0.1000000E-07      :
          :  -> SCF convergence          0.1000000E-05 Eh   :
          :  -> wf. convergence          0.1000000E-03 e    :
          :  Broyden damping             0.4000000          :
          ...................................................

 iter      E             dE          RMSdq      gap      omega  full diag
   1    -10.9649383 -0.109649E+02  0.838E+00    0.58       0.0  T
   2    -10.9185659  0.463724E-01  0.616E+00    0.63       1.0  T
   3    -10.5447398  0.373826E+00  0.722E+00    0.99       1.0  T
   4    -10.7862742 -0.241534E+00  0.538E+00    0.79       1.0  T
   5    -11.0003896 -0.214115E+00  0.207E+00    0.61       1.0  T
   6    -11.0109543 -0.105647E-01  0.116E+00    0.54       1.0  T
   7    -11.0145627 -0.360837E-02  0.889E-01    0.55       1.0  T
   8    -11.0145872 -0.245118E-04  0.665E-01    0.56       1.0  T
   9    -11.0152964 -0.709197E-03  0.145E-01    0.55       1.0  T
  10    -11.0154251 -0.128730E-03  0.700E-02    0.55       1.0  T
  11    -11.0154396 -0.144949E-04  0.248E-02    0.54       1.8  T
  12    -11.0154405 -0.928461E-06  0.141E-02    0.55       3.2  T
  13    -11.0154414 -0.925998E-06  0.497E-03    0.54       9.0  T
  14    -11.0154415 -0.880107E-07  0.150E-03    0.55      29.9  T
  15    -11.0154415 -0.893612E-08  0.374E-04    0.55     119.4  T
  16    -11.0154415 -0.531546E-09  0.685E-05    0.55     652.4  T

   *** convergence criteria satisfied after 16 iterations ***

         #    Occupation            Energy/Eh            Energy/eV
      -------------------------------------------------------------
         1        2.0000           -0.7802857             -21.2327
       ...           ...                  ...                  ...
         6        2.0000           -0.5506254             -14.9833
         7        2.0000           -0.5186238             -14.1125
         8        2.0000           -0.5096885             -13.8693
         9        2.0000           -0.4751739             -12.9301
        10        1.0000           -0.4442900             -12.0897
        11        1.0000           -0.4165911             -11.3360
        12        1.0000           -0.3788168             -10.3081 (HOMO)
        13        0.0000           -0.3587875              -9.7631 (LUMO)
        14                         -0.3062859              -8.3345
        15                         -0.1300400              -3.5386
        16                         -0.0286321              -0.7791
        17                         -0.0006212              -0.0169
       ...                                ...                  ...
        20                          0.2162309               5.8839
      -------------------------------------------------------------
                  HL-Gap            0.0200293 Eh            0.5450 eV
             Fermi-level           -0.4142670 Eh          -11.2728 eV

 SCC (total)                   0 d,  0 h,  0 min,  0.004 sec
 SCC setup                      ...        0 min,  0.000 sec (  1.726%)
 Dispersion                     ...        0 min,  0.000 sec (  0.385%)
 integral evaluation            ...        0 min,  0.001 sec ( 27.311%)
 zeroth order Hamiltonian       ...        0 min,  0.000 sec (  0.401%)
 iterations                     ...        0 min,  0.002 sec ( 39.662%)
 molecular gradient             ...        0 min,  0.001 sec ( 28.817%)
 printout                       ...        0 min,  0.000 sec (  1.565%)

         :::::::::::::::::::::::::::::::::::::::::::::::::::::
         ::                     SUMMARY                     ::
         :::::::::::::::::::::::::::::::::::::::::::::::::::::
         :: total energy             -10.913954041106 Eh    ::
         :: gradient norm              0.159237784443 Eh/a0 ::
         :: HOMO-LUMO gap              0.545023954223 eV    ::
         ::.................................................::
         :: SCC energy               -11.015441546346 Eh    ::
         :: -> isotropic ES           -0.011635112557 Eh    ::
         :: -> anisotropic ES          0.004963525263 Eh    ::
         :: -> anisotropic XC          0.005973072721 Eh    ::
         :: -> dispersion             -0.002737010111 Eh    ::
         :: repulsion energy           0.101487470862 Eh    ::
         :: add. restraining           0.000000000000 Eh    ::
         :::::::::::::::::::::::::::::::::::::::::::::::::::::

      ----------------------------------------------------------- 
     |                   =====================                   |
     |                        A N C O P T                        |
     |                   =====================                   |
     |               Approximate Normal Coordinate               |
     |                Rational Function Optimizer                |
      ----------------------------------------------------------- 

          ...................................................
          :                      SETUP                      :
          :.................................................:
          :   optimization level            normal          :
          :   max. optcycles                   200          :
          :   ANC micro-cycles                  20          :
          :   degrees of freedom                 9          :
          :.................................................:
          :   RF solver                   davidson          :
          :   write xtbopt.log                true          :
          :   linear?                        false          :
          :   energy convergence         0.5000000E-05 Eh   :
          :   grad. convergence          0.1000000E-02 Eh/α :
          :   maximium RF displ.         1.0000000          :
          :   Hlow (freq-cutoff)         0.1000000E-01      :
          :   Hmax (freq-cutoff)         5.0000000          :
          :   S6 in model hess.         20.0000000          :
          ...................................................

generating ANC from model Hessian ...
Using Lindh-Hessian (1995)
 Shifting diagonal of input Hessian by    0.0000000000000000     
 Lowest  eigenvalues of input Hessian
   -0.000000   -0.000000   -0.000000   -0.000000   -0.000000    0.000000
    0.108398    0.140090    0.631204    0.645302    0.812473    0.914938
    1.253289    1.511510    1.532214
 Highest eigenvalues
    0.645302    0.812473    0.914938    1.253289    1.511510    1.532214


........................................................................
.............................. CYCLE    1 ..............................
........................................................................
   1    -11.0154415 -0.110154E+02  0.214E-05    0.55       0.0  T
   2    -11.0154415  0.384439E-10  0.655E-05    0.55     683.2  T
   3    -11.0154415 -0.392486E-10  0.191E-05    0.55    2340.9  T
     SCC iter.                  ...        0 min,  0.001 sec
     gradient                   ...        0 min,  0.002 sec
 * total energy  :   -10.9139540 Eh     change       -0.1824585E-09 Eh
   gradient norm :     0.1592377 Eh/α   predicted     0.0000000E+00 (-100.00%)
   displ. norm   :     0.3729456 α      lambda       -0.4451540E-01
   maximum displ.:     0.3293648 α      in ANC's #2, #4, #5, ...

........................................................................
.............................. CYCLE    2 ..............................
........................................................................
   1    -11.0527265 -0.110527E+02  0.153E+00    1.22       0.0  T
   2    -11.0523898  0.336687E-03  0.920E-01    1.31       1.0  T
   3    -11.0495410  0.284880E-02  0.860E-01    1.17       1.0  T
   4    -11.0517600 -0.221896E-02  0.439E-01    1.28       1.0  T
   5    -11.0536498 -0.188981E-02  0.112E-01    1.26       1.0  T
   6    -11.0537453 -0.954638E-04  0.609E-02    1.26       1.0  T
   7    -11.0537612 -0.159754E-04  0.111E-02    1.26       4.0  T
   8    -11.0537613 -0.807521E-07  0.647E-03    1.26       6.9  T
   9    -11.0537614 -0.589755E-07  0.333E-03    1.26      13.4  T
  10    -11.0537614 -0.218715E-07  0.339E-04    1.26     132.0  T
  11    -11.0537614 -0.156870E-10  0.126E-04    1.26     353.6  T
     SCC iter.                  ...        0 min,  0.001 sec
     gradient                   ...        0 min,  0.001 sec
 * total energy  :   -10.9489321 Eh     change       -0.3497810E-01 Eh
   gradient norm :     0.1226680 Eh/α   predicted    -0.2535348E-01 ( -27.52%)
   displ. norm   :     0.4363243 α      lambda       -0.4636686E-01
   maximum displ.:     0.2559853 α      in ANC's #5, #2, #4, ...

........................................................................
.............................. CYCLE    3 ..............................
........................................................................
   1    -11.1095325 -0.111095E+02  0.232E+00    1.81       0.0  T
   2    -11.1086637  0.868841E-03  0.142E+00    1.89       1.0  T
   3    -11.0912481  0.174156E-01  0.157E+00    1.80       1.0  T
   4    -11.1067893 -0.155412E-01  0.623E-01    1.77       1.0  T
   5    -11.1107059 -0.391663E-02  0.108E-01    1.87       1.0  T
   6    -11.1107207 -0.147864E-04  0.704E-02    1.85       1.0  T
   7    -11.1107293 -0.857404E-05  0.344E-02    1.86       1.3  T
   8    -11.1107348 -0.557091E-05  0.191E-02    1.86       2.3  T
   9    -11.1107362 -0.139414E-05  0.499E-03    1.86       9.0  T
  10    -11.1107362 -0.131174E-07  0.505E-04    1.86      88.6  T
  11    -11.1107362 -0.352131E-09  0.173E-04    1.86     259.2  T
     SCC iter.                  ...        0 min,  0.001 sec
     gradient                   ...        0 min,  0.001 sec
 * total energy  :   -10.9813038 Eh     change       -0.3237166E-01 Eh
   gradient norm :     0.0878920 Eh/α   predicted    -0.2759706E-01 ( -14.75%)
   displ. norm   :     0.3312695 α      lambda       -0.2242110E-01
   maximum displ.:     0.2598711 α      in ANC's #5, #1, #2, ...

........................................................................
.............................. CYCLE    4 ..............................
........................................................................
   1    -11.1451502 -0.111452E+02  0.219E+00    2.52       0.0  T
   2    -11.1439981  0.115209E-02  0.133E+00    2.46       1.0  T
   3    -11.1149527  0.290454E-01  0.182E+00    2.72       1.0  T
   4    -11.1446936 -0.297409E-01  0.343E-01    2.49       1.0  T
   5    -11.1457663 -0.107268E-02  0.127E-01    2.53       1.0  T
   6    -11.1458121 -0.458413E-04  0.593E-02    2.53       1.0  T
   7    -11.1458118  0.312775E-06  0.332E-02    2.53       1.3  T
   8    -11.1458152 -0.340096E-05  0.161E-02    2.53       2.8  T
   9    -11.1458168 -0.157824E-05  0.378E-03    2.53      11.8  T
  10    -11.1458168 -0.984719E-08  0.495E-04    2.53      90.4  T
  11    -11.1458168 -0.656255E-09  0.187E-04    2.53     239.2  T
     SCC iter.                  ...        0 min,  0.001 sec
     gradient                   ...        0 min,  0.001 sec
 * total energy  :   -10.9980519 Eh     change       -0.1674810E-01 Eh
   gradient norm :     0.0733816 Eh/α   predicted    -0.1244078E-01 ( -25.72%)
   displ. norm   :     0.3230204 α      lambda       -0.1671488E-01
   maximum displ.:     0.2677407 α      in ANC's #5, #8, #1, ...

........................................................................
.............................. CYCLE    5 ..............................
........................................................................
   1    -11.1718367 -0.111718E+02  0.229E+00    2.26       0.0  T
   2    -11.1703514  0.148524E-02  0.138E+00    2.16       1.0  T
   3    -11.1421813  0.281702E-01  0.190E+00    2.48       1.0  T
   4    -11.1719334 -0.297521E-01  0.280E-01    2.26       1.0  T
   5    -11.1726180 -0.684641E-03  0.948E-02    2.25       1.0  T
   6    -11.1726443 -0.262629E-04  0.602E-02    2.27       1.0  T
   7    -11.1726468 -0.251712E-05  0.243E-02    2.26       1.8  T
   8    -11.1726492 -0.242203E-05  0.129E-02    2.26       3.5  T
   9    -11.1726498 -0.626559E-06  0.303E-03    2.26      14.8  T
  10    -11.1726498 -0.435231E-08  0.306E-04    2.26     146.4  T
  11    -11.1726498 -0.919247E-10  0.991E-05    2.26     451.5  T
     SCC iter.                  ...        0 min,  0.001 sec
     gradient                   ...        0 min,  0.001 sec
 * total energy  :   -11.0084115 Eh     change       -0.1035964E-01 Eh
   gradient norm :     0.0552079 Eh/α   predicted    -0.9229471E-02 ( -10.91%)
   displ. norm   :     0.1352307 α      lambda       -0.4186639E-02
   maximum displ.:     0.0992682 α      in ANC's #5, #8, #6, ...

........................................................................
.............................. CYCLE    6 ..............................
........................................................................
   1    -11.1727657 -0.111728E+02  0.997E-01    1.80       0.0  T
   2    -11.1725146  0.251146E-03  0.616E-01    1.72       1.0  T
   3    -11.1712115  0.130306E-02  0.595E-01    1.85       1.0  T
   4    -11.1729231 -0.171157E-02  0.201E-01    1.79       1.0  T
   5    -11.1731649 -0.241827E-03  0.992E-02    1.77       1.0  T
   6    -11.1732514 -0.864479E-04  0.232E-02    1.79       1.9  T
   7    -11.1732521 -0.739682E-06  0.640E-03    1.78       7.0  T
   8    -11.1732523 -0.209825E-06  0.272E-03    1.78      16.5  T
   9    -11.1732524 -0.324387E-07  0.155E-03    1.78      28.9  T
  10    -11.1732524 -0.385355E-08  0.111E-04    1.78     401.9  T
  11    -11.1732524 -0.104983E-10  0.137E-05    1.78    3260.4  T
     SCC iter.                  ...        0 min,  0.001 sec
     gradient                   ...        0 min,  0.001 sec
 * total energy  :   -11.0112534 Eh     change       -0.2841854E-02 Eh
   gradient norm :     0.0340482 Eh/α   predicted    -0.2131599E-02 ( -24.99%)
   displ. norm   :     0.0966237 α      lambda       -0.2457917E-02
   maximum displ.:     0.0515099 α      in ANC's #6, #8, #5, ...

........................................................................
.............................. CYCLE    7 ..............................
........................................................................
   1    -11.1718633 -0.111719E+02  0.759E-01    1.59       0.0  T
   2    -11.1711010  0.762277E-03  0.575E-01    1.52       1.0  T
   3    -11.1711578 -0.567938E-04  0.462E-01    1.58       1.0  T
   4    -11.1716167 -0.458934E-03  0.317E-01    1.61       1.0  T
   5    -11.1724306 -0.813942E-03  0.878E-02    1.55       1.0  T
   6    -11.1724887 -0.580079E-04  0.228E-02    1.57       2.0  T
   7    -11.1724893 -0.652825E-06  0.628E-03    1.57       7.1  T
   8    -11.1724895 -0.160259E-06  0.338E-03    1.57      13.2  T
   9    -11.1724895 -0.562893E-07  0.999E-04    1.57      44.7  T
  10    -11.1724895 -0.576993E-09  0.105E-04    1.57     427.0  T
     SCC iter.                  ...        0 min,  0.001 sec
     gradient                   ...        0 min,  0.002 sec
 * total energy  :   -11.0129568 Eh     change       -0.1703404E-02 Eh
   gradient norm :     0.0255870 Eh/α   predicted    -0.1240432E-02 ( -27.18%)
   displ. norm   :     0.0984624 α      lambda       -0.1825303E-02
   maximum displ.:     0.0564468 α      in ANC's #3, #6, #5, ...

........................................................................
.............................. CYCLE    8 ..............................
........................................................................
   1    -11.1741647 -0.111742E+02  0.689E-01    1.36       0.0  T
   2    -11.1719704  0.219432E-02  0.709E-01    1.40       1.0  T
   3    -11.1738092 -0.183885E-02  0.414E-01    1.34       1.0  T
   4    -11.1743018 -0.492565E-03  0.280E-01    1.42       1.0  T
   5    -11.1748287 -0.526860E-03  0.800E-02    1.36       1.0  T
   6    -11.1748774 -0.487342E-04  0.270E-02    1.38       1.7  T
   7    -11.1748795 -0.210249E-05  0.336E-03    1.37      13.3  T
   8    -11.1748795 -0.183987E-07  0.280E-03    1.37      16.0  T
   9    -11.1748796 -0.334659E-07  0.888E-04    1.37      50.4  T
  10    -11.1748796 -0.528013E-09  0.109E-04    1.37     412.1  T
     SCC iter.                  ...        0 min,  0.001 sec
     gradient                   ...        0 min,  0.001 sec
 * total energy  :   -11.0142572 Eh     change       -0.1300394E-02 Eh
   gradient norm :     0.0298477 Eh/α   predicted    -0.9214997E-03 ( -29.14%)
   displ. norm   :     0.1345310 α      lambda       -0.2208748E-02
   maximum displ.:     0.1038582 α      in ANC's #3, #5, #9, ...

........................................................................
.............................. CYCLE    9 ..............................
........................................................................
   1    -11.1717848 -0.111718E+02  0.895E-01    1.14       0.0  T
   2    -11.1592392  0.125456E-01  0.137E+00    1.23       1.0  T
   3    -11.1735014 -0.142622E-01  0.440E-01    1.16       1.0  T
   4    -11.1740347 -0.533321E-03  0.198E-01    1.15       1.0  T
   5    -11.1742770 -0.242276E-03  0.491E-02    1.18       1.0  T
   6    -11.1742835 -0.647581E-05  0.354E-02    1.17       1.3  T
   7    -11.1742903 -0.681900E-05  0.516E-03    1.17       8.7  T
   8    -11.1742903 -0.291590E-07  0.414E-03    1.17      10.8  T
   9    -11.1742904 -0.807130E-07  0.123E-03    1.17      36.4  T
  10    -11.1742904 -0.348435E-08  0.706E-05    1.17     633.5  T
  11    -11.1742904 -0.148681E-11  0.112E-05    1.17    3992.0  T
     SCC iter.                  ...        0 min,  0.001 sec
     gradient                   ...        0 min,  0.001 sec
 * total energy  :   -11.0159495 Eh     change       -0.1692297E-02 Eh
   gradient norm :     0.0397688 Eh/α   predicted    -0.1124362E-02 ( -33.56%)
   displ. norm   :     0.2442615 α      lambda       -0.4202669E-02
   maximum displ.:     0.2036609 α      in ANC's #3, #4, #9, ...

........................................................................
.............................. CYCLE   10 ..............................
........................................................................
   1    -11.1634271 -0.111634E+02  0.220E+00    1.21       0.0  T
   2    -11.1240403  0.393867E-01  0.274E+00    1.33       1.0  T
   3    -11.1616888 -0.376485E-01  0.143E+00    1.24       1.0  T
   4    -11.1585104  0.317847E-02  0.182E+00    1.16       1.0  T
   5    -11.1732526 -0.147423E-01  0.488E-01    1.23       1.0  T
   6    -11.1749780 -0.172542E-02  0.205E-01    1.20       1.0  T
   7    -11.1749916 -0.135332E-04  0.168E-01    1.21       1.0  T
   8    -11.1750475 -0.559444E-04  0.126E-01    1.20       1.0  T
   9    -11.1750955 -0.479864E-04  0.171E-02    1.21       2.6  T
  10    -11.1750966 -0.108943E-05  0.394E-03    1.21      11.4  T
  11    -11.1750966 -0.394127E-07  0.675E-04    1.21      66.3  T
  12    -11.1750966 -0.767244E-09  0.956E-05    1.21     467.7  T
     SCC iter.                  ...        0 min,  0.001 sec
     gradient                   ...        0 min,  0.001 sec
 * total energy  :   -11.0199233 Eh     change       -0.3973868E-02 Eh
   gradient norm :     0.0543511 Eh/α   predicted    -0.2226704E-02 ( -43.97%)
   displ. norm   :     0.9656068 α      lambda       -0.1792286E-01
   maximum displ.:     0.8142854 α      in ANC's #3, #4, #9, ...

........................................................................
.............................. CYCLE   11 ..............................
........................................................................
   1    -11.0975922 -0.110976E+02  0.524E+00    2.33       0.0  T
   2    -11.0562653  0.413269E-01  0.407E+00    2.16       1.0  T
   3    -11.0436871  0.125782E-01  0.365E+00    2.44       1.0  T
   4    -11.1133264 -0.696393E-01  0.775E-01    2.24       1.0  T
   5    -11.1168361 -0.350966E-02  0.274E-01    2.28       1.0  T
   6    -11.1168811 -0.450297E-04  0.225E-01    2.30       1.0  T
   7    -11.1171715 -0.290359E-03  0.589E-02    2.29       1.0  T
   8    -11.1171742 -0.272110E-05  0.366E-02    2.29       1.2  T
   9    -11.1171825 -0.835130E-05  0.747E-03    2.29       6.0  T
  10    -11.1171826 -0.476191E-07  0.104E-03    2.29      43.1  T
  11    -11.1171826 -0.175250E-08  0.399E-04    2.29     112.0  T
  12    -11.1171826 -0.405720E-11  0.869E-05    2.29     514.6  T
     SCC iter.                  ...        0 min,  0.001 sec
     gradient                   ...        0 min,  0.001 sec
 * total energy  :   -11.0059923 Eh     change        0.1393104E-01 Eh
   gradient norm :     0.1527679 Eh/α   predicted    -0.1731717E-01 (-224.31%)
   displ. norm   :     0.5808952 α      lambda       -0.5452784E-01
   maximum displ.:     0.3645450 α      in ANC's #3, #5, #8, ...

........................................................................
.............................. CYCLE   12 ..............................
........................................................................
   1    -11.1837594 -0.111838E+02  0.329E+00    2.81       0.0  T
   2    -11.1249564  0.588030E-01  0.335E+00    2.92       1.0  T
   3    -11.1637167 -0.387603E-01  0.242E+00    2.74       1.0  T
   4    -11.1962834 -0.325668E-01  0.586E-01    2.85       1.0  T
   5    -11.1975832 -0.129972E-02  0.278E-01    2.82       1.0  T
   6    -11.1977332 -0.150031E-03  0.199E-01    2.83       1.0  T
   7    -11.1977213  0.118639E-04  0.104E-01    2.82       1.0  T
   8    -11.1977986 -0.772697E-04  0.424E-02    2.82       1.1  T
   9    -11.1978103 -0.116568E-04  0.860E-03    2.82       5.2  T
  10    -11.1978103 -0.576953E-07  0.535E-03    2.82       8.4  T
  11    -11.1978104 -0.578578E-07  0.649E-04    2.82      68.9  T
  12    -11.1978104 -0.466507E-09  0.899E-05    2.82     497.6  T
     SCC iter.                  ...        0 min,  0.001 sec
     gradient                   ...        0 min,  0.001 sec
 * total energy  :   -11.0139848 Eh     change       -0.7992463E-02 Eh
   gradient norm :     0.1329307 Eh/α   predicted    -0.3646377E-01 ( 356.23%)
   displ. norm   :     0.7494151 α      lambda       -0.5208495E-01
   maximum displ.:     0.3916864 α      in ANC's #3, #5, #4, ...

........................................................................
.............................. CYCLE   13 ..............................
........................................................................
   1    -11.1573507 -0.111574E+02  0.446E+00    0.90       0.0  T
   2    -11.1228810  0.344697E-01  0.352E+00    0.77       1.0  T
   3    -11.0533666  0.695144E-01  0.395E+00    1.03       1.0  T
   4    -11.1260911 -0.727246E-01  0.252E+00    0.96       1.0  T
   5    -11.1624097 -0.363186E-01  0.106E+00    0.90       1.0  T
   6    -11.1623100  0.997059E-04  0.867E-01    0.91       1.0  T
   7    -11.1645839 -0.227390E-02  0.693E-01    0.87       1.0  T
   8    -11.1656029 -0.101895E-02  0.204E-01    0.85       1.0  T
   9    -11.1657197 -0.116862E-03  0.745E-02    0.86       1.0  T
  10    -11.1657353 -0.156168E-04  0.298E-02    0.86       1.5  T
  11    -11.1657390 -0.363750E-05  0.654E-03    0.86       6.8  T
  12    -11.1657391 -0.927068E-07  0.128E-03    0.86      35.1  T
  13    -11.1657391 -0.605860E-09  0.472E-04    0.86      94.8  T
  14    -11.1657391 -0.154508E-09  0.442E-04    0.86     101.2  T
     SCC iter.                  ...        0 min,  0.001 sec
     gradient                   ...        0 min,  0.001 sec
 * total energy  :   -11.0157951 Eh     change       -0.1810307E-02 Eh
   gradient norm :     0.1161747 Eh/α   predicted    -0.4066854E-01 (2146.50%)
   displ. norm   :     0.5132342 α      lambda       -0.2041262E-01
   maximum displ.:     0.3984394 α      in ANC's #3, #5, #1, ...

........................................................................
.............................. CYCLE   14 ..............................
........................................................................
   1    -11.1641140 -0.111641E+02  0.316E+00    2.48       0.0  T
   2    -11.1640484  0.655996E-04  0.183E+00    2.48       1.0  T
   3    -11.1509320  0.131164E-01  0.150E+00    2.41       1.0  T
   4    -11.1641927 -0.132607E-01  0.298E-01    2.42       1.0  T
   5    -11.1647963 -0.603562E-03  0.109E-01    2.46       1.0  T
   6    -11.1647958  0.428950E-06  0.852E-02    2.44       1.0  T
   7    -11.1648305 -0.346112E-04  0.532E-02    2.45       1.0  T
   8    -11.1648485 -0.180902E-04  0.920E-03    2.45       4.9  T
   9    -11.1648488 -0.283112E-06  0.498E-03    2.45       9.0  T
  10    -11.1648489 -0.347840E-07  0.586E-04    2.45      76.3  T
  11    -11.1648489 -0.587036E-09  0.880E-05    2.45     508.0  T
     SCC iter.                  ...        0 min,  0.001 sec
     gradient                   ...        0 min,  0.001 sec
 * total energy  :   -11.0255496 Eh     change       -0.9754565E-02 Eh
   gradient norm :     0.0976545 Eh/α   predicted    -0.1289469E-01 (  32.19%)
   displ. norm   :     0.2545240 α      lambda       -0.1295420E-01
   maximum displ.:     0.1591181 α      in ANC's #1, #4, #2, ...

........................................................................
.............................. CYCLE   15 ..............................
........................................................................
   1    -11.1861778 -0.111862E+02  0.176E+00    2.42       0.0  T
   2    -11.1502802  0.358977E-01  0.253E+00    2.41       1.0  T
   3    -11.1987359 -0.484557E-01  0.769E-01    2.37       1.0  T
   4    -11.1975403  0.119559E-02  0.596E-01    2.47       1.0  T
   5    -11.1993468 -0.180646E-02  0.188E-01    2.38       1.0  T
   6    -11.1995113 -0.164580E-03  0.986E-02    2.41       1.0  T
   7    -11.1995697 -0.583213E-04  0.627E-02    2.40       1.0  T
   8    -11.1995877 -0.180606E-04  0.158E-02    2.40       2.8  T
   9    -11.1995883 -0.542119E-06  0.399E-03    2.40      11.2  T
  10    -11.1995883 -0.450826E-07  0.883E-04    2.40      50.6  T
  11    -11.1995883 -0.269499E-08  0.169E-04    2.40     264.6  T
     SCC iter.                  ...        0 min,  0.001 sec
     gradient                   ...        0 min,  0.001 sec
 * total energy  :   -11.0260091 Eh     change       -0.4594258E-03 Eh
   gradient norm :     0.0804094 Eh/α   predicted    -0.6896679E-02 (1401.15%)
   displ. norm   :     0.1232256 α      lambda       -0.8171394E-02
   maximum displ.:     0.0807082 α      in ANC's #4, #2, #6, ...

........................................................................
.............................. CYCLE   16 ..............................
........................................................................
   1    -11.1823205 -0.111823E+02  0.787E-01    2.32       0.0  T
   2    -11.1754686  0.685192E-02  0.111E+00    2.31       1.0  T
   3    -11.1839089 -0.844031E-02  0.436E-01    2.34       1.0  T
   4    -11.1836289  0.280048E-03  0.317E-01    2.29       1.0  T
   5    -11.1839996 -0.370747E-03  0.268E-01    2.35       1.0  T
   6    -11.1844525 -0.452896E-03  0.423E-02    2.33       1.1  T
   7    -11.1844570 -0.451483E-05  0.297E-02    2.32       1.5  T
   8    -11.1844607 -0.364893E-05  0.697E-03    2.32       6.4  T
   9    -11.1844608 -0.153626E-06  0.210E-03    2.32      21.3  T
  10    -11.1844608 -0.713125E-08  0.168E-04    2.32     266.5  T
  11    -11.1844608  0.230180E-10  0.113E-04    2.32     396.1  T
     SCC iter.                  ...        0 min,  0.001 sec
     gradient                   ...        0 min,  0.001 sec
 * total energy  :   -11.0298752 Eh     change       -0.3866086E-02 Eh
   gradient norm :     0.0716267 Eh/α   predicted    -0.4147731E-02 (   7.29%)
   displ. norm   :     0.0435190 α      lambda       -0.6805921E-03
   maximum displ.:     0.0261616 α      in ANC's #3, #5, #7, ...

........................................................................
.............................. CYCLE   17 ..............................
........................................................................
   1    -11.1850723 -0.111851E+02  0.233E-01    2.45       0.0  T
   2    -11.1849126  0.159620E-03  0.211E-01    2.45       1.0  T
   3    -11.1850067 -0.940236E-04  0.157E-01    2.45       1.0  T
   4    -11.1851261 -0.119471E-03  0.279E-02    2.45       1.6  T
   5    -11.1851286 -0.247041E-05  0.126E-02    2.45       3.5  T
   6    -11.1851285  0.720610E-07  0.970E-03    2.45       4.6  T
   7    -11.1851287 -0.205174E-06  0.679E-03    2.45       6.6  T
   8    -11.1851291 -0.391637E-06  0.479E-04    2.45      93.3  T
   9    -11.1851291 -0.207324E-09  0.237E-04    2.45     188.8  T
     SCC iter.                  ...        0 min,  0.001 sec
     gradient                   ...        0 min,  0.001 sec
 * total energy  :   -11.0304668 Eh     change       -0.5916563E-03 Eh
   gradient norm :     0.0718445 Eh/α   predicted    -0.3409406E-03 ( -42.38%)
   displ. norm   :     0.1728817 α      lambda       -0.3477672E-02
   maximum displ.:     0.1183350 α      in ANC's #5, #7, #1, ...

........................................................................
.............................. CYCLE   18 ..............................
........................................................................
   1    -11.1918945 -0.111919E+02  0.818E-01    2.79       0.0  T
   2    -11.1905212  0.137326E-02  0.669E-01    2.79       1.0  T
   3    -11.1905967 -0.754221E-04  0.573E-01    2.79       1.0  T
   4    -11.1924254 -0.182872E-02  0.139E-01    2.79       1.0  T
   5    -11.1924603 -0.349663E-04  0.102E-01    2.79       1.0  T
   6    -11.1925209 -0.605784E-04  0.307E-02    2.79       1.5  T
   7    -11.1925175  0.342627E-05  0.291E-02    2.79       1.5  T
   8    -11.1925236 -0.614619E-05  0.211E-03    2.79      21.2  T
   9    -11.1925237 -0.696775E-08  0.909E-04    2.79      49.2  T
  10    -11.1925237 -0.134357E-08  0.102E-04    2.79     439.2  T
     SCC iter.                  ...        0 min,  0.001 sec
     gradient                   ...        0 min,  0.001 sec
 * total energy  :   -11.0327243 Eh     change       -0.2257467E-02 Eh
   gradient norm :     0.0693168 Eh/α   predicted    -0.1790805E-02 ( -20.67%)
   displ. norm   :     0.0946406 α      lambda       -0.2245304E-02
   maximum displ.:     0.0460211 α      in ANC's #5, #1, #4, ...

........................................................................
.............................. CYCLE   19 ..............................
........................................................................
   1    -11.1983752 -0.111984E+02  0.388E-01    2.79       0.0  T
   2    -11.1982055  0.169671E-03  0.281E-01    2.81       1.0  T
   3    -11.1976936  0.511948E-03  0.321E-01    2.78       1.0  T
   4    -11.1983440 -0.650437E-03  0.129E-01    2.79       1.0  T
   5    -11.1984475 -0.103466E-03  0.222E-02    2.79       2.0  T
   6    -11.1984471  0.341282E-06  0.205E-02    2.80       2.2  T
   7    -11.1984493 -0.213751E-05  0.610E-03    2.80       7.3  T
   8    -11.1984495 -0.195944E-06  0.886E-04    2.80      50.5  T
   9    -11.1984495 -0.123843E-08  0.386E-04    2.80     115.9  T
     SCC iter.                  ...        0 min,  0.001 sec
     gradient                   ...        0 min,  0.001 sec
 * total energy  :   -11.0345140 Eh     change       -0.1789729E-02 Eh
   gradient norm :     0.0603455 Eh/α   predicted    -0.1132708E-02 ( -36.71%)
   displ. norm   :     0.1410539 α      lambda       -0.3315547E-02
   maximum displ.:     0.0883311 α      in ANC's #4, #2, #3, ...

........................................................................
.............................. CYCLE   20 ..............................
........................................................................
   1    -11.2045669 -0.112046E+02  0.599E-01    2.58       0.0  T
   2    -11.2045050  0.619348E-04  0.383E-01    2.59       1.0  T
   3    -11.2024164  0.208858E-02  0.519E-01    2.53       1.0  T
   4    -11.2045641 -0.214769E-02  0.116E-01    2.58       1.0  T
   5    -11.2046349 -0.707707E-04  0.381E-02    2.59       1.2  T
   6    -11.2046399 -0.502018E-05  0.224E-02    2.58       2.0  T
   7    -11.2046403 -0.446323E-06  0.147E-02    2.58       3.0  T
   8    -11.2046418 -0.150100E-05  0.140E-03    2.58      31.9  T
   9    -11.2046418 -0.622672E-08  0.569E-04    2.58      78.6  T
  10    -11.2046418 -0.193200E-09  0.757E-05    2.58     590.9  T
     SCC iter.                  ...        0 min,  0.001 sec
     gradient                   ...        0 min,  0.001 sec
 * total energy  :   -11.0366527 Eh     change       -0.2138655E-02 Eh
   gradient norm :     0.0459891 Eh/α   predicted    -0.1690758E-02 ( -20.94%)
   displ. norm   :     0.0683243 α      lambda       -0.1257454E-02
   maximum displ.:     0.0433230 α      in ANC's #4, #2, #8, ...
 * RMSD in coord.:     0.9477219 α      energy gain  -0.1226986E+00 Eh

generating ANC from model Hessian ...
Using Lindh-Hessian (1995)
 Shifting diagonal of input Hessian by    0.0000000000000000     
 Lowest  eigenvalues of input Hessian
   -0.000000   -0.000000    0.000000    0.000000    0.000000    0.000000
    0.098602    0.201301    0.481792    0.620823    0.962961    1.063673
    1.485997    1.732327    1.975346
 Highest eigenvalues
    0.620823    0.962961    1.063673    1.485997    1.732327    1.975346


........................................................................
.............................. CYCLE   21 ..............................
........................................................................
   1    -11.2054467 -0.112054E+02  0.354E-01    2.59       0.0  T
   2    -11.2053435  0.103268E-03  0.244E-01    2.57       1.0  T
   3    -11.2045443  0.799127E-03  0.335E-01    2.62       1.0  T
   4    -11.2054287 -0.884336E-03  0.956E-02    2.59       1.0  T
   5    -11.2054854 -0.567081E-04  0.190E-02    2.59       2.3  T
   6    -11.2054859 -0.468107E-06  0.110E-02    2.59       4.0  T
   7    -11.2054856  0.226046E-06  0.969E-03    2.59       4.6  T
   8    -11.2054863 -0.698967E-06  0.927E-04    2.59      48.3  T
   9    -11.2054863  0.124279E-09  0.543E-04    2.59      82.3  T
     SCC iter.                  ...        0 min,  0.001 sec
     gradient                   ...        0 min,  0.001 sec
 * total energy  :   -11.0376343 Eh     change       -0.9816186E-03 Eh
   gradient norm :     0.0359471 Eh/α   predicted     0.0000000E+00 (-100.00%)
   displ. norm   :     0.0320628 α      lambda       -0.9246796E-03
   maximum displ.:     0.0162220 α      in ANC's #7, #1, #5, ...

........................................................................
.............................. CYCLE   22 ..............................
........................................................................
   1    -11.2047608 -0.112048E+02  0.232E-01    2.66       0.0  T
   2    -11.2046182  0.142582E-03  0.200E-01    2.63       1.0  T
   3    -11.2045939  0.243523E-04  0.177E-01    2.67       1.0  T
   4    -11.2047866 -0.192723E-03  0.640E-02    2.66       1.0  T
   5    -11.2048073 -0.207095E-04  0.270E-02    2.65       1.7  T
   6    -11.2048119 -0.457583E-05  0.799E-03    2.65       5.6  T
   7    -11.2048119  0.301110E-07  0.625E-03    2.65       7.2  T
   8    -11.2048121 -0.229824E-06  0.793E-04    2.65      56.4  T
   9    -11.2048121 -0.816076E-09  0.356E-04    2.65     125.8  T
     SCC iter.                  ...        0 min,  0.001 sec
     gradient                   ...        0 min,  0.001 sec
 * total energy  :   -11.0383605 Eh     change       -0.7262016E-03 Eh
   gradient norm :     0.0233839 Eh/α   predicted    -0.4628138E-03 ( -36.27%)
   displ. norm   :     0.0459253 α      lambda       -0.9780701E-03
   maximum displ.:     0.0285912 α      in ANC's #7, #9, #5, ...

........................................................................
.............................. CYCLE   23 ..............................
........................................................................
   1    -11.2052110 -0.112052E+02  0.409E-01    2.76       0.0  T
   2    -11.2047504  0.460546E-03  0.348E-01    2.70       1.0  T
   3    -11.2047586 -0.816514E-05  0.302E-01    2.77       1.0  T
   4    -11.2052336 -0.475012E-03  0.149E-01    2.75       1.0  T
   5    -11.2053792 -0.145635E-03  0.327E-02    2.74       1.4  T
   6    -11.2053843 -0.508257E-05  0.160E-02    2.74       2.8  T
   7    -11.2053848 -0.480745E-06  0.101E-02    2.74       4.4  T
   8    -11.2053853 -0.518627E-06  0.140E-03    2.74      32.0  T
   9    -11.2053853 -0.206373E-08  0.679E-04    2.74      65.9  T
  10    -11.2053853 -0.115341E-08  0.754E-05    2.74     593.2  T
     SCC iter.                  ...        0 min,  0.001 sec
     gradient                   ...        0 min,  0.001 sec
 * total energy  :   -11.0388737 Eh     change       -0.5132428E-03 Eh
   gradient norm :     0.0066933 Eh/α   predicted    -0.4900651E-03 (  -4.52%)
   displ. norm   :     0.0084553 α      lambda       -0.4317725E-04
   maximum displ.:     0.0043901 α      in ANC's #4, #1, #8, ...

........................................................................
.............................. CYCLE   24 ..............................
........................................................................
   1    -11.2053318 -0.112053E+02  0.706E-02    2.74       0.0  T
   2    -11.2053263  0.556961E-05  0.460E-02    2.73       1.0  T
   3    -11.2053168  0.948474E-05  0.538E-02    2.74       1.0  T
   4    -11.2053313 -0.144685E-04  0.270E-02    2.74       1.7  T
   5    -11.2053362 -0.490775E-05  0.704E-03    2.73       6.3  T
   6    -11.2053365 -0.289696E-06  0.203E-03    2.73      22.1  T
   7    -11.2053364  0.172464E-07  0.191E-03    2.73      23.4  T
   8    -11.2053365 -0.256338E-07  0.173E-04    2.73     258.5  T
   9    -11.2053365 -0.349925E-10  0.603E-05    2.73     741.4  T
     SCC iter.                  ...        0 min,  0.001 sec
     gradient                   ...        0 min,  0.001 sec
 * total energy  :   -11.0389070 Eh     change       -0.3322665E-04 Eh
   gradient norm :     0.0043597 Eh/α   predicted    -0.2158818E-04 ( -35.03%)
   displ. norm   :     0.0121560 α      lambda       -0.4451315E-04
   maximum displ.:     0.0072031 α      in ANC's #4, #3, #8, ...

........................................................................
.............................. CYCLE   25 ..............................
........................................................................
   1    -11.2051440 -0.112051E+02  0.919E-02    2.72       0.0  T
   2    -11.2051349  0.902333E-05  0.613E-02    2.71       1.0  T
   3    -11.2051148  0.201554E-04  0.730E-02    2.72       1.0  T
   4    -11.2051477 -0.329681E-04  0.303E-02    2.72       1.5  T
   5    -11.2051523 -0.457673E-05  0.148E-02    2.71       3.0  T
   6    -11.2051535 -0.112957E-05  0.243E-03    2.72      18.4  T
   7    -11.2051534  0.546369E-07  0.324E-03    2.72      13.8  T
   8    -11.2051535 -0.671005E-07  0.242E-04    2.72     184.8  T
   9    -11.2051535 -0.644214E-10  0.100E-04    2.72     447.2  T
     SCC iter.                  ...        0 min,  0.001 sec
     gradient                   ...        0 min,  0.001 sec
 * total energy  :   -11.0389325 Eh     change       -0.2558594E-04 Eh
   gradient norm :     0.0017962 Eh/α   predicted    -0.2225886E-04 ( -13.00%)
   displ. norm   :     0.0060803 α      lambda       -0.5317906E-05
   maximum displ.:     0.0050666 α      in ANC's #3, #8, #5, ...

........................................................................
.............................. CYCLE   26 ..............................
........................................................................
   1    -11.2051237 -0.112051E+02  0.325E-02    2.71       0.0  T
   2    -11.2051177  0.591946E-05  0.363E-02    2.71       1.2  T
   3    -11.2051249 -0.714410E-05  0.187E-02    2.71       2.4  T
   4    -11.2051248  0.849385E-07  0.139E-02    2.71       3.2  T
   5    -11.2051258 -0.103699E-05  0.892E-03    2.72       5.0  T
   6    -11.2051263 -0.487740E-06  0.846E-04    2.71      52.9  T
   7    -11.2051263  0.917218E-09  0.683E-04    2.71      65.5  T
     SCC iter.                  ...        0 min,  0.001 sec
     gradient                   ...        0 min,  0.001 sec
 * total energy  :   -11.0389376 Eh     change       -0.5078781E-05 Eh
   gradient norm :     0.0012134 Eh/α   predicted    -0.2657984E-05 ( -47.66%)
   displ. norm   :     0.0054666 α      lambda       -0.3264434E-05
   maximum displ.:     0.0050444 α      in ANC's #3, #4, #5, ...

........................................................................
.............................. CYCLE   27 ..............................
........................................................................
   1    -11.2051514 -0.112052E+02  0.335E-02    2.73       0.0  T
   2    -11.2051475  0.389369E-05  0.312E-02    2.73       1.4  T
   3    -11.2051509 -0.339069E-05  0.199E-02    2.73       2.2  T
   4    -11.2051511 -0.201460E-06  0.146E-02    2.72       3.1  T
   5    -11.2051530 -0.187066E-05  0.182E-03    2.73      24.5  T
   6    -11.2051530 -0.902213E-08  0.102E-03    2.73      43.7  T
   7    -11.2051530 -0.353910E-08  0.114E-04    2.73     390.9  T
   8    -11.2051530 -0.124611E-10  0.544E-05    2.73     822.7  T
     SCC iter.                  ...        0 min,  0.001 sec
     gradient                   ...        0 min,  0.001 sec
 * total energy  :   -11.0389411 Eh     change       -0.3517535E-05 Eh
   gradient norm :     0.0009890 Eh/α   predicted    -0.1633634E-05 ( -53.56%)
   displ. norm   :     0.0077742 α      lambda       -0.2879531E-05
   maximum displ.:     0.0075987 α      in ANC's #3, #4, #6, ...

   *** GEOMETRY OPTIMIZATION CONVERGED AFTER 27 ITERATIONS ***

------------------------------------------------------------------------
 total energy gain   :        -0.1249871 Eh      -78.4306 kcal/mol
 total RMSD          :         0.9461940 a0        0.5007 Å
 total power (kW/mol):       -12.1538359 (step)-3282.9164 (real)
------------------------------------------------------------------------

 ANCopt (total)                0 d,  0 h,  0 min,  0.100 sec
 optimizer setup                ...        0 min,  0.000 sec (  0.056%)
 model hessian                  ...        0 min,  0.000 sec (  0.130%)
 ANC generation                 ...        0 min,  0.000 sec (  0.084%)
 coordinate transformation      ...        0 min,  0.000 sec (  0.053%)
 single point calculation       ...        0 min,  0.098 sec ( 97.787%)
 optimization log               ...        0 min,  0.001 sec (  0.664%)
 hessian update                 ...        0 min,  0.000 sec (  0.052%)
 rational function              ...        0 min,  0.001 sec (  0.536%)

================
 final structure:
================
5
 xtb: 6.2.2 (9d81278992624c895f80dd42a50cac0aa55982e2)
C         1.29103906452206   -0.31996427944069    0.09350550864845
C         0.19448611780022   -1.02764319572839    0.38125066149678
N        -0.84949793603423    0.94341933142578   -0.33633694546458
C        -1.06512539704021   -0.28377994790238    0.12858595200106
C         0.42909815075216    0.68796809164568   -0.26700417668171

 Bond Distances (Angstroems)
 ---------------------------
C1-C2=1.3364         C1-C5=1.3743         C2-C1=1.3364         C2-C4=1.4845         C2-C5=1.8489         N3-C4=1.3299         
N3-C5=1.3057         C4-C2=1.4845         C4-N3=1.3299         C4-C5=1.8258         C5-C1=1.3743         C5-C2=1.8489         
C5-N3=1.3057         C5-C4=1.8258         
 C  C  Rav=1.5740 sigma=0.2206  Rmin=1.3364  Rmax=1.8489     5
 N  C  Rav=1.3178 sigma=0.0121  Rmin=1.3057  Rmax=1.3299     2

 selected bond angles (degree)
 --------------------
C5-C1-C2= 86.00                C4-C2-C1=113.22                C5-C2-C1= 47.86                C5-C2-C4= 65.36                
C5-N3-C4= 87.69                N3-C4-C2=112.60                C5-C4-C2= 66.99                C5-C4-N3= 45.61                
C2-C5-C1= 46.14                N3-C5-C1=140.49                N3-C5-C2= 94.35                C4-C5-C1= 93.79                
C4-C5-C2= 47.65                C4-C5-N3= 46.70                

 selected dihedral angles (degree)
 ---------------------------------
C4-C2-C1-C5=359.97            N3-C4-C2-C1=  0.03            N3-C4-C2-C5=  0.00            C5-C4-C2-C1=  0.00            
C2-C4-N3-C5=  0.00            N3-C5-C1-C2=  0.03            C4-C5-C1-C2=  0.00            C1-C5-C2-C4=179.97            
N3-C5-C2-C1=180.02            N3-C5-C2-C4=  0.00            C4-C5-C2-C1=180.03            C1-C5-N3-C4=  0.00            
C2-C5-N3-C4=  0.00            C1-C5-C4-C2=  0.00            C1-C5-C4-N3=179.99            C2-C5-C4-N3=180.01            
N3-C5-C4-C2=179.99            
           -------------------------------------------------
          |                Final Singlepoint                |
           -------------------------------------------------

          ...................................................
          :                      SETUP                      :
          :.................................................:
          :  # basis functions                  20          :
          :  # atomic orbitals                  20          :
          :  # shells                           10          :
          :  # electrons                        21          :
          :  max. iterations                   250          :
          :  Hamiltonian                  GFN2-xTB          :
          :  restarted?                      false          :
          :  GBSA solvation                  false          :
          :  PC potential                    false          :
          :  electronic temp.          300.0000000     K    :
          :  accuracy                    1.0000000          :
          :  -> integral cutoff          0.2500000E+02      :
          :  -> integral neglect         0.1000000E-07      :
          :  -> SCF convergence          0.1000000E-05 Eh   :
          :  -> wf. convergence          0.1000000E-03 e    :
          :  Broyden damping             0.4000000          :
          ...................................................

 iter      E             dE          RMSdq      gap      omega  full diag
   1    -11.2051530 -0.112052E+02  0.970E-06    2.73       0.0  T
   2    -11.2051530 -0.284217E-13  0.541E-06    2.73    8261.9  T
   3    -11.2051530  0.728306E-13  0.530E-06    2.73    8441.3  T

   *** convergence criteria satisfied after 3 iterations ***

         #    Occupation            Energy/Eh            Energy/eV
      -------------------------------------------------------------
         1        2.0000           -0.7452854             -20.2802
       ...           ...                  ...                  ...
         6        2.0000           -0.5755642             -15.6619
         7        2.0000           -0.5043274             -13.7234
         8        2.0000           -0.4640768             -12.6282
         9        2.0000           -0.4503188             -12.2538
        10        1.0000           -0.4154683             -11.3055
        11        1.0000           -0.4150644             -11.2945
        12        1.0000           -0.3950728             -10.7505 (HOMO)
        13                         -0.2948678              -8.0238 (LUMO)
        14                         -0.2508983              -6.8273
        15                         -0.2153348              -5.8596
        16                          0.1149384               3.1276
        17                          0.1484528               4.0396
       ...                                ...                  ...
        20                          0.6198581              16.8672
      -------------------------------------------------------------
                  HL-Gap            0.1002050 Eh            2.7267 eV
             Fermi-level           -0.3890514 Eh          -10.5866 eV

 SCC (total)                   0 d,  0 h,  0 min,  0.003 sec
 SCC setup                      ...        0 min,  0.000 sec (  1.314%)
 Dispersion                     ...        0 min,  0.000 sec (  0.290%)
 integral evaluation            ...        0 min,  0.001 sec ( 41.074%)
 zeroth order Hamiltonian       ...        0 min,  0.000 sec (  0.443%)
 iterations                     ...        0 min,  0.000 sec ( 11.183%)
 molecular gradient             ...        0 min,  0.001 sec ( 43.679%)
 printout                       ...        0 min,  0.000 sec (  1.765%)

         :::::::::::::::::::::::::::::::::::::::::::::::::::::
         ::                     SUMMARY                     ::
         :::::::::::::::::::::::::::::::::::::::::::::::::::::
         :: total energy             -11.038941134623 Eh    ::
         :: gradient norm              0.000988844577 Eh/a0 ::
         :: HOMO-LUMO gap              2.726716079097 eV    ::
         ::.................................................::
         :: SCC energy               -11.205152981868 Eh    ::
         :: -> isotropic ES            0.003609933614 Eh    ::
         :: -> anisotropic ES          0.002601542654 Eh    ::
         :: -> anisotropic XC          0.008424737140 Eh    ::
         :: -> dispersion             -0.002740995844 Eh    ::
         :: repulsion energy           0.166211818269 Eh    ::
         :: add. restraining           0.000000000000 Eh    ::
         :::::::::::::::::::::::::::::::::::::::::::::::::::::

           ------------------------------------------------- 
          |                Numerical Hessian                |
           ------------------------------------------------- 
step length          :   0.00500
SCC accuracy         :   0.30000
Hessian scale factor :   1.00000
frozen atoms in %    :   0.00000    0
RMS gradient         :   0.00099
estimated CPU  time      0.00 min
estimated wall time      0.00 min

writing file <hessian>.

 projected vibrational frequencies (cm-1)
eigval :       -0.00    -0.00    -0.00     0.00     0.00     0.00
eigval :      295.99   362.04   545.02   567.34   914.18   950.19
eigval :     1098.33  1442.19  1616.40
           -------------------------------------------------
          |                Property Printout                |
           -------------------------------------------------

    * Orbital Energies and Occupations

         #    Occupation            Energy/Eh            Energy/eV
      -------------------------------------------------------------
         1        2.0000           -0.7452854             -20.2802
         2        2.0000           -0.6876271             -18.7113
         3        2.0000           -0.6439259             -17.5221
         4        2.0000           -0.5943640             -16.1735
         5        2.0000           -0.5800288             -15.7834
         6        2.0000           -0.5755642             -15.6619
         7        2.0000           -0.5043274             -13.7234
         8        2.0000           -0.4640768             -12.6282
         9        2.0000           -0.4503188             -12.2538
        10        1.0000           -0.4154684             -11.3055
        11        1.0000           -0.4150643             -11.2945
        12        1.0000           -0.3950727             -10.7505 (HOMO)
        13                         -0.2948678              -8.0238 (LUMO)
        14                         -0.2508982              -6.8273
        15                         -0.2153349              -5.8596
        16                          0.1149384               3.1276
        17                          0.1484529               4.0396
        18                          0.2786023               7.5812
        19                          0.4084840              11.1154
        20                          0.6198580              16.8672
      -------------------------------------------------------------
                  HL-Gap            0.1002049 Eh            2.7267 eV
             Fermi-level           -0.3890514 Eh          -10.5866 eV

     #   Z        covCN         q      C6AA      α(0)
     1   6 C      1.991    -0.050    32.404     9.193
     2   6 C      2.746     0.003    27.936     8.654
Molecule has the following symmetry elements: (sigma) 
It seems to be the Cs point group
     3   7 N      1.835    -0.146    24.940     7.401
     4   6 C      2.723     0.043    27.002     8.507
     5   6 C      3.471     0.150    20.033     6.714

 Mol. C6AA /au·bohr⁶  :        656.577625
 Mol. C8AA /au·bohr⁸  :      18065.349172
 Mol. α(0) /au        :         40.468743


Wiberg/Mayer (AO) data.
largest (>0.10) Wiberg bond orders for each atom
          total WBO             WBO to atom ...
     1  C   3.042        C    2 1.567    C    5 1.259    N    3 0.148
     2  C   2.955        C    1 1.567    C    4 0.929    C    5 0.360
     3  N   2.929        C    5 1.361    C    4 1.321    C    1 0.148
     4  C   2.639        N    3 1.321    C    2 0.929    C    5 0.318
     5  C   3.298        N    3 1.361    C    1 1.259    C    2 0.360    C    4 0.318

MOs/occ written to file <molden.input>


molecular dipole:
                 x           y           z       tot (Debye)
 q only:        0.146      -0.064       0.021
   full:        0.344      -0.062       0.016       0.889
molecular quadrupole (traceless):
                xx          xy          yy          xz          yz          zz
 q only:       -0.290       1.041       0.005      -0.378       0.094       0.285
  q+dip:       -0.850       1.873      -0.197      -0.660       0.492       1.046
   full:       -2.008       2.418      -0.378      -0.808       1.141       2.385

           -------------------------------------------------
          |                Geometry Summary                 |
           -------------------------------------------------

      molecular mass/u    :       62.0496468
   center of mass at/Å    :       -0.0273259       0.0303473      -0.0108188
  moments of inertia/u·Å² :        0.2929659E+02   0.5453384E+02   0.8383043E+02
rotational constants/cm⁻¹ :        0.5754128E+00   0.3091224E+00   0.2010920E+00

 * 4 selected distances

     #   Z        #   Z                                     value/Å
     1   6 C      2   6 C                                 1.3364262
     3   7 N      4   6 C                                 1.3299122
     1   6 C      5   6 C                                 1.3743497 (max)
     3   7 N      5   6 C                                 1.3057068 (min)

 * 2 distinct bonds (by element types)

   Z      Z             #   av. dist./Å        max./Å        min./Å
   6 C    6 C           2     1.3553880     1.3743497     1.3364262
   6 C    7 N           2     1.3178095     1.3299122     1.3057068

           -------------------------------------------------
          |               Frequency Printout                |
           -------------------------------------------------
 projected vibrational frequencies (cm-1)
eigval :       -0.00    -0.00    -0.00     0.00     0.00     0.00
eigval :      295.99   362.04   545.02   567.34   914.18   950.19
eigval :     1098.33  1442.19  1616.40
 reduced masses (amu)
   1: 12.56   2: 12.87   3: 12.31   4: 12.32   5: 12.03   6: 12.74   7: 12.13   8: 12.14
   9: 12.55  10: 12.37  11: 12.94  12: 12.08  13: 12.28  14: 12.50  15: 12.31
 IR intensities (amu)
   1:  0.03   2:  0.04   3:  0.05   4:  0.08   5:  0.03   6:  0.09   7:  0.24   8:  0.31
   9:  0.28  10:  0.33  11:  0.87  12:  0.33  13:  0.37  14:  0.50  15:  1.35
 Raman intensities (amu)
   1:  0.00   2:  0.00   3:  0.00   4:  0.00   5:  0.00   6:  0.00   7:  0.00   8:  0.00
   9:  0.00  10:  0.00  11:  0.00  12:  0.00  13:  0.00  14:  0.00  15:  0.00
 output can be read by thermo (or use thermo option).
 writing <g98.out> molden fake output.
 recommended (thermochemical) frequency scaling factor: 1.0
           -------------------------------------------------
          |             Thermodynamic Functions             |
           -------------------------------------------------

cs  symmetry found (for desy threshold:  0.10E+00) used in thermo

          ...................................................
          :                      SETUP                      :
          :.................................................:
          :  # frequencies                           9      :
          :  # imaginary freq.                       0      :
          :  linear?                             false      :
          :  only rotor calc.                    false      :
          :  symmetry                               cs      :
          :  rotational number                       1      :
          :  scaling factor                  1.0000000      :
          :  rotor cutoff                   50.0000000 cm⁻¹ :
          :  imag. cutoff                  -20.0000000 cm⁻¹ :
          :.................................................:

    mode    ω/cm⁻¹     T·S(HO)/kcal·mol⁻¹    T·S(FR)/kcal·mol⁻¹   T·S(vib)
   ------------------------------------------------------------------------
       1    295.99    -0.00000 ( 99.92%)     0.01598 (  0.08%)     0.00001
   ------------------------------------------------------------------------

   temp. (K)  partition function   enthalpy   heat capacity  entropy
                                   cal/mol     cal/K/mol   cal/K/mol   J/K/mol
 298.15  VIB   1.89                  800.247      6.823      3.949
         ROT  0.280E+05              888.752      2.981     23.327
         INT  0.528E+05             1689.000      9.804     27.276
         TR   0.473E+27             1481.254      4.968     38.278
         TOT                        3170.2536    14.7719    65.5540   274.2778

   temp. (K)  partition function   enthalpy   heat capacity  entropy
                                   cal/mol     cal/K/mol   cal/K/mol   J/K/mol
 120.00  VIB   1.05                   42.873      1.497      0.447
         ROT  0.714E+04              357.707      2.981     20.614
         INT  0.747E+04              400.579      4.478     21.062
         TR   0.121E+27              596.178      4.968     33.759
         TOT                         996.7575     9.4465    54.8203   229.3681

   temp. (K)  partition function   enthalpy   heat capacity  entropy
                                   cal/mol     cal/K/mol   cal/K/mol   J/K/mol
 100.00  VIB   1.02                   18.914      0.909      0.230
         ROT  0.543E+04              298.089      2.981     20.071
         INT  0.554E+04              317.003      3.890     20.301
         TR   0.919E+26              496.815      4.968     32.853
         TOT                         813.8181     8.8585    53.1546   222.3986

   temp. (K)  partition function   enthalpy   heat capacity  entropy
                                   cal/mol     cal/K/mol   cal/K/mol   J/K/mol
  80.00  VIB   1.01                    5.835      0.421      0.086
         ROT  0.389E+04              238.471      2.981     19.406
         INT  0.391E+04              244.306      3.402     19.492
         TR   0.657E+26              397.452      4.968     31.745
         TOT                         641.7583     8.3703    51.2372   214.3765

   temp. (K)  partition function   enthalpy   heat capacity  entropy
                                   cal/mol     cal/K/mol   cal/K/mol   J/K/mol
  60.00  VIB   1.00                    0.881      0.110      0.017
         ROT  0.252E+04              178.853      2.981     18.548
         INT  0.253E+04              179.735      3.090     18.565
         TR   0.427E+26              298.089      4.968     30.317
         TOT                         477.8238     8.0586    48.8817   204.5209

   temp. (K)  partition function   enthalpy   heat capacity  entropy
                                   cal/mol     cal/K/mol   cal/K/mol   J/K/mol
  40.00  VIB   1.00                    0.022      0.006      0.000
         ROT  0.137E+04              119.236      2.981     17.339
         INT  0.137E+04              119.258      2.987     17.340
         TR   0.232E+26              198.726      4.968     28.303
         TOT                         317.9840     7.9551    45.6430   190.9703

   temp. (K)  partition function   enthalpy   heat capacity  entropy
                                   cal/mol     cal/K/mol   cal/K/mol   J/K/mol
  20.00  VIB   1.00                    0.000      0.000     -0.001
         ROT   486.                   59.618      2.981     15.273
         INT   486.                   59.618      2.981     15.272
         TR   0.822E+25               99.363      4.968     24.861
         TOT                         158.9808     7.9490    40.1333   167.9177

   temp. (K)  partition function   enthalpy   heat capacity  entropy
                                   cal/mol     cal/K/mol   cal/K/mol   J/K/mol
  10.00  VIB   1.00                    0.000      0.000     -0.002
         ROT   172.                   29.809      2.981     13.207
         INT   172.                   29.809      2.981     13.205
         TR   0.290E+25               49.681      4.968     21.419
         TOT                          79.4904     7.9490    34.6242   144.8677

       T/K    H(0)-H(T)+PV         H(T)/Eh          T*S/Eh         G(T)/Eh
   ------------------------------------------------------------------------
    298.15    0.505212E-02    0.228029E-01    0.311468E-01   -0.834392E-02
    120.00    0.158843E-02    0.193392E-01    0.104834E-01    0.885580E-02
    100.00    0.129690E-02    0.190477E-01    0.847072E-02    0.105770E-01
     80.00    0.102271E-02    0.187735E-01    0.653214E-02    0.122413E-01
     60.00    0.761461E-03    0.185122E-01    0.467387E-02    0.138384E-01
     40.00    0.506740E-03    0.182575E-01    0.290947E-02    0.153480E-01
     20.00    0.253352E-03    0.180041E-01    0.127913E-02    0.167250E-01
     10.00    0.126676E-03    0.178774E-01    0.551772E-03    0.173257E-01 (used)
   ------------------------------------------------------------------------

         :::::::::::::::::::::::::::::::::::::::::::::::::::::
         ::                  THERMODYNAMIC                  ::
         :::::::::::::::::::::::::::::::::::::::::::::::::::::
         :: total free energy         -11.021615461880 Eh   ::
         ::.................................................::
         :: total energy              -11.038941134511 Eh   ::
         :: zero point energy           0.017750768471 Eh   ::
         :: G(RRHO) w/o ZPVE           -0.000425095840 Eh   ::
         :: G(RRHO) contrib.            0.017325672631 Eh   ::
         :::::::::::::::::::::::::::::::::::::::::::::::::::::

optimized geometry written to: xtbopt.xyz


           -------------------------------------------------
          | TOTAL ENERGY              -11.038941134511 Eh   |
          | TOTAL ENTHALPY            -11.021063690025 Eh   |
          | TOTAL FREE ENERGY         -11.021615461880 Eh   |
          | GRADIENT NORM               0.000989002711 Eh/α |
          | HOMO-LUMO GAP               2.726714511756 eV   |
           -------------------------------------------------

------------------------------------------------------------------------
 * finished run on 2020/05/12 at 11:44:16.975     
------------------------------------------------------------------------
 total:
 * wall-time:     0 d,  0 h,  0 min,  0.229 sec
 *  cpu-time:     0 d,  0 h,  0 min,  0.229 sec
 * ratio c/w:     0.999 speedup
 SCF:
 * wall-time:     0 d,  0 h,  0 min,  0.005 sec
 *  cpu-time:     0 d,  0 h,  0 min,  0.005 sec
 * ratio c/w:     1.000 speedup
 ANC optimizer:
 * wall-time:     0 d,  0 h,  0 min,  0.104 sec
 *  cpu-time:     0 d,  0 h,  0 min,  0.104 sec
 * ratio c/w:     0.999 speedup
 numerical hessian:
 * wall-time:     0 d,  0 h,  0 min,  0.105 sec
 *  cpu-time:     0 d,  0 h,  0 min,  0.105 sec
 * ratio c/w:     0.998 speedup

