[Molden Format]
[Title]
[Atoms] AU
C      1     6  0.22326385686533E+00 -0.17315521299491E+01 -0.26646525734957E-02
C      2     6 -0.14376472827841E+01  0.78020605350875E-01  0.14475238610124E+01
C      3     6  0.39665253034387E+00  0.17001535532241E+01 -0.15205081748561E-01
C      4     6 -0.15190283715685E+01  0.71680538074098E-01 -0.13622711910793E+01
C      5     6  0.23367573774240E+01 -0.11830256668677E+00 -0.67381045878482E-01
[GTO]
           1 0
 s           4   1.0000000000000000     
   51.049363095579913      -0.16312063210127389     
   8.7911227406887544      -0.19911024581000730     
  0.70640422258929825       0.31882047753655751     
  0.26922813413411617       0.12706504184240380     
 p           4   1.0000000000000000     
   5.8263656140800002       0.73716451545209605     
   1.5106896018720002       0.68216371614850257     
  0.53256483288000001       0.35783053929253711     
  0.21202323690600003        5.3983030275847881E-002

           2 0
 s           4   1.0000000000000000     
   51.049363095579913      -0.16312063210127389     
   8.7911227406887544      -0.19911024581000730     
  0.70640422258929825       0.31882047753655751     
  0.26922813413411617       0.12706504184240380     
 p           4   1.0000000000000000     
   5.8263656140800002       0.73716451545209605     
   1.5106896018720002       0.68216371614850257     
  0.53256483288000001       0.35783053929253711     
  0.21202323690600003        5.3983030275847881E-002

           3 0
 s           4   1.0000000000000000     
   51.049363095579913      -0.16312063210127389     
   8.7911227406887544      -0.19911024581000730     
  0.70640422258929825       0.31882047753655751     
  0.26922813413411617       0.12706504184240380     
 p           4   1.0000000000000000     
   5.8263656140800002       0.73716451545209605     
   1.5106896018720002       0.68216371614850257     
  0.53256483288000001       0.35783053929253711     
  0.21202323690600003        5.3983030275847881E-002

           4 0
 s           4   1.0000000000000000     
   51.049363095579913      -0.16312063210127389     
   8.7911227406887544      -0.19911024581000730     
  0.70640422258929825       0.31882047753655751     
  0.26922813413411617       0.12706504184240380     
 p           4   1.0000000000000000     
   5.8263656140800002       0.73716451545209605     
   1.5106896018720002       0.68216371614850257     
  0.53256483288000001       0.35783053929253711     
  0.21202323690600003        5.3983030275847881E-002

           5 0
 s           4   1.0000000000000000     
   51.049363095579913      -0.16312063210127389     
   8.7911227406887544      -0.19911024581000730     
  0.70640422258929825       0.31882047753655751     
  0.26922813413411617       0.12706504184240380     
 p           4   1.0000000000000000     
   5.8263656140800002       0.73716451545209605     
   1.5106896018720002       0.68216371614850257     
  0.53256483288000001       0.35783053929253711     
  0.21202323690600003        5.3983030275847881E-002

[MO]
Sym=     1a
Ene=  -0.75480271617908490     
Spin= Alpha
Occup=     2.00000000
           1  0.27668323382297472     
           2  -1.9585548951069304E-002
           3  0.13940913376118702     
           4   2.6077034523718461E-004
           5  0.25947642922658426     
           6   8.2287114302504044E-002
           7  -4.5690696367496897E-003
           8 -0.11160889021633204     
           9  0.27668780700303786     
          10  -3.3537297146112754E-002
          11 -0.13672081808195952     
          12   1.2728473742136370E-003
          13  0.25947089936397821     
          14   8.8604932884344401E-002
          15  -4.0822598786486117E-003
          16  0.10667844794264673     
          17  0.22320898098464478     
          18 -0.12376731244809362     
          19   6.2667341596332271E-003
          20   3.5695761415092792E-003
Sym=     2a
Ene=  -0.66449010063636271     
Spin= Alpha
Occup=     2.00000000
           1  -9.0929217045542618E-002
           2 -0.27341463436039876     
           3  -2.8656879842721614E-002
           4   7.9738801357573299E-003
           5  0.28568611605376065     
           6  -9.4535186253246098E-002
           7   4.3369194186807939E-003
           8 -0.11929285945502258     
           9  -9.0935987137370236E-002
          10 -0.26913853490733142     
          11   5.6126582025569201E-002
          12   7.6679378343628519E-003
          13  0.28569253065672812     
          14  -8.7467438728204852E-002
          15   4.8779571674320088E-003
          16  0.12453968337078607     
          17 -0.48308759887203795     
          18   7.2751308119290078E-002
          19  -3.6868987387326598E-003
          20  -2.0991979841677860E-003
Sym=     3a
Ene=  -0.62619831399466130     
Spin= Alpha
Occup=     2.00000000
           1 -0.47131994623012063     
           2   3.3426798625887405E-002
           3   7.4522922974174080E-002
           4  -1.0759470526261958E-003
           5   9.2131725982678314E-005
           6   1.4227973973474965E-002
           7  0.28102864233321173     
           8  -1.0133636466647697E-003
           9  0.47131812935429157     
          10  -2.5744461501858606E-002
          11   7.7526263110801033E-002
          12   6.3570647205656483E-004
          13  -9.0291014863288016E-005
          14   1.4168730172928289E-002
          15  0.28102062535733285     
          16  -1.0106089054102848E-003
          17  -2.8249488158301901E-006
          18   1.3506526318919305E-002
          19  0.26731001642233693     
          20  -9.4169338395065530E-004
Sym=     4a
Ene=  -0.60659125047768847     
Spin= Alpha
Occup=     2.00000000
           1  -9.2221965243903059E-005
           2  -9.5995215620451844E-003
           3  -7.0903701109645365E-004
           4 -0.33152197066893807     
           5 -0.41187780030031090     
           6 -0.12022226072423579     
           7   5.5330473949381665E-003
           8 -0.16181577544790704     
           9   9.4529333251908750E-005
          10  -9.5846706508131759E-003
          11  -7.1035601622900261E-004
          12 -0.33153020346333534     
          13  0.41187541782709436     
          14  0.11066395690738175     
          15  -6.1538754083991188E-003
          16 -0.16846511968907391     
          17   9.5836920513799403E-006
          18  -6.5851566817719549E-003
          19  -4.3261066231312079E-004
          20 -0.22762206273899371     
Sym=     5a
Ene=  -0.54752469637321455     
Spin= Alpha
Occup=     2.00000000
           1   8.3678566084445266E-002
           2  0.38729649866840626     
           3  -3.9789840954544228E-002
           4  -1.1143680891219537E-002
           5   1.1439383477519862E-006
           6   1.3869253542870226E-002
           7  0.27461370262153034     
           8  -1.0190706423405355E-003
           9  -8.3676120833835146E-002
          10 -0.38932959338424300     
          11  -4.7393348110333485E-004
          12   1.1259488069749014E-002
          13  -1.1862412066920937E-005
          14   1.3891477786484132E-002
          15  0.27460482160396710     
          16  -1.0241137213101068E-003
          17  -1.2500899435355893E-006
          18  -2.3466194323285859E-002
          19 -0.46439783960659164     
          20   1.6777340901104939E-003
Sym=     6a
Ene=  -0.51509139141203564     
Spin= Alpha
Occup=     2.00000000
           1 -0.18581035525108702     
           2  0.10107690070804236     
           3   3.1993010878283962E-002
           4  -2.9600050751214936E-003
           5  0.22876630697414585     
           6 -0.38206892972981216     
           7   1.8951413597033420E-002
           8  -8.6939391694752982E-002
           9 -0.18581149381902273     
          10   9.7327282088628814E-002
          11  -4.2038501017011426E-002
          12  -2.7539654254271789E-003
          13  0.22876300042436631     
          14 -0.37639377239126953     
          15   1.9456716268288900E-002
          16  0.10882192225111861     
          17  0.54455619323358651     
          18  0.33593497835454667     
          19  -1.7014451150223309E-002
          20  -9.6845182906014366E-003
Sym=     7a
Ene=  -0.46629083275702676     
Spin= Alpha
Occup=     1.99999965
           1   5.0000602390380906E-005
           2  -5.8530879594921323E-003
           3  -4.9211242222668814E-004
           4 -0.20186492071249837     
           5  0.41720719087804436     
           6 -0.27524750401125114     
           7   1.4602750588513128E-002
           8  0.26786541737545699     
           9   4.9708273200264155E-005
          10  -5.8506358072886993E-003
          11  -3.8791474844525570E-004
          12 -0.20251046515572785     
          13 -0.41724734046796719     
          14  0.29026069095370094     
          15  -1.3475282501148740E-002
          16  0.25161073495042546     
          17   6.4154565469516360E-006
          18  -1.4388816289025099E-002
          19  -1.0775095612409098E-003
          20 -0.49744975626442300     
Sym=     8a
Ene=  -0.46545153296524516     
Spin= Alpha
Occup=     1.99999915
           1   1.1513126595454359E-003
           2  -1.4425799293415965E-002
           3  -2.4096505199058598E-003
           4 -0.49717700717323382     
           5   2.9285774443391641E-004
           6   2.1173198614438532E-002
           7  0.42839867999288883     
           8  -1.4834186612840230E-003
           9   1.1417379432086254E-003
          10   1.4491721932533055E-002
          11   2.3975172994004901E-003
          12  0.49690698687769974     
          13  -2.4229686698114191E-004
          14  -2.1740795814261835E-002
          15 -0.42838027820189861     
          16   1.8338660443659672E-003
          17   1.9806669091992186E-004
          18   3.0952619271780403E-004
          19  -1.4882487581124045E-005
          20  -3.3173321155729031E-004
Sym=     9a
Ene=  -0.46392200276395579     
Spin= Alpha
Occup=     1.99999575
           1 -0.45181105668592997     
           2   9.0149574894870105E-003
           3  0.50869320862664880     
           4  -2.6829813414357838E-003
           5   4.4755039999468824E-002
           6  0.11291204142222522     
           7  -4.2707417018990092E-003
           8   9.8695518091788143E-002
           9 -0.45180023887546344     
          10  -4.2225135882723822E-002
          11 -0.50701283835722188     
          12   3.5922332123276479E-003
          13   4.4661102456316479E-002
          14  0.10696982896526663     
          15  -6.8642599238871787E-003
          16 -0.10498063792797195     
          17  -4.9928114971555512E-002
          18  -9.9642390303271891E-002
          19   5.0455415220160942E-003
          20   2.8140690334295653E-003
Sym=    10a
Ene=  -0.44065699372057787     
Spin= Alpha
Occup=     1.00000545
           1   7.0421067531101403E-002
           2   2.5718203576512385E-002
           3  -8.4919067779519658E-002
           4  -4.0948683758863308E-004
           5  0.39865041591413891     
           6  -2.5141438718877928E-002
           7   3.2353161002620944E-003
           8  0.57186383085316328     
           9   7.0419068064540805E-002
          10   3.4136273369747408E-002
          11   8.1888901847885789E-002
          12  -1.3314147506625256E-003
          13  0.39863437628608661     
          14  -5.8151563598191673E-002
          15   9.8294635842744718E-004
          16 -0.56944465433768998     
          17  -2.3508055673377382E-002
          18  -6.7141653720235853E-002
          19   3.3987513601111225E-003
          20   1.9128908872867287E-003
Sym=    11a
Ene=  -0.40665919174940740     
Spin= Alpha
Occup=     1.00000000
           1  -1.7699545392780763E-002
           2 -0.25947335457734405     
           3  -2.2086728587977424E-002
           4   7.6094930749239032E-003
           5  -7.7922983427967264E-003
           6  0.38200126917788363     
           7  -1.9070605774964399E-002
           8   7.4834343546365284E-002
           9  -1.7697966722854355E-002
          10 -0.25592413699037303     
          11   4.8186170867296499E-002
          12   7.2515024023110473E-003
          13  -7.7965968829981531E-003
          14  0.37705000083321255     
          15  -1.9363051127404836E-002
          16  -9.6729241315472045E-002
          17  0.32453803714787088     
          18  0.69177700012723664     
          19  -3.5023297624138271E-002
          20  -1.9946057112555135E-002
Sym=    12a
Ene=  -0.34231867144679873     
Spin= Alpha
Occup=     0.00000000
           1 -0.24464353936252156     
           2   6.8696976300772081E-002
           3  0.61620525256123737     
           4  -3.3469959765769631E-003
           5  -8.6665755441547169E-006
           6  -1.3597421036229582E-002
           7 -0.26926152832273648     
           8   9.9916198335460991E-004
           9  0.24464684312883106     
          10  -6.2358850743116905E-003
          11  0.62000262500130143     
          12  -1.1848374353661450E-003
          13   7.9720509402171367E-006
          14  -1.3613535849122860E-002
          15 -0.26926813816417072     
          16   9.9997972984566027E-004
          17  -9.7379773940660255E-007
          18  -1.8697207524656090E-002
          19 -0.37002282956813781     
          20   1.3601879593592382E-003
Sym=    13a
Ene=  -0.33067268017941609     
Spin= Alpha
Occup=     0.00000000
           1   2.6533375243431481E-006
           2  -5.7606462659261981E-003
           3  -4.2601971860129688E-004
           4 -0.19899737893027461     
           5   4.8091718135408572E-002
           6 -0.44780635561468518     
           7   2.2964008809564396E-002
           8   8.7708951766162738E-002
           9  -4.5565320420295728E-006
          10  -5.7500217687815993E-003
          11  -4.2679755237237378E-004
          12 -0.19899780913407411     
          13  -4.8087609225303737E-002
          14  0.45213582698919719     
          15  -2.2596296741901445E-002
          16   6.1748029763981936E-002
          17  -9.1795862939942770E-007
          18   2.3690543642051889E-002
          19   1.8061535628918339E-003
          20  0.81867888305074976     
Sym=    14a
Ene=  -0.10804089629707192     
Spin= Alpha
Occup=     0.00000000
           1  -4.9113378774945093E-005
           2  -1.4912732103013316E-002
           3  -1.1961853149828410E-003
           4 -0.51634279029869845     
           5  -4.0204196984301374E-003
           6  0.56523179818590652     
           7  -2.7893299678796838E-002
           8  0.45133502173910250     
           9   5.7940798776459653E-005
          10  -1.4960334476025879E-002
          11  -1.1952956760325996E-003
          12 -0.51471014532738435     
          13   4.0155204248323272E-003
          14 -0.53818717008133177     
          15   2.9866148730615244E-002
          16  0.48314527796057188     
          17   8.9895294512591608E-007
          18   8.0025139827599318E-003
          19   5.9183751129717171E-004
          20  0.27626865571457232     
Sym=    15a
Ene=  -0.10725485410941765     
Spin= Alpha
Occup=     0.00000000
           1  -8.5377980105369960E-006
           2   1.7131427600383269E-002
           3   1.3418581675109403E-003
           4  0.59417828601184397     
           5  -5.3268733740396409E-005
           6   3.5471602431983551E-002
           7  0.68769711466410699     
           8  -1.8678056854540888E-003
           9   3.2704206042225068E-005
          10  -1.7354060719744390E-002
          11  -1.3822024651210987E-003
          12 -0.59558423903597746     
          13  -3.7614136572013162E-005
          14  -3.5540622236573907E-002
          15 -0.68773945091862909     
          16   3.1603612233823378E-003
          17   5.7015674668400664E-005
          18  -2.2030473815620125E-005
          19   9.1866102351859534E-007
          20   3.8377995310839977E-004
Sym=    16a
Ene=    5.8532895994986137E-002
Spin= Alpha
Occup=     0.00000000
           1 -0.56643932839336308     
           2  0.41797875603759904     
           3 -0.49234541308909890     
           4  -1.1085385187308956E-002
           5   1.6195294735695689E-004
           6  -2.9022993663667594E-002
           7 -0.57392119170699840     
           8   1.8733849039115008E-003
           9  0.56642157052429143     
          10 -0.46542925176686856     
          11 -0.44759563239231365     
          12   1.4448253070443017E-002
          13  -1.3339381483978683E-004
          14  -2.8954395471584557E-002
          15 -0.57384837527967358     
          16   1.8863001673876199E-003
          17  -1.0263265584342551E-005
          18  -2.4673472436222074E-003
          19  -4.8990967000932667E-002
          20   2.0162462915347568E-004
Sym=    17a
Ene=   0.12248482510804055     
Spin= Alpha
Occup=     0.00000000
           1  0.18730377671797455     
           2 -0.70431698203942583     
           3  0.19156404864582996     
           4   1.9845005604847837E-002
           5 -0.43350718337425193     
           6 -0.37148771549295689     
           7   1.9602080381044190E-002
           8  0.24856775602078696     
           9  0.18763324973942747     
          10 -0.71960610196636288     
          11 -0.11973504867630710     
          12   2.1167142047913742E-002
          13 -0.43360956047495974     
          14 -0.38526316595658666     
          15   1.8777425672937473E-002
          16 -0.22687671892666184     
          17  0.50316652603418477     
          18 -0.34376212631478925     
          19   1.7043995345608576E-002
          20   9.9271816250254274E-003
Sym=    18a
Ene=   0.13826477234013382     
Spin= Alpha
Occup=     0.00000000
           1 -0.39294952178361625     
           2 -0.63989813691113751     
           3 -0.28148886787264138     
           4   1.9175464530253067E-002
           5   1.1993232970795559E-004
           6   7.0592154710336415E-003
           7  0.13736409277164044     
           8  -5.4405898363963008E-004
           9  0.39278485020753823     
          10  0.60879652574630461     
          11 -0.34456291364912339     
          12  -1.6835724567605070E-002
          13   2.1769147665766465E-004
          14   7.1238932234305120E-003
          15  0.13736067658470702     
          16  -3.5980495693548113E-004
          17  -1.7748153179513050E-004
          18  -4.8515659749034289E-002
          19 -0.96250177903130107     
          20   3.5015278911119632E-003
Sym=    19a
Ene=   0.21449541646486098     
Spin= Alpha
Occup=     0.00000000
           1  -1.3770119826394140E-004
           2   1.1250630757507115E-002
           3   7.3595211223288510E-004
           4  0.38480156039202978     
           5 -0.69867676102740695     
           6 -0.21935323187413802     
           7   1.3728666432271207E-002
           8  0.75624343307942365     
           9   1.3254514185680316E-004
          10   1.0882082617522290E-002
          11   7.5845647295025970E-004
          12  0.38482098190700298     
          13  0.69861131331212167     
          14  0.26269632203676530     
          15  -1.0671534620197924E-002
          16  0.74231319211140090     
          17   6.8119844160782945E-005
          18  -4.4374864488981106E-003
          19  -2.5824040061311838E-004
          20 -0.15138690636850366     
Sym=    20a
Ene=   0.47057681587815764     
Spin= Alpha
Occup=     0.00000000
           1  0.65586814701376839     
           2  0.22005659541876876     
           3  0.55370010618960230     
           4  -7.5891593485305194E-003
           5 -0.24619396293706139     
           6 -0.31951881099179702     
           7   1.6715047775988531E-002
           8  0.15898886233037474     
           9  0.65590660345946261     
          10  0.16315284161647148     
          11 -0.57312712184231318     
          12  -3.4257212499925220E-003
          13 -0.24613368361714377     
          14 -0.32814873373197839     
          15   1.6076923949677888E-002
          16 -0.14025961176066365     
          17 -0.76287300424753890     
          18  0.81459867454489876     
          19  -4.1265857804168346E-002
          20  -2.3494086527246039E-002
