 Entering Gaussian System
 *********************************************
 Gaussian 98:
 frequency output generated by the xtb code
 *********************************************
                         Standard orientation:
 --------------------------------------------------------------------
  Center     Atomic     Atomic              Coordinates (Angstroms)
  Number     Number      Type              X           Y           Z
 --------------------------------------------------------------------
    1          6             0        0.118146   -0.916298   -0.001410
    2          6             0       -0.760770    0.041287    0.765997
    3          6             0        0.209899    0.899683   -0.008046
    4          6             0       -0.803835    0.037932   -0.720883
    5          6             0        1.236559   -0.062603   -0.035657
 --------------------------------------------------------------------
     1 basis functions        1 primitive gaussians
     1 alpha electrons        1 beta electrons

 Harmonic frequencies (cm**-1), IR intensities (KM/Mole),
 Raman scattering activities (A**4/amu), Raman depolarization ratios,
 reduced masses (AMU), force constants (mDyne/A) and normal coordinates:
                      1                      2                      3
                        a                      a                      a 
 Frequencies --  -738.1729              -134.7207               721.7013
 Red. masses --    12.0107                12.0107                12.0107
 Frc consts  --     0.0000                 0.0000                 0.0000
 IR Inten    --     0.0116                 0.0781                 0.1676
 Raman Activ --     0.0000                 0.0000                 0.0000
 Depolar     --     0.0000                 0.0000                 0.0000
 Atom AN      X      Y      Z        X      Y      Z        X      Y      Z
   1   6     0.01   0.00   0.45     0.01   0.00   0.42    -0.28  -0.23   0.01
   2   6    -0.03  -0.55   0.00    -0.33   0.02  -0.09     0.48  -0.02   0.24
   3   6    -0.01  -0.00  -0.45     0.01   0.00   0.42    -0.26   0.26   0.01
   4   6     0.03   0.55  -0.00     0.33  -0.02  -0.11     0.46  -0.02  -0.27
   5   6    -0.00   0.00  -0.00    -0.02  -0.00  -0.64    -0.40   0.02   0.01
                      4                      5                      6
                        a                      a                      a 
 Frequencies --   795.0699               814.6117               930.1758
 Red. masses --    12.0107                12.0107                12.0107
 Frc consts  --     0.0000                 0.0000                 0.0000
 IR Inten    --     0.0613                 1.5856                 0.1971
 Raman Activ --     0.0000                 0.0000                 0.0000
 Depolar     --     0.0000                 0.0000                 0.0000
 Atom AN      X      Y      Z        X      Y      Z        X      Y      Z
   1   6    -0.21   0.48   0.01     0.01   0.00   0.34    -0.56   0.10   0.02
   2   6     0.06  -0.00   0.39     0.49  -0.03  -0.38    -0.02  -0.29   0.00
   3   6    -0.25  -0.46   0.01     0.01   0.00   0.34     0.56   0.04  -0.02
   4   6     0.04  -0.00  -0.40    -0.51   0.02  -0.35    -0.01  -0.29   0.00
   5   6     0.36  -0.02  -0.01     0.00   0.00   0.05     0.02   0.44  -0.00
                      7                      8                      9
                        a                      a                      a 
 Frequencies --  1003.1395              1351.0051              1400.6701
 Red. masses --    12.0107                12.0107                12.0107
 Frc consts  --     0.0000                 0.0000                 0.0000
 IR Inten    --     1.8258                 0.8811                 0.0932
 Raman Activ --     0.0000                 0.0000                 0.0000
 Depolar     --     0.0000                 0.0000                 0.0000
 Atom AN      X      Y      Z        X      Y      Z        X      Y      Z
   1   6     0.04   0.54  -0.00     0.42   0.04  -0.01     0.06   0.46  -0.00
   2   6    -0.02  -0.28   0.00    -0.16   0.01   0.42     0.21  -0.01  -0.32
   3   6     0.02   0.54  -0.00     0.41  -0.08  -0.01     0.02  -0.46   0.00
   4   6    -0.01  -0.28   0.00    -0.18   0.01  -0.41     0.23  -0.01   0.31
   5   6    -0.03  -0.51   0.00    -0.49   0.02   0.01    -0.52   0.03   0.01
