5
 energy: -10.143585093023 gnorm: 0.158207416179 xtb: 6.2.2 (9d81278992624c895f80dd42a50cac0aa55982e2)
C         0.06776800000000   -1.01545300000000    0.00028800000000
C        -0.73620900000000    0.03991800000000    0.74095000000000
C         0.16976600000000    1.00342800000000   -0.00712900000000
C        -0.77784300000000    0.03672700000000   -0.69729600000000
C         1.27651700000000   -0.06462000000000   -0.03681200000000
5
 energy: -10.165375216278 gnorm: 0.076363919922 xtb: 6.2.2 (9d81278992624c895f80dd42a50cac0aa55982e2)
C         0.10108722927753   -0.95561979483499   -0.00080924711017
C        -0.75448336688947    0.04089018592714    0.75396426596714
C         0.19688307397466    0.94053490019436   -0.00777454727238
C        -0.79683832762356    0.03764266309815   -0.70923522018973
C         1.25335039126084   -0.06344795438466   -0.03614425139486
5
 energy: -10.169040793434 gnorm: 0.040693308222 xtb: 6.2.2 (9d81278992624c895f80dd42a50cac0aa55982e2)
C         0.12928613317625   -0.90703362034063   -0.00173450870035
C        -0.76489602334497    0.04145705202832    0.76417059679880
C         0.22003835744755    0.88934690937087   -0.00833040005570
C        -0.80782140254042    0.03816157809838   -0.71882361859168
C         1.22339193526159   -0.06193191915694   -0.03528106945107
5
 energy: -10.169910125567 gnorm: 0.005992916177 xtb: 6.2.2 (9d81278992624c895f80dd42a50cac0aa55982e2)
C         0.11911944304280   -0.91994513919435   -0.00141247675573
C        -0.76248980445413    0.04133087122387    0.76263123364739
C         0.21122448797301    0.90322139259093   -0.00810460717865
C        -0.80532972001193    0.03803886349903   -0.71742550868274
C         1.23747459345025   -0.06264598811949   -0.03568764103027
5
 energy: -10.169936928573 gnorm: 0.002134316963 xtb: 6.2.2 (9d81278992624c895f80dd42a50cac0aa55982e2)
C         0.11947318273298   -0.91773017964562   -0.00142975732057
C        -0.76209591334199    0.04131683734576    0.76383272274039
C         0.21135125858810    0.90098855446006   -0.00810165720233
C        -0.80500948723276    0.03801424809294   -0.71864845740979
C         1.23627995925366   -0.06258946025314   -0.03565185080770
5
 energy: -10.169943048512 gnorm: 0.001184238917 xtb: 6.2.2 (9d81278992624c895f80dd42a50cac0aa55982e2)
C         0.11897874843721   -0.91675949487606   -0.00142159503078
C        -0.76147839574246    0.04129635434059    0.76490608092325
C         0.21076341759088    0.90006681209321   -0.00807865996870
C        -0.80445391782383    0.03797769672305   -0.71975500101167
C         1.23618914753820   -0.06258136828079   -0.03564982491211
5
 energy: -10.169944697641 gnorm: 0.000371454350 xtb: 6.2.2 (9d81278992624c895f80dd42a50cac0aa55982e2)
C         0.11815095867795   -0.91629739058753   -0.00141126036370
C        -0.76077313994480    0.04128140986694    0.76599412701141
C         0.20989481653469    0.89968371193386   -0.00804388058241
C        -0.80383295376680    0.03792876004413   -0.72088567598593
C         1.23655931849897   -0.06259649125740   -0.03565231007937
