 Entering Gaussian System
 *********************************************
 Gaussian 98:
 frequency output generated by the xtb code
 *********************************************
                         Standard orientation:
 --------------------------------------------------------------------
  Center     Atomic     Atomic              Coordinates (Angstroms)
  Number     Number      Type              X           Y           Z
 --------------------------------------------------------------------
    1          6             0       -0.384960   -0.118238   -0.013101
    2          7             0        0.898614   -0.310430    0.084736
    3          7             0       -1.025051    0.972060   -0.080042
    4          1             0       -0.980985   -1.049073    0.025320
    5          1             0        1.492382    0.505681   -0.016914
 --------------------------------------------------------------------
     1 basis functions        1 primitive gaussians
     1 alpha electrons        1 beta electrons

 Harmonic frequencies (cm**-1), IR intensities (KM/Mole),
 Raman scattering activities (A**4/amu), Raman depolarization ratios,
 reduced masses (AMU), force constants (mDyne/A) and normal coordinates:
                      1                      2                      3
                        a                      a                      a 
 Frequencies --    92.6926               299.3119               857.1864
 Red. masses --     6.0137                10.9635                 3.6737
 Frc consts  --     0.0000                 0.0000                 0.0000
 IR Inten    --     0.9044                 0.1610                 0.0676
 Raman Activ --     0.0000                 0.0000                 0.0000
 Depolar     --     0.0000                 0.0000                 0.0000
 Atom AN      X      Y      Z        X      Y      Z        X      Y      Z
   1   6    -0.04  -0.03   0.46    -0.34  -0.49  -0.04     0.05  -0.03  -0.47
   2   7     0.01  -0.03  -0.40    -0.15   0.37   0.02    -0.03  -0.00   0.00
   3   7     0.04   0.02  -0.20     0.55   0.05   0.04    -0.01   0.00   0.12
   4   1    -0.00  -0.02  -0.06    -0.04  -0.14   0.01    -0.05   0.07   0.78
   5   1    -0.06   0.15   0.74    -0.28   0.27  -0.08    -0.01   0.05   0.38
                      4                      5                      6
                        a                      a                      a 
 Frequencies --   993.5807              1173.5688              1294.1130
 Red. masses --     4.0077                 3.2990                11.4522
 Frc consts  --     0.0000                 0.0000                 0.0000
 IR Inten    --     0.5896                 0.2338                 0.3011
 Raman Activ --     0.0000                 0.0000                 0.0000
 Depolar     --     0.0000                 0.0000                 0.0000
 Atom AN      X      Y      Z        X      Y      Z        X      Y      Z
   1   6    -0.10  -0.09   0.02     0.20  -0.07   0.04     0.47   0.29   0.03
   2   7    -0.28   0.33  -0.06    -0.11   0.22  -0.03    -0.64   0.01  -0.04
   3   7     0.13  -0.07   0.01     0.09  -0.26   0.01     0.22  -0.29   0.02
   4   1     0.21  -0.18   0.02    -0.74   0.48  -0.09     0.25  -0.04   0.00
   5   1     0.67  -0.48   0.11     0.13  -0.08   0.01    -0.28   0.08  -0.03
                      7                      8                      9
                        a                      a                      a 
 Frequencies --  1484.0622              2738.3996              3366.0571
 Red. masses --    12.7460                 1.6420                 1.8623
 Frc consts  --     0.0000                 0.0000                 0.0000
 IR Inten    --     0.5112                 0.0375                 0.0855
 Raman Activ --     0.0000                 0.0000                 0.0000
 Depolar     --     0.0000                 0.0000                 0.0000
 Atom AN      X      Y      Z        X      Y      Z        X      Y      Z
   1   6    -0.53   0.57  -0.05     0.14   0.19  -0.01    -0.01   0.01  -0.00
   2   7     0.19  -0.03   0.01     0.01   0.01  -0.00     0.17   0.19  -0.02
   3   7     0.30  -0.51   0.03    -0.00   0.03  -0.00    -0.00   0.00  -0.00
   4   1    -0.01   0.03   0.02    -0.52  -0.82   0.03     0.00  -0.01   0.00
   5   1     0.01   0.03   0.03     0.00   0.01   0.00    -0.59  -0.76   0.09
