      -----------------------------------------------------------      
     |                   =====================                   |     
     |                           x T B                           |     
     |                   =====================                   |     
     |                         S. Grimme                         |     
     |          Mulliken Center for Theoretical Chemistry        |     
     |                    University of Bonn                     |     
      -----------------------------------------------------------      

   * xtb version 6.2.2 (9d81278992624c895f80dd42a50cac0aa55982e2) compiled by '@Darwin' on 04/03/2020

   xtb is free software: you can redistribute it and/or modify it under
   the terms of the GNU Lesser General Public License as published by
   the Free Software Foundation, either version 3 of the License, or
   (at your option) any later version.
   
   xtb is distributed in the hope that it will be useful,
   but WITHOUT ANY WARRANTY; without even the implied warranty of
   MERCHANTABILITY or FITNESS FOR A PARTICULAR PURPOSE.  See the
   GNU Lesser General Public License for more details.
   
   Cite this work as:
   * S. Grimme, C. Bannwarth, P. Shushkov, J. Chem. Theory Comput., 2017,
     13, 1989-2009. DOI: 10.1021/acs.jctc.7b00118
   * C. Bannwarth, S. Ehlert and S. Grimme., J. Chem. Theory Comput., 2019,
     15, 1652-1671. DOI: 10.1021/acs.jctc.8b01176
   * P. Pracht, E. Caldeweyher, S. Ehlert, S. Grimme, ChemRxiv, 2019, preprint.
     DOI: 10.26434/chemrxiv.8326202.v1
   
   for DFT-D4:
   * E. Caldeweyher, C. Bannwarth and S. Grimme, J. Chem. Phys., 2017,
     147, 034112. DOI: 10.1063/1.4993215
   * E. Caldeweyher, S. Ehlert, A. Hansen, H. Neugebauer, S. Spicher,
     C. Bannwarth and S. Grimme, J. Chem. Phys., 2019, 150, 154122.
     DOI: 10.1063/1.5090222
   
   for sTDA-xTB:
   * S. Grimme and C. Bannwarth, J. Chem. Phys., 2016, 145, 054103.
     DOI: 10.1063/1.4959605
   
   in the mass-spec context:
   * V. Asgeirsson, C. Bauer and S. Grimme, Chem. Sci., 2017, 8, 4879.
     DOI: 10.1039/c7sc00601b
   
   for metadynamics refer to:
   * S. Grimme, J. Chem. Theory Comput., 2019, 155, 2847-2862
     DOI: 10.1021/acs.jctc.9b00143
   
   with help from (in alphabetical order)
   C. Bannwarth, F. Bohle, G. Brandenburg, E. Caldeweyher, M. Checinski,
   S. Dohm, S. Ehlert, S. Ehrlich, F. März, H. Neugebauer, J. Pisarek,
   P. Pracht, P. Shushkov, and S. Spicher.
   
 * started run on 2020/05/12 at 11:45:22.385     

           -------------------------------------------------
          |                Calculation Setup                |
           -------------------------------------------------

          program call               : xtb --input H2C1N2_7_S_2.input H2C1N2_7_S_2.xyz --ohess --molden --namespace H2C1N2_7_S_2 output.out
          calculation namespace      : H2C1N2_7_S_2
          coordinate file            : H2C1N2_7_S_2.xyz
          number of atoms            :                     5
          number of electrons        :                    16
          charge                     :                     0
          spin                       :                   1.0
          first test random number   :      0.11647852989097

   ID    Z sym.   atoms
    1    6 C      1
    2    7 N      2, 3
    3    1 H      4, 5

           -------------------------------------------------
          |                 G F N 2 - x T B                 |
           -------------------------------------------------

        Reference                      10.1021/acs.jctc.8b01176
      * Hamiltonian:
        H0-scaling (s, p, d)           1.850000    2.230000    2.230000
        zeta-weighting                 0.500000
      * Dispersion:
        s8                             2.700000
        a1                             0.520000
        a2                             5.000000
        s9                             5.000000
      * Repulsion:
        kExp                           1.500000    1.000000
        rExp                           1.000000
      * Coulomb:
        alpha                          2.000000
        third order                    shell-resolved
        anisotropic                    true
        a3                             3.000000
        a5                             4.000000
        cn-shift                       1.200000
        cn-exp                         4.000000
        max-rad                        5.000000


          ...................................................
          :                      SETUP                      :
          :.................................................:
          :  # basis functions                  14          :
          :  # atomic orbitals                  14          :
          :  # shells                            8          :
          :  # electrons                        16          :
          :  max. iterations                   250          :
          :  Hamiltonian                  GFN2-xTB          :
          :  restarted?                      false          :
          :  GBSA solvation                  false          :
          :  PC potential                    false          :
          :  electronic temp.          300.0000000     K    :
          :  accuracy                    1.0000000          :
          :  -> integral cutoff          0.2500000E+02      :
          :  -> integral neglect         0.1000000E-07      :
          :  -> SCF convergence          0.1000000E-05 Eh   :
          :  -> wf. convergence          0.1000000E-03 e    :
          :  Broyden damping             0.4000000          :
          ...................................................

 iter      E             dE          RMSdq      gap      omega  full diag
   1     -8.6850044 -0.868500E+01  0.633E+00    0.99       0.0  T
   2     -8.5362747  0.148730E+00  0.693E+00    2.20       1.0  T
   3     -8.7012505 -0.164976E+00  0.394E+00    1.35       1.0  T
   4     -8.7392632 -0.380127E-01  0.262E+00    1.28       1.0  T
   5     -8.7678372 -0.285740E-01  0.621E-01    1.56       1.0  T
   6     -8.7680821 -0.244925E-03  0.301E-01    1.56       1.0  T
   7     -8.7681963 -0.114192E-03  0.904E-02    1.58       1.0  T
   8     -8.7681994 -0.307998E-05  0.372E-02    1.58       1.2  T
   9     -8.7682029 -0.353185E-05  0.639E-03    1.58       7.0  T
  10     -8.7682029 -0.369572E-07  0.281E-03    1.58      15.9  T
  11     -8.7682030 -0.151132E-07  0.825E-04    1.58      54.2  T
  12     -8.7682030  0.606258E-09  0.593E-04    1.58      75.4  T

   *** convergence criteria satisfied after 12 iterations ***

         #    Occupation            Energy/Eh            Energy/eV
      -------------------------------------------------------------
         1        2.0000           -0.6659063             -18.1202
       ...           ...                  ...                  ...
         3        2.0000           -0.5781814             -15.7331
         4        2.0000           -0.5532363             -15.0543
         5        2.0000           -0.4851636             -13.2020
         6        2.0000           -0.4827735             -13.1369
         7        2.0000           -0.4323333             -11.7644
         8        1.0000           -0.4118579             -11.2072
         9        1.0000           -0.4007025             -10.9037 (HOMO)
        10                         -0.3426625              -9.3243 (LUMO)
        11                          0.0329229               0.8959
        12                          0.0618022               1.6817
        13                          0.0922861               2.5112
        14                          0.1444226               3.9299
      -------------------------------------------------------------
                  HL-Gap            0.0580400 Eh            1.5793 eV
             Fermi-level           -0.3968968 Eh          -10.8001 eV

 transition dipole moment (au) for excitation:           8           9
     X       Y       Z   
  -0.8208   0.3709  -0.2508  total (au/Debye):    0.935   2.377
 dE (eV)             :    0.304
 oscillator strength :  0.91946E-02

 SCC (total)                   0 d,  0 h,  0 min,  0.004 sec
 SCC setup                      ...        0 min,  0.000 sec (  2.349%)
 Dispersion                     ...        0 min,  0.000 sec (  0.471%)
 integral evaluation            ...        0 min,  0.001 sec ( 21.381%)
 zeroth order Hamiltonian       ...        0 min,  0.000 sec (  0.412%)
 iterations                     ...        0 min,  0.001 sec ( 32.088%)
 molecular gradient             ...        0 min,  0.001 sec ( 22.415%)
 printout                       ...        0 min,  0.001 sec ( 20.504%)

         :::::::::::::::::::::::::::::::::::::::::::::::::::::
         ::                     SUMMARY                     ::
         :::::::::::::::::::::::::::::::::::::::::::::::::::::
         :: total energy              -8.718168343043 Eh    ::
         :: gradient norm              0.238020774286 Eh/a0 ::
         :: HOMO-LUMO gap              1.579348174284 eV    ::
         ::.................................................::
         :: SCC energy                -8.768202958074 Eh    ::
         :: -> isotropic ES            0.014790396859 Eh    ::
         :: -> anisotropic ES          0.001039805588 Eh    ::
         :: -> anisotropic XC          0.015055887013 Eh    ::
         :: -> dispersion             -0.001393207093 Eh    ::
         :: repulsion energy           0.050034569572 Eh    ::
         :: add. restraining           0.000000000000 Eh    ::
         :::::::::::::::::::::::::::::::::::::::::::::::::::::

      ----------------------------------------------------------- 
     |                   =====================                   |
     |                        A N C O P T                        |
     |                   =====================                   |
     |               Approximate Normal Coordinate               |
     |                Rational Function Optimizer                |
      ----------------------------------------------------------- 

          ...................................................
          :                      SETUP                      :
          :.................................................:
          :   optimization level            normal          :
          :   max. optcycles                   200          :
          :   ANC micro-cycles                  20          :
          :   degrees of freedom                 9          :
          :.................................................:
          :   RF solver                   davidson          :
          :   write xtbopt.log                true          :
          :   linear?                        false          :
          :   energy convergence         0.5000000E-05 Eh   :
          :   grad. convergence          0.1000000E-02 Eh/α :
          :   maximium RF displ.         1.0000000          :
          :   Hlow (freq-cutoff)         0.1000000E-01      :
          :   Hmax (freq-cutoff)         5.0000000          :
          :   S6 in model hess.         20.0000000          :
          ...................................................

generating ANC from model Hessian ...
Using Lindh-Hessian (1995)
 Shifting diagonal of input Hessian by    0.0000000000000000     
 Lowest  eigenvalues of input Hessian
   -0.000000   -0.000000    0.000000    0.000000    0.000000    0.000000
    0.016794    0.043217    0.101116    0.117901    0.193310    0.609040
    0.954048    1.093664    1.257262
 Highest eigenvalues
    0.117901    0.193310    0.609040    0.954048    1.093664    1.257262


........................................................................
.............................. CYCLE    1 ..............................
........................................................................
   1     -8.7682030 -0.876820E+01  0.706E-05    1.58       0.0  T
   2     -8.7682030  0.187761E-11  0.471E-05    1.58     950.4  T
   3     -8.7682030 -0.786393E-11  0.283E-05    1.58    1581.2  T
     SCC iter.                  ...        0 min,  0.001 sec
     gradient                   ...        0 min,  0.001 sec
 * total energy  :    -8.7181683 Eh     change       -0.1721725E-08 Eh
   gradient norm :     0.2380197 Eh/α   predicted     0.0000000E+00 (-100.00%)
   displ. norm   :     0.4065217 α      lambda       -0.7521824E-01
   maximum displ.:     0.2425373 α      in ANC's #2, #6, #5, ...

........................................................................
.............................. CYCLE    2 ..............................
........................................................................
   1     -8.8514815 -0.885148E+01  0.170E+00    2.91       0.0  T
   2     -8.8480927  0.338878E-02  0.121E+00    2.76       1.0  T
   3     -8.8436626  0.443007E-02  0.140E+00    2.97       1.0  T
   4     -8.8529277 -0.926512E-02  0.216E-01    2.92       1.0  T
   5     -8.8531459 -0.218152E-03  0.852E-02    2.89       1.0  T
   6     -8.8531558 -0.992933E-05  0.483E-02    2.90       1.0  T
   7     -8.8531595 -0.366265E-05  0.962E-03    2.90       4.6  T
   8     -8.8531595 -0.602491E-07  0.209E-03    2.90      21.4  T
   9     -8.8531595 -0.215966E-08  0.465E-04    2.90      96.2  T
  10     -8.8531595 -0.744087E-09  0.110E-04    2.90     407.4  T
     SCC iter.                  ...        0 min,  0.001 sec
     gradient                   ...        0 min,  0.001 sec
 * total energy  :    -8.7763801 Eh     change       -0.5821174E-01 Eh
   gradient norm :     0.1413893 Eh/α   predicted    -0.4382440E-01 ( -24.72%)
   displ. norm   :     0.3760045 α      lambda       -0.4963894E-01
   maximum displ.:     0.2907650 α      in ANC's #6, #8, #1, ...

........................................................................
.............................. CYCLE    3 ..............................
........................................................................
   1     -8.9465709 -0.894657E+01  0.172E+00    4.88       0.0  T
   2     -8.9476665 -0.109562E-02  0.948E-01    4.72       1.0  T
   3     -8.9476494  0.171054E-04  0.385E-01    4.77       1.0  T
   4     -8.9477942 -0.144781E-03  0.126E-01    4.71       1.0  T
   5     -8.9478644 -0.702545E-04  0.715E-02    4.72       1.0  T
   6     -8.9478804 -0.159354E-04  0.140E-02    4.72       3.2  T
   7     -8.9478808 -0.437525E-06  0.241E-03    4.72      18.6  T
   8     -8.9478808 -0.799242E-08  0.932E-04    4.72      48.0  T
   9     -8.9478808 -0.227451E-08  0.148E-04    4.72     302.7  T
     SCC iter.                  ...        0 min,  0.001 sec
     gradient                   ...        0 min,  0.001 sec
 * total energy  :    -8.7735982 Eh     change        0.2781876E-02 Eh
   gradient norm :     0.2985305 Eh/α   predicted    -0.2832844E-01 (*******%)
   displ. norm   :     0.3399819 α      lambda       -0.6231756E-01
   maximum displ.:     0.2399949 α      in ANC's #2, #1, #4, ...

........................................................................
.............................. CYCLE    4 ..............................
........................................................................
   1     -8.8936738 -0.889367E+01  0.132E+00    3.64       0.0  T
   2     -8.8942856 -0.611801E-03  0.816E-01    3.79       1.0  T
   3     -8.8933781  0.907508E-03  0.549E-01    3.77       1.0  T
   4     -8.8941381 -0.759963E-03  0.390E-01    3.76       1.0  T
   5     -8.8949517 -0.813660E-03  0.532E-02    3.81       1.0  T
   6     -8.8949527 -0.948125E-06  0.133E-02    3.81       3.4  T
   7     -8.8949532 -0.493680E-06  0.498E-03    3.81       9.0  T
   8     -8.8949532 -0.260118E-07  0.118E-03    3.81      37.8  T
   9     -8.8949532 -0.673971E-09  0.223E-04    3.81     200.3  T
  10     -8.8949532 -0.241478E-10  0.564E-05    3.81     793.5  T
     SCC iter.                  ...        0 min,  0.001 sec
     gradient                   ...        0 min,  0.001 sec
 * total energy  :    -8.7966248 Eh     change       -0.2302660E-01 Eh
   gradient norm :     0.0532519 Eh/α   predicted    -0.3476035E-01 (  50.96%)
   displ. norm   :     0.1423023 α      lambda       -0.3089167E-02
   maximum displ.:     0.0930098 α      in ANC's #1, #2, #5, ...

........................................................................
.............................. CYCLE    5 ..............................
........................................................................
   1     -8.9036914 -0.890369E+01  0.401E-01    3.90       0.0  T
   2     -8.9037411 -0.497757E-04  0.198E-01    3.88       1.0  T
   3     -8.9037389  0.227217E-05  0.717E-02    3.89       1.0  T
   4     -8.9037433 -0.447948E-05  0.377E-02    3.88       1.2  T
   5     -8.9037463 -0.299414E-05  0.268E-02    3.88       1.7  T
   6     -8.9037505 -0.421556E-05  0.430E-03    3.88      10.4  T
   7     -8.9037505 -0.435455E-08  0.516E-04    3.88      86.6  T
   8     -8.9037505 -0.206677E-09  0.140E-04    3.88     318.7  T
     SCC iter.                  ...        0 min,  0.001 sec
     gradient                   ...        0 min,  0.001 sec
 * total energy  :    -8.7987799 Eh     change       -0.2155064E-02 Eh
   gradient norm :     0.0322676 Eh/α   predicted    -0.1575862E-02 ( -26.88%)
   displ. norm   :     0.0989169 α      lambda       -0.1932621E-02
   maximum displ.:     0.0637218 α      in ANC's #2, #6, #9, ...

........................................................................
.............................. CYCLE    6 ..............................
........................................................................
   1     -8.9143544 -0.891435E+01  0.344E-01    4.05       0.0  T
   2     -8.9143411  0.132609E-04  0.209E-01    4.04       1.0  T
   3     -8.9141512  0.189936E-03  0.222E-01    4.04       1.0  T
   4     -8.9144077 -0.256485E-03  0.490E-02    4.05       1.0  T
   5     -8.9144175 -0.977974E-05  0.984E-03    4.04       4.5  T
   6     -8.9144175 -0.478553E-07  0.249E-03    4.04      18.0  T
   7     -8.9144175 -0.499816E-08  0.520E-04    4.04      86.0  T
   8     -8.9144175 -0.617931E-09  0.154E-04    4.04     289.9  T
     SCC iter.                  ...        0 min,  0.001 sec
     gradient                   ...        0 min,  0.001 sec
 * total energy  :    -8.7999007 Eh     change       -0.1120875E-02 Eh
   gradient norm :     0.0150362 Eh/α   predicted    -0.9757670E-03 ( -12.95%)
   displ. norm   :     0.0844950 α      lambda       -0.4254178E-03
   maximum displ.:     0.0664178 α      in ANC's #2, #6, #1, ...

........................................................................
.............................. CYCLE    7 ..............................
........................................................................
   1     -8.9135669 -0.891357E+01  0.247E-01    4.04       0.0  T
   2     -8.9135731 -0.619698E-05  0.136E-01    4.04       1.0  T
   3     -8.9135431  0.300626E-04  0.736E-02    4.05       1.0  T
   4     -8.9135752 -0.321265E-04  0.195E-02    4.04       2.3  T
   5     -8.9135770 -0.178883E-05  0.469E-03    4.04       9.5  T
   6     -8.9135770 -0.337243E-07  0.221E-03    4.04      20.2  T
   7     -8.9135770 -0.361705E-08  0.306E-04    4.04     146.1  T
   8     -8.9135770 -0.332196E-10  0.411E-05    4.04    1088.8  T
     SCC iter.                  ...        0 min,  0.001 sec
     gradient                   ...        0 min,  0.001 sec
 * total energy  :    -8.8001393 Eh     change       -0.2385636E-03 Eh
   gradient norm :     0.0100866 Eh/α   predicted    -0.2142287E-03 ( -10.20%)
   displ. norm   :     0.0319222 α      lambda       -0.1867834E-03
   maximum displ.:     0.0187726 α      in ANC's #1, #8, #6, ...

........................................................................
.............................. CYCLE    8 ..............................
........................................................................
   1     -8.9156151 -0.891562E+01  0.127E-01    4.05       0.0  T
   2     -8.9156129  0.219912E-05  0.669E-02    4.05       1.0  T
   3     -8.9155841  0.287960E-04  0.906E-02    4.05       1.0  T
   4     -8.9156241 -0.400857E-04  0.134E-02    4.05       3.3  T
   5     -8.9156243 -0.148770E-06  0.560E-03    4.05       8.0  T
   6     -8.9156244 -0.641987E-07  0.159E-03    4.05      28.2  T
   7     -8.9156244 -0.136141E-08  0.401E-04    4.05     111.5  T
   8     -8.9156244 -0.136154E-09  0.549E-05    4.05     815.0  T
     SCC iter.                  ...        0 min,  0.001 sec
     gradient                   ...        0 min,  0.001 sec
 * total energy  :    -8.8002311 Eh     change       -0.9178892E-04 Eh
   gradient norm :     0.0053868 Eh/α   predicted    -0.9348687E-04 (   1.85%)
   displ. norm   :     0.0616823 α      lambda       -0.8619754E-04
   maximum displ.:     0.0542779 α      in ANC's #1, #2, #5, ...

........................................................................
.............................. CYCLE    9 ..............................
........................................................................
   1     -8.9151677 -0.891517E+01  0.187E-01    4.06       0.0  T
   2     -8.9151840 -0.163237E-04  0.756E-02    4.06       1.0  T
   3     -8.9151819  0.212963E-05  0.377E-02    4.06       1.2  T
   4     -8.9151778  0.411572E-05  0.357E-02    4.06       1.3  T
   5     -8.9151853 -0.750913E-05  0.508E-03    4.06       8.8  T
   6     -8.9151853 -0.863338E-07  0.181E-03    4.06      24.7  T
   7     -8.9151853 -0.846663E-09  0.286E-04    4.06     156.2  T
   8     -8.9151853 -0.252438E-10  0.414E-05    4.06    1079.2  T
     SCC iter.                  ...        0 min,  0.001 sec
     gradient                   ...        0 min,  0.001 sec
 * total energy  :    -8.8003214 Eh     change       -0.9026197E-04 Eh
   gradient norm :     0.0060240 Eh/α   predicted    -0.4326260E-04 ( -52.07%)
   displ. norm   :     0.0819015 α      lambda       -0.1458746E-03
   maximum displ.:     0.0769609 α      in ANC's #1, #2, #4, ...

........................................................................
.............................. CYCLE   10 ..............................
........................................................................
   1     -8.9152093 -0.891521E+01  0.290E-01    4.07       0.0  T
   2     -8.9152535 -0.441555E-04  0.108E-01    4.07       1.0  T
   3     -8.9152452  0.831697E-05  0.601E-02    4.07       1.0  T
   4     -8.9152411  0.406178E-05  0.543E-02    4.08       1.0  T
   5     -8.9152570 -0.159445E-04  0.362E-03    4.07      12.4  T
   6     -8.9152571 -0.360523E-08  0.181E-03    4.07      24.8  T
   7     -8.9152571 -0.465104E-08  0.382E-04    4.07     117.1  T
   8     -8.9152571 -0.451124E-10  0.869E-05    4.07     514.4  T
     SCC iter.                  ...        0 min,  0.001 sec
     gradient                   ...        0 min,  0.001 sec
 * total energy  :    -8.8005130 Eh     change       -0.1915995E-03 Eh
   gradient norm :     0.0079604 Eh/α   predicted    -0.7342779E-04 ( -61.68%)
   displ. norm   :     0.1375021 α      lambda       -0.3916519E-03
   maximum displ.:     0.1292983 α      in ANC's #1, #2, #4, ...

........................................................................
.............................. CYCLE   11 ..............................
........................................................................
   1     -8.9148033 -0.891480E+01  0.481E-01    4.11       0.0  T
   2     -8.9149167 -0.113389E-03  0.184E-01    4.11       1.0  T
   3     -8.9148603  0.563291E-04  0.129E-01    4.10       1.0  T
   4     -8.9149009 -0.405483E-04  0.870E-02    4.11       1.0  T
   5     -8.9149353 -0.344536E-04  0.719E-03    4.10       6.2  T
   6     -8.9149354 -0.810634E-07  0.371E-03    4.10      12.1  T
   7     -8.9149354 -0.984402E-08  0.684E-04    4.10      65.4  T
   8     -8.9149354 -0.164944E-09  0.218E-04    4.10     204.8  T
     SCC iter.                  ...        0 min,  0.001 sec
     gradient                   ...        0 min,  0.001 sec
 * total energy  :    -8.8010249 Eh     change       -0.5119189E-03 Eh
   gradient norm :     0.0111887 Eh/α   predicted    -0.1995297E-03 ( -61.02%)
   displ. norm   :     0.2080894 α      lambda       -0.9651016E-03
   maximum displ.:     0.1955220 α      in ANC's #1, #2, #4, ...

........................................................................
.............................. CYCLE   12 ..............................
........................................................................
   1     -8.9127638 -0.891276E+01  0.735E-01    4.17       0.0  T
   2     -8.9130068 -0.243023E-03  0.292E-01    4.18       1.0  T
   3     -8.9128499  0.156926E-03  0.223E-01    4.14       1.0  T
   4     -8.9129829 -0.133008E-03  0.147E-01    4.17       1.0  T
   5     -8.9130771 -0.942683E-04  0.207E-02    4.16       2.2  T
   6     -8.9130785 -0.141317E-05  0.626E-03    4.16       7.1  T
   7     -8.9130786 -0.180332E-07  0.121E-03    4.16      36.9  T
   8     -8.9130786 -0.703618E-09  0.459E-04    4.16      97.5  T
   9     -8.9130786 -0.136023E-09  0.772E-05    4.16     579.1  T
     SCC iter.                  ...        0 min,  0.001 sec
     gradient                   ...        0 min,  0.001 sec
 * total energy  :    -8.8020853 Eh     change       -0.1060453E-02 Eh
   gradient norm :     0.0192986 Eh/α   predicted    -0.5034458E-03 ( -52.53%)
   displ. norm   :     0.1781023 α      lambda       -0.1283297E-02
   maximum displ.:     0.1642464 α      in ANC's #1, #8, #4, ...

........................................................................
.............................. CYCLE   13 ..............................
........................................................................
   1     -8.9116179 -0.891162E+01  0.653E-01    4.22       0.0  T
   2     -8.9117988 -0.180935E-03  0.263E-01    4.24       1.0  T
   3     -8.9117018  0.970416E-04  0.205E-01    4.20       1.0  T
   4     -8.9117821 -0.803682E-04  0.139E-01    4.23       1.0  T
   5     -8.9118694 -0.872821E-04  0.232E-02    4.22       1.9  T
   6     -8.9118712 -0.183752E-05  0.573E-03    4.22       7.8  T
   7     -8.9118713 -0.962085E-08  0.115E-03    4.22      38.9  T
   8     -8.9118713 -0.638801E-09  0.368E-04    4.22     121.6  T
   9     -8.9118713 -0.664269E-10  0.807E-05    4.22     553.9  T
     SCC iter.                  ...        0 min,  0.001 sec
     gradient                   ...        0 min,  0.001 sec
 * total energy  :    -8.8032749 Eh     change       -0.1189586E-02 Eh
   gradient norm :     0.0253025 Eh/α   predicted    -0.6620003E-03 ( -44.35%)
   displ. norm   :     0.6148130 α      lambda       -0.6046955E-02
   maximum displ.:     0.5235940 α      in ANC's #1, #6, #8, ...

........................................................................
.............................. CYCLE   14 ..............................
........................................................................
   1     -8.8985352 -0.889854E+01  0.242E+00    4.43       0.0  T
   2     -8.8985928 -0.576323E-04  0.129E+00    4.56       1.0  T
   3     -8.8986715 -0.786917E-04  0.109E+00    4.32       1.0  T
   4     -8.9012714 -0.259983E-02  0.547E-01    4.45       1.0  T
   5     -8.9023967 -0.112534E-02  0.109E-01    4.42       1.0  T
   6     -8.9024233 -0.265578E-04  0.364E-02    4.41       1.2  T
   7     -8.9024234 -0.187140E-06  0.262E-02    4.41       1.7  T
   8     -8.9024242 -0.727490E-06  0.381E-03    4.41      11.7  T
   9     -8.9024242 -0.196559E-07  0.232E-03    4.41      19.3  T
  10     -8.9024242 -0.514288E-08  0.744E-04    4.41      60.1  T
  11     -8.9024242 -0.541711E-09  0.494E-05    4.41     905.3  T
     SCC iter.                  ...        0 min,  0.001 sec
     gradient                   ...        0 min,  0.001 sec
 * total energy  :    -8.8023323 Eh     change        0.9425928E-03 Eh
   gradient norm :     0.0751494 Eh/α   predicted    -0.4166317E-02 (-542.01%)
   displ. norm   :     0.3230386 α      lambda       -0.9574580E-02
   maximum displ.:     0.3011179 α      in ANC's #1, #4, #8, ...

........................................................................
.............................. CYCLE   15 ..............................
........................................................................
   1     -8.9199704 -0.891997E+01  0.152E+00    4.32       0.0  T
   2     -8.9211151 -0.114471E-02  0.628E-01    4.26       1.0  T
   3     -8.9210692  0.459422E-04  0.458E-01    4.38       1.0  T
   4     -8.9211535 -0.842576E-04  0.384E-01    4.30       1.0  T
   5     -8.9217351 -0.581678E-03  0.741E-02    4.33       1.0  T
   6     -8.9217471 -0.119232E-04  0.168E-02    4.34       2.7  T
   7     -8.9217472 -0.110812E-06  0.375E-03    4.34      11.9  T
   8     -8.9217472 -0.194691E-07  0.809E-04    4.34      55.3  T
   9     -8.9217472 -0.180272E-09  0.242E-04    4.34     184.7  T
     SCC iter.                  ...        0 min,  0.001 sec
     gradient                   ...        0 min,  0.001 sec
 * total energy  :    -8.8052896 Eh     change       -0.2957240E-02 Eh
   gradient norm :     0.0388149 Eh/α   predicted    -0.5286865E-02 (  78.78%)
   displ. norm   :     0.1930615 α      lambda       -0.4189250E-02
   maximum displ.:     0.1616836 α      in ANC's #2, #4, #1, ...

........................................................................
.............................. CYCLE   16 ..............................
........................................................................
   1     -8.9120467 -0.891205E+01  0.447E-01    4.36       0.0  T
   2     -8.9120283  0.184436E-04  0.293E-01    4.36       1.0  T
   3     -8.9117269  0.301388E-03  0.275E-01    4.32       1.0  T
   4     -8.9121298 -0.402913E-03  0.518E-02    4.34       1.0  T
   5     -8.9121359 -0.608977E-05  0.168E-02    4.34       2.7  T
   6     -8.9121362 -0.374747E-06  0.705E-03    4.34       6.3  T
   7     -8.9121363 -0.469140E-07  0.355E-03    4.34      12.6  T
   8     -8.9121363 -0.287111E-07  0.517E-04    4.34      86.5  T
   9     -8.9121363 -0.313939E-09  0.132E-04    4.34     337.6  T
     SCC iter.                  ...        0 min,  0.001 sec
     gradient                   ...        0 min,  0.001 sec
 * total energy  :    -8.8052474 Eh     change        0.4216131E-04 Eh
   gradient norm :     0.0284151 Eh/α   predicted    -0.2172698E-02 (*******%)
   displ. norm   :     0.1423286 α      lambda       -0.2669534E-02
   maximum displ.:     0.0875860 α      in ANC's #2, #1, #4, ...

........................................................................
.............................. CYCLE   17 ..............................
........................................................................
   1     -8.9159160 -0.891592E+01  0.572E-01    4.38       0.0  T
   2     -8.9159586 -0.425846E-04  0.299E-01    4.41       1.0  T
   3     -8.9159738 -0.152721E-04  0.233E-01    4.36       1.0  T
   4     -8.9160463 -0.724578E-04  0.137E-01    4.39       1.0  T
   5     -8.9161339 -0.875751E-04  0.208E-02    4.39       2.2  T
   6     -8.9161349 -0.100243E-05  0.794E-03    4.38       5.6  T
   7     -8.9161350 -0.773397E-07  0.112E-03    4.38      39.8  T
   8     -8.9161350 -0.438044E-09  0.435E-04    4.38     102.8  T
   9     -8.9161350 -0.111825E-09  0.115E-04    4.38     388.7  T
     SCC iter.                  ...        0 min,  0.001 sec
     gradient                   ...        0 min,  0.001 sec
 * total energy  :    -8.8069305 Eh     change       -0.1683146E-02 Eh
   gradient norm :     0.0156589 Eh/α   predicted    -0.1361806E-02 ( -19.09%)
   displ. norm   :     0.1059974 α      lambda       -0.6528192E-03
   maximum displ.:     0.0787658 α      in ANC's #1, #6, #8, ...

........................................................................
.............................. CYCLE   18 ..............................
........................................................................
   1     -8.9174418 -0.891744E+01  0.432E-01    4.44       0.0  T
   2     -8.9173747  0.671028E-04  0.301E-01    4.46       1.0  T
   3     -8.9174680 -0.932854E-04  0.194E-01    4.42       1.0  T
   4     -8.9175301 -0.620706E-04  0.105E-01    4.44       1.0  T
   5     -8.9175788 -0.486994E-04  0.162E-02    4.44       2.8  T
   6     -8.9175793 -0.558874E-06  0.602E-03    4.43       7.4  T
   7     -8.9175794 -0.621036E-07  0.111E-03    4.43      40.4  T
   8     -8.9175794 -0.616778E-09  0.299E-04    4.43     149.7  T
   9     -8.9175794 -0.318146E-10  0.605E-05    4.43     739.5  T
     SCC iter.                  ...        0 min,  0.001 sec
     gradient                   ...        0 min,  0.001 sec
 * total energy  :    -8.8073721 Eh     change       -0.4415886E-03 Eh
   gradient norm :     0.0185855 Eh/α   predicted    -0.3300772E-03 ( -25.25%)
   displ. norm   :     0.1030794 α      lambda       -0.5626875E-03
   maximum displ.:     0.0799881 α      in ANC's #1, #7, #8, ...

........................................................................
.............................. CYCLE   19 ..............................
........................................................................
   1     -8.9178599 -0.891786E+01  0.624E-01    4.48       0.0  T
   2     -8.9171518  0.708078E-03  0.675E-01    4.52       1.0  T
   3     -8.9181454 -0.993535E-03  0.213E-01    4.46       1.0  T
   4     -8.9182889 -0.143560E-03  0.916E-02    4.48       1.0  T
   5     -8.9183141 -0.251928E-04  0.231E-02    4.48       1.9  T
   6     -8.9183152 -0.107754E-05  0.504E-03    4.47       8.9  T
   7     -8.9183152 -0.187364E-07  0.223E-03    4.47      20.0  T
   8     -8.9183152 -0.211991E-08  0.394E-04    4.47     113.5  T
   9     -8.9183152 -0.901661E-10  0.528E-05    4.47     847.8  T
     SCC iter.                  ...        0 min,  0.001 sec
     gradient                   ...        0 min,  0.001 sec
 * total energy  :    -8.8077615 Eh     change       -0.3893403E-03 Eh
   gradient norm :     0.0127759 Eh/α   predicted    -0.2843331E-03 ( -26.97%)
   displ. norm   :     0.0880151 α      lambda       -0.4002000E-03
   maximum displ.:     0.0625505 α      in ANC's #1, #7, #8, ...

........................................................................
.............................. CYCLE   20 ..............................
........................................................................
   1     -8.9183825 -0.891838E+01  0.549E-01    4.52       0.0  T
   2     -8.9176622  0.720335E-03  0.709E-01    4.56       1.0  T
   3     -8.9186249 -0.962682E-03  0.176E-01    4.50       1.0  T
   4     -8.9186752 -0.503454E-04  0.108E-01    4.53       1.0  T
   5     -8.9187182 -0.429868E-04  0.248E-02    4.52       1.8  T
   6     -8.9187194 -0.114241E-05  0.796E-03    4.52       5.6  T
   7     -8.9187194 -0.827360E-07  0.254E-03    4.52      17.6  T
   8     -8.9187194 -0.614383E-08  0.582E-04    4.52      76.8  T
   9     -8.9187194 -0.132713E-09  0.112E-04    4.52     398.5  T
     SCC iter.                  ...        0 min,  0.001 sec
     gradient                   ...        0 min,  0.001 sec
 * total energy  :    -8.8080171 Eh     change       -0.2556412E-03 Eh
   gradient norm :     0.0064684 Eh/α   predicted    -0.2016496E-03 ( -21.12%)
   displ. norm   :     0.0519152 α      lambda       -0.1620163E-03
   maximum displ.:     0.0358928 α      in ANC's #1, #7, #9, ...
 * RMSD in coord.:     0.7786469 α      energy gain  -0.8984877E-01 Eh

generating ANC from model Hessian ...
Using Lindh-Hessian (1995)
 Shifting diagonal of input Hessian by    0.0000000000000000     
 Lowest  eigenvalues of input Hessian
   -0.000000   -0.000000   -0.000000    0.000000    0.000000    0.000000
    0.027783    0.085906    0.150865    0.205565    0.332034    0.753628
    1.047627    1.649231    2.242965
 Highest eigenvalues
    0.205565    0.332034    0.753628    1.047627    1.649231    2.242965


........................................................................
.............................. CYCLE   21 ..............................
........................................................................
   1     -8.9179431 -0.891794E+01  0.643E-01    4.55       0.0  T
   2     -8.9166985  0.124467E-02  0.951E-01    4.59       1.0  T
   3     -8.9183493 -0.165079E-02  0.164E-01    4.53       1.0  T
   4     -8.9184240 -0.747690E-04  0.839E-02    4.55       1.0  T
   5     -8.9184435 -0.194992E-04  0.341E-02    4.55       1.3  T
   6     -8.9184459 -0.235468E-05  0.119E-02    4.55       3.8  T
   7     -8.9184460 -0.144038E-06  0.330E-03    4.55      13.5  T
   8     -8.9184460 -0.109740E-07  0.129E-03    4.55      34.6  T
   9     -8.9184460 -0.182411E-08  0.271E-04    4.55     165.1  T
  10     -8.9184460 -0.146624E-09  0.127E-04    4.55     353.3  T
     SCC iter.                  ...        0 min,  0.001 sec
     gradient                   ...        0 min,  0.001 sec
 * total energy  :    -8.8081301 Eh     change       -0.1129809E-03 Eh
   gradient norm :     0.0055693 Eh/α   predicted     0.0000000E+00 (-100.00%)
   displ. norm   :     0.0453954 α      lambda       -0.1352526E-03
   maximum displ.:     0.0385296 α      in ANC's #1, #3, #2, ...

........................................................................
.............................. CYCLE   22 ..............................
........................................................................
   1     -8.9182078 -0.891821E+01  0.260E-01    4.57       0.0  T
   2     -8.9181590  0.488397E-04  0.248E-01    4.58       1.0  T
   3     -8.9182137 -0.547277E-04  0.151E-01    4.56       1.0  T
   4     -8.9182531 -0.393282E-04  0.534E-02    4.57       1.0  T
   5     -8.9182556 -0.253668E-05  0.294E-02    4.57       1.5  T
   6     -8.9182592 -0.363796E-05  0.359E-03    4.57      12.4  T
   7     -8.9182592 -0.102778E-07  0.164E-03    4.57      27.2  T
   8     -8.9182592 -0.281393E-08  0.487E-04    4.57      91.8  T
   9     -8.9182592 -0.261469E-09  0.942E-05    4.57     474.8  T
     SCC iter.                  ...        0 min,  0.001 sec
     gradient                   ...        0 min,  0.001 sec
 * total energy  :    -8.8081522 Eh     change       -0.2210641E-04 Eh
   gradient norm :     0.0034079 Eh/α   predicted    -0.6776663E-04 ( 206.55%)
   displ. norm   :     0.0387432 α      lambda       -0.1121093E-03
   maximum displ.:     0.0359330 α      in ANC's #1, #3, #4, ...

........................................................................
.............................. CYCLE   23 ..............................
........................................................................
   1     -8.9183742 -0.891837E+01  0.206E-01    4.58       0.0  T
   2     -8.9181625  0.211756E-03  0.358E-01    4.60       1.0  T
   3     -8.9184274 -0.264875E-03  0.664E-02    4.58       1.0  T
   4     -8.9184347 -0.733512E-05  0.272E-02    4.59       1.6  T
   5     -8.9184353 -0.571948E-06  0.695E-03    4.59       6.4  T
   6     -8.9184353 -0.871523E-07  0.126E-03    4.59      35.6  T
   7     -8.9184353  0.616291E-09  0.814E-04    4.59      55.0  T
   8     -8.9184353 -0.236534E-08  0.261E-04    4.59     171.1  T
     SCC iter.                  ...        0 min,  0.001 sec
     gradient                   ...        0 min,  0.001 sec
 * total energy  :    -8.8082296 Eh     change       -0.7740461E-04 Eh
   gradient norm :     0.0018135 Eh/α   predicted    -0.5613857E-04 ( -27.47%)
   displ. norm   :     0.0622882 α      lambda       -0.5696865E-04
   maximum displ.:     0.0452615 α      in ANC's #1, #3, #4, ...

........................................................................
.............................. CYCLE   24 ..............................
........................................................................
   1     -8.9176711 -0.891767E+01  0.699E-01    4.63       0.0  T
   2     -8.9162062  0.146487E-02  0.104E+00    4.67       1.0  T
   3     -8.9181184 -0.191220E-02  0.311E-01    4.61       1.0  T
   4     -8.9183438 -0.225334E-03  0.725E-02    4.63       1.0  T
   5     -8.9183399  0.381454E-05  0.762E-02    4.63       1.0  T
   6     -8.9183477 -0.773382E-05  0.106E-02    4.63       4.2  T
   7     -8.9183478 -0.118742E-06  0.372E-03    4.63      12.0  T
   8     -8.9183478 -0.182581E-07  0.127E-03    4.63      35.3  T
   9     -8.9183478 -0.475594E-08  0.394E-04    4.63     113.6  T
  10     -8.9183478 -0.183919E-09  0.127E-04    4.63     351.1  T
     SCC iter.                  ...        0 min,  0.001 sec
     gradient                   ...        0 min,  0.001 sec
 * total energy  :    -8.8082738 Eh     change       -0.4422758E-04 Eh
   gradient norm :     0.0023324 Eh/α   predicted    -0.2853295E-04 ( -35.49%)
   displ. norm   :     0.0173619 α      lambda       -0.1943061E-04
   maximum displ.:     0.0119711 α      in ANC's #3, #2, #1, ...

........................................................................
.............................. CYCLE   25 ..............................
........................................................................
   1     -8.9183508 -0.891835E+01  0.281E-01    4.64       0.0  T
   2     -8.9181324  0.218339E-03  0.417E-01    4.66       1.0  T
   3     -8.9184072 -0.274772E-03  0.148E-01    4.63       1.0  T
   4     -8.9184546 -0.474305E-04  0.231E-02    4.64       1.9  T
   5     -8.9184544  0.242650E-06  0.113E-02    4.64       4.0  T
   6     -8.9184546 -0.266636E-06  0.505E-03    4.64       8.9  T
   7     -8.9184547 -0.484977E-07  0.577E-04    4.64      77.5  T
   8     -8.9184547 -0.304397E-10  0.332E-04    4.64     134.6  T
     SCC iter.                  ...        0 min,  0.001 sec
     gradient                   ...        0 min,  0.001 sec
 * total energy  :    -8.8082902 Eh     change       -0.1637540E-04 Eh
   gradient norm :     0.0017308 Eh/α   predicted    -0.9720418E-05 ( -40.64%)
   displ. norm   :     0.0766577 α      lambda       -0.3767664E-04
   maximum displ.:     0.0474049 α      in ANC's #2, #3, #1, ...

........................................................................
.............................. CYCLE   26 ..............................
........................................................................
   1     -8.9154174 -0.891542E+01  0.142E+00    4.67       0.0  T
   2     -8.9136703  0.174714E-02  0.161E+00    4.73       1.0  T
   3     -8.9170969 -0.342660E-02  0.726E-01    4.64       1.0  T
   4     -8.9181937 -0.109685E-02  0.191E-01    4.67       1.0  T
   5     -8.9181053  0.883717E-04  0.292E-01    4.68       1.0  T
   6     -8.9182356 -0.130298E-03  0.710E-02    4.68       1.0  T
   7     -8.9182437 -0.802710E-05  0.294E-03    4.68      15.2  T
   8     -8.9182436  0.798111E-07  0.784E-03    4.68       5.7  T
   9     -8.9182437 -0.845998E-07  0.655E-04    4.68      68.2  T
  10     -8.9182437 -0.620068E-09  0.368E-04    4.68     121.4  T
     SCC iter.                  ...        0 min,  0.001 sec
     gradient                   ...        0 min,  0.001 sec
 * total energy  :    -8.8083169 Eh     change       -0.2673446E-04 Eh
   gradient norm :     0.0020160 Eh/α   predicted    -0.1888800E-04 ( -29.35%)
   displ. norm   :     0.0129659 α      lambda       -0.6579228E-05
   maximum displ.:     0.0086839 α      in ANC's #1, #2, #3, ...

........................................................................
.............................. CYCLE   27 ..............................
........................................................................
   1     -8.9183310 -0.891833E+01  0.181E-01    4.68       0.0  T
   2     -8.9182516  0.793215E-04  0.272E-01    4.69       1.0  T
   3     -8.9183574 -0.105771E-03  0.976E-02    4.68       1.0  T
   4     -8.9183765 -0.190999E-04  0.142E-02    4.68       3.1  T
   5     -8.9183761  0.439506E-06  0.110E-02    4.68       4.1  T
   6     -8.9183765 -0.469588E-06  0.255E-03    4.68      17.5  T
   7     -8.9183765 -0.113669E-07  0.543E-04    4.68      82.3  T
   8     -8.9183765 -0.302398E-09  0.201E-04    4.68     222.0  T
     SCC iter.                  ...        0 min,  0.001 sec
     gradient                   ...        0 min,  0.001 sec
 * total energy  :    -8.8083224 Eh     change       -0.5462247E-05 Eh
   gradient norm :     0.0012704 Eh/α   predicted    -0.3291546E-05 ( -39.74%)
   displ. norm   :     0.0555344 α      lambda       -0.1020809E-04
   maximum displ.:     0.0351112 α      in ANC's #1, #2, #3, ...

........................................................................
.............................. CYCLE   28 ..............................
........................................................................
   1     -8.9170651 -0.891707E+01  0.895E-01    4.70       0.0  T
   2     -8.9160822  0.982853E-03  0.116E+00    4.72       1.0  T
   3     -8.9178475 -0.176532E-02  0.426E-01    4.68       1.0  T
   4     -8.9181993 -0.351820E-03  0.692E-02    4.70       1.0  T
   5     -8.9181844  0.149194E-04  0.984E-02    4.70       1.0  T
   6     -8.9182015 -0.171092E-04  0.271E-02    4.70       1.6  T
   7     -8.9182027 -0.117332E-05  0.222E-03    4.70      20.1  T
   8     -8.9182027  0.501757E-08  0.290E-03    4.70      15.4  T
   9     -8.9182027 -0.112639E-07  0.604E-04    4.70      74.0  T
  10     -8.9182027 -0.592532E-09  0.264E-04    4.70     169.5  T
     SCC iter.                  ...        0 min,  0.001 sec
     gradient                   ...        0 min,  0.001 sec
 * total energy  :    -8.8083284 Eh     change       -0.5953980E-05 Eh
   gradient norm :     0.0014779 Eh/α   predicted    -0.5110964E-05 ( -14.16%)
   displ. norm   :     0.0032643 α      lambda       -0.1912060E-05
   maximum displ.:     0.0025468 α      in ANC's #1, #4, #3, ...

........................................................................
.............................. CYCLE   29 ..............................
........................................................................
   1     -8.9183321 -0.891833E+01  0.250E-02    4.69       0.0  T
   2     -8.9183315  0.642655E-06  0.288E-02    4.70       1.6  T
   3     -8.9183328 -0.130843E-05  0.881E-03    4.69       5.1  T
   4     -8.9183328 -0.774005E-08  0.783E-03    4.69       5.7  T
   5     -8.9183329 -0.790270E-07  0.154E-03    4.69      29.0  T
   6     -8.9183329 -0.490534E-08  0.854E-04    4.69      52.4  T
   7     -8.9183329 -0.196133E-08  0.236E-04    4.69     189.2  T
     SCC iter.                  ...        0 min,  0.000 sec
     gradient                   ...        0 min,  0.001 sec
 * total energy  :    -8.8083303 Eh     change       -0.1927806E-05 Eh
   gradient norm :     0.0007691 Eh/α   predicted    -0.9548819E-06 ( -50.47%)
   displ. norm   :     0.0222054 α      lambda       -0.2284045E-05
   maximum displ.:     0.0132114 α      in ANC's #3, #2, #1, ...

   *** GEOMETRY OPTIMIZATION CONVERGED AFTER 29 ITERATIONS ***

------------------------------------------------------------------------
 total energy gain   :        -0.0901619 Eh      -56.5775 kcal/mol
 total RMSD          :         0.8436840 a0        0.4465 Å
 total power (kW/mol):        -8.1627638 (step)-3440.7966 (real)
------------------------------------------------------------------------

 ANCopt (total)                0 d,  0 h,  0 min,  0.069 sec
 optimizer setup                ...        0 min,  0.000 sec (  0.146%)
 model hessian                  ...        0 min,  0.000 sec (  0.272%)
 ANC generation                 ...        0 min,  0.000 sec (  0.169%)
 coordinate transformation      ...        0 min,  0.000 sec (  0.115%)
 single point calculation       ...        0 min,  0.066 sec ( 95.485%)
 optimization log               ...        0 min,  0.001 sec (  1.233%)
 hessian update                 ...        0 min,  0.000 sec (  0.099%)
 rational function              ...        0 min,  0.001 sec (  1.045%)

================
 final structure:
================
5
 xtb: 6.2.2 (9d81278992624c895f80dd42a50cac0aa55982e2)
C        -0.38495894960582   -0.11824048065039   -0.01310233964724
N         0.89861515314047   -0.31042565790269    0.08473897777110
N        -1.02505622572007    0.97205450614157   -0.08004377482169
H        -0.98097960593456   -1.04907804397770    0.02531438817365
H         1.49237962811998    0.50568867638921   -0.01690825147581

 Bond Distances (Angstroems)
 ---------------------------
C1-N2=1.3016         C1-N3=1.2661         C1-H4=1.1060         N2-C1=1.3016         N2-H5=1.0144         N3-C1=1.2661         
H4-C1=1.1060         H5-N2=1.0144         
 C  H  Rav=1.1060 sigma=0.0000  Rmin=1.1060  Rmax=1.1060     1
 N  H  Rav=1.0144 sigma=0.0000  Rmin=1.0144  Rmax=1.0144     1
 N  C  Rav=1.2838 sigma=0.0177  Rmin=1.2661  Rmax=1.3016     2

 selected bond angles (degree)
 --------------------
N3-C1-N2=129.03                H4-C1-N2=113.86                H4-C1-N3=117.01                H5-N2-C1=116.80                

 selected dihedral angles (degree)
 ---------------------------------
H5-N2-C1-N3=351.74            H5-N2-C1-H4=175.43            
           -------------------------------------------------
          |                Final Singlepoint                |
           -------------------------------------------------

          ...................................................
          :                      SETUP                      :
          :.................................................:
          :  # basis functions                  14          :
          :  # atomic orbitals                  14          :
          :  # shells                            8          :
          :  # electrons                        16          :
          :  max. iterations                   250          :
          :  Hamiltonian                  GFN2-xTB          :
          :  restarted?                      false          :
          :  GBSA solvation                  false          :
          :  PC potential                    false          :
          :  electronic temp.          300.0000000     K    :
          :  accuracy                    1.0000000          :
          :  -> integral cutoff          0.2500000E+02      :
          :  -> integral neglect         0.1000000E-07      :
          :  -> SCF convergence          0.1000000E-05 Eh   :
          :  -> wf. convergence          0.1000000E-03 e    :
          :  Broyden damping             0.4000000          :
          ...................................................

 iter      E             dE          RMSdq      gap      omega  full diag
   1     -8.9183329 -0.891833E+01  0.940E-04    4.69       0.0  T
   2     -8.9183329  0.564887E-08  0.204E-03    4.69      21.9  T
   3     -8.9183329 -0.645753E-08  0.275E-04    4.69     162.9  T
   4     -8.9183329 -0.218495E-09  0.311E-05    4.69    1439.0  T

   *** convergence criteria satisfied after 4 iterations ***

         #    Occupation            Energy/Eh            Energy/eV
      -------------------------------------------------------------
         1        2.0000           -0.6864565             -18.6794
       ...           ...                  ...                  ...
         3        2.0000           -0.5954654             -16.2034
         4        2.0000           -0.5365415             -14.6000
         5        2.0000           -0.5282491             -14.3744
         6        2.0000           -0.4832049             -13.1487
         7        1.6810           -0.4229592             -11.5093
         8        1.3190           -0.4215180             -11.4701
         9        1.0000           -0.3994016             -10.8683 (HOMO)
        10                         -0.2268754              -6.1736 (LUMO)
        11                          0.0714583               1.9445
        12                          0.1900531               5.1716
        13                          0.3226984               8.7811
        14                          0.5555728              15.1179
      -------------------------------------------------------------
                  HL-Gap            0.1725262 Eh            4.6947 eV
             Fermi-level           -0.3676886 Eh          -10.0053 eV

 transition dipole moment (au) for excitation:           8           9
     X       Y       Z   
  -0.1550   0.0068  -0.0111  total (au/Debye):    0.156   0.395
 dE (eV)             :    0.602
 oscillator strength :  0.50461E-03

 SCC (total)                   0 d,  0 h,  0 min,  0.003 sec
 SCC setup                      ...        0 min,  0.000 sec (  1.937%)
 Dispersion                     ...        0 min,  0.000 sec (  0.373%)
 integral evaluation            ...        0 min,  0.001 sec ( 28.621%)
 zeroth order Hamiltonian       ...        0 min,  0.000 sec (  0.418%)
 iterations                     ...        0 min,  0.000 sec ( 13.266%)
 molecular gradient             ...        0 min,  0.001 sec ( 29.225%)
 printout                       ...        0 min,  0.001 sec ( 25.715%)

         :::::::::::::::::::::::::::::::::::::::::::::::::::::
         ::                     SUMMARY                     ::
         :::::::::::::::::::::::::::::::::::::::::::::::::::::
         :: total energy              -8.808330286257 Eh    ::
         :: gradient norm              0.000770015905 Eh/a0 ::
         :: HOMO-LUMO gap              4.694677274598 eV    ::
         ::.................................................::
         :: SCC energy                -8.918332867182 Eh    ::
         :: -> isotropic ES            0.013704965673 Eh    ::
         :: -> anisotropic ES          0.000183642325 Eh    ::
         :: -> anisotropic XC          0.013489779182 Eh    ::
         :: -> dispersion             -0.001407339631 Eh    ::
         :: repulsion energy           0.110002547411 Eh    ::
         :: add. restraining           0.000000000000 Eh    ::
         :::::::::::::::::::::::::::::::::::::::::::::::::::::

           ------------------------------------------------- 
          |                Numerical Hessian                |
           ------------------------------------------------- 
step length          :   0.00500
SCC accuracy         :   0.30000
Hessian scale factor :   1.00000
frozen atoms in %    :   0.00000    0
RMS gradient         :   0.00077
estimated CPU  time      0.00 min
estimated wall time      0.00 min

writing file <hessian>.

 projected vibrational frequencies (cm-1)
eigval :       -0.00    -0.00     0.00     0.00     0.00     0.00
eigval :       92.69   299.31   857.19   993.58  1173.57  1294.11
eigval :     1484.06  2738.40  3366.06
           -------------------------------------------------
          |                Property Printout                |
           -------------------------------------------------

    * Orbital Energies and Occupations

         #    Occupation            Energy/Eh            Energy/eV
      -------------------------------------------------------------
         1        2.0000           -0.6864565             -18.6794
         2        2.0000           -0.6450786             -17.5535
         3        2.0000           -0.5954653             -16.2034
         4        2.0000           -0.5365414             -14.6000
         5        2.0000           -0.5282491             -14.3744
         6        2.0000           -0.4832049             -13.1487
         7        1.6810           -0.4229591             -11.5093
         8        1.3190           -0.4215181             -11.4701
         9        1.0000           -0.3994016             -10.8683 (HOMO)
        10                         -0.2268753              -6.1736 (LUMO)
        11                          0.0714583               1.9445
        12                          0.1900531               5.1716
        13                          0.3226985               8.7811
        14                          0.5555729              15.1179
      -------------------------------------------------------------
                  HL-Gap            0.1725263 Eh            4.6947 eV
             Fermi-level           -0.3676885 Eh          -10.0053 eV

     #   Z        covCN         q      C6AA      α(0)
     1   6 C      2.743     0.174    24.243     8.062
     2   7 N      1.779    -0.244    27.200     7.724
     3   7 N      0.919    -0.221    25.782     7.339
     4   1 H      0.922     0.107     1.726     2.055
     5   1 H      0.860     0.185     1.187     1.706

 Mol. C6AA /au·bohr⁶  :        309.646136
 Mol. C8AA /au·bohr⁸  :       6901.401379
 Mol. α(0) /au        :         26.886067


Wiberg/Mayer (AO) data.
largest (>0.10) Wiberg bond orders for each atom
          total WBO             WBO to atom ...
     1  C   3.914        N    3 1.628    N    2 1.454    H    4 0.830
     2  N   2.455        C    1 1.454    H    5 0.925
     3  N   1.713        C    1 1.628
     4  H   0.856        C    1 0.830
     5  H   0.943        N    2 0.925

MOs/occ written to file <molden.input>


molecular dipole:
                 x           y           z       tot (Debye)
 q only:        0.210      -0.336      -0.011
   full:        0.265      -0.378      -0.060       1.183
molecular quadrupole (traceless):
                xx          xy          yy          xz          yz          zz
 q only:        0.516       2.923      -0.425      -0.231       0.104      -0.091
  q+dip:        0.469       5.196      -0.337      -0.456       0.140      -0.132
   full:        0.246       5.475      -1.034      -0.516       0.270       0.788
Molecule has no symmetry elements
It seems to be the C1 point group

           -------------------------------------------------
          |                Geometry Summary                 |
           -------------------------------------------------

      molecular mass/u    :       42.0400238
   center of mass at/Å    :       -0.1398468       0.1736300      -0.0019773
  moments of inertia/u·Å² :        0.6134999E+01   0.3912150E+02   0.4523508E+02
rotational constants/cm⁻¹ :        0.2747781E+01   0.4309045E+00   0.3726673E+00

 * 2 selected distances

     #   Z        #   Z                                     value/Å
     1   6 C      2   7 N                                 1.3015647 (max)
     1   6 C      3   7 N                                 1.2660762 (min)

 * 1 distinct bonds (by element types)

   Z      Z             #   av. dist./Å        max./Å        min./Å
   6 C    7 N           2     1.2838204     1.3015647     1.2660762

           -------------------------------------------------
          |               Frequency Printout                |
           -------------------------------------------------
 projected vibrational frequencies (cm-1)
eigval :       -0.00    -0.00     0.00     0.00     0.00     0.00
eigval :       92.69   299.31   857.19   993.58  1173.57  1294.11
eigval :     1484.06  2738.40  3366.06
 reduced masses (amu)
   1: 12.42   2: 10.87   3: 13.65   4: 12.89   5: 12.81   6:  7.83   7:  6.01   8: 10.96
   9:  3.67  10:  4.01  11:  3.30  12: 11.45  13: 12.75  14:  1.64  15:  1.86
 IR intensities (amu)
   1:  0.26   2:  0.04   3:  0.12   4:  0.11   5:  0.13   6:  0.48   7:  0.90   8:  0.16
   9:  0.07  10:  0.59  11:  0.23  12:  0.30  13:  0.51  14:  0.04  15:  0.09
 Raman intensities (amu)
   1:  0.00   2:  0.00   3:  0.00   4:  0.00   5:  0.00   6:  0.00   7:  0.00   8:  0.00
   9:  0.00  10:  0.00  11:  0.00  12:  0.00  13:  0.00  14:  0.00  15:  0.00
 output can be read by thermo (or use thermo option).
 writing <g98.out> molden fake output.
 recommended (thermochemical) frequency scaling factor: 1.0
           -------------------------------------------------
          |             Thermodynamic Functions             |
           -------------------------------------------------

c1  symmetry found (for desy threshold:  0.10E+00) used in thermo

          ...................................................
          :                      SETUP                      :
          :.................................................:
          :  # frequencies                           9      :
          :  # imaginary freq.                       0      :
          :  linear?                             false      :
          :  only rotor calc.                    false      :
          :  symmetry                               c1      :
          :  rotational number                       1      :
          :  scaling factor                  1.0000000      :
          :  rotor cutoff                   50.0000000 cm⁻¹ :
          :  imag. cutoff                  -20.0000000 cm⁻¹ :
          :.................................................:

    mode    ω/cm⁻¹     T·S(HO)/kcal·mol⁻¹    T·S(FR)/kcal·mol⁻¹   T·S(vib)
   ------------------------------------------------------------------------
       1     92.69    -0.00000 ( 92.19%)     0.00449 (  7.81%)     0.00035
       2    299.31    -0.00000 ( 99.92%)     0.01609 (  0.08%)     0.00001
   ------------------------------------------------------------------------

   temp. (K)  partition function   enthalpy   heat capacity  entropy
                                   cal/mol     cal/K/mol   cal/K/mol   J/K/mol
 298.15  VIB   3.74                  819.719      5.029      5.319
         ROT  0.796E+04              888.752      2.981     20.831
         INT  0.298E+05             1708.471      8.009     26.150
         TR   0.264E+27             1481.254      4.968     37.118
         TOT                        3189.7248    12.9776    63.2678   264.7125

   temp. (K)  partition function   enthalpy   heat capacity  entropy
                                   cal/mol     cal/K/mol   cal/K/mol   J/K/mol
 120.00  VIB   1.53                  154.440      2.552      2.148
         ROT  0.203E+04              357.707      2.981     18.118
         INT  0.312E+04              512.146      5.533     20.265
         TR   0.673E+26              596.178      4.968     32.599
         TOT                        1108.3243    10.5013    52.8643   221.1842

   temp. (K)  partition function   enthalpy   heat capacity  entropy
                                   cal/mol     cal/K/mol   cal/K/mol   J/K/mol
 100.00  VIB   1.38                  106.536      2.229      1.723
         ROT  0.155E+04              298.089      2.981     17.574
         INT  0.213E+04              404.625      5.210     19.297
         TR   0.512E+26              496.815      4.968     31.693
         TOT                         901.4401    10.1784    50.9905   213.3442

   temp. (K)  partition function   enthalpy   heat capacity  entropy
                                   cal/mol     cal/K/mol   cal/K/mol   J/K/mol
  80.00  VIB   1.24                   65.635      1.852      1.279
         ROT  0.111E+04              238.471      2.981     16.909
         INT  0.137E+04              304.106      4.833     18.188
         TR   0.367E+26              397.452      4.968     30.585
         TOT                         701.5578     9.8007    48.7739   204.0699

   temp. (K)  partition function   enthalpy   heat capacity  entropy
                                   cal/mol     cal/K/mol   cal/K/mol   J/K/mol
  60.00  VIB   1.12                   32.847      1.416      0.821
         ROT   719.                  178.853      2.981     16.052
         INT   806.                  211.700      4.397     16.873
         TR   0.238E+26              298.089      4.968     29.157
         TOT                         509.7893     9.3648    46.0296   192.5879

   temp. (K)  partition function   enthalpy   heat capacity  entropy
                                   cal/mol     cal/K/mol   cal/K/mol   J/K/mol
  40.00  VIB   1.04                    9.815      0.852      0.365
         ROT   391.                  119.236      2.981     14.843
         INT   406.                  129.050      3.833     15.208
         TR   0.130E+26              198.726      4.968     27.143
         TOT                         327.7763     8.8007    42.3515   177.1985

   temp. (K)  partition function   enthalpy   heat capacity  entropy
                                   cal/mol     cal/K/mol   cal/K/mol   J/K/mol
  20.00  VIB   1.00                    0.337      0.113      0.036
         ROT   138.                   59.618      2.981     12.777
         INT   138.                   59.955      3.093     12.813
         TR   0.458E+25               99.363      4.968     23.701
         TOT                         159.3180     8.0616    36.5141   152.7748

   temp. (K)  partition function   enthalpy   heat capacity  entropy
                                   cal/mol     cal/K/mol   cal/K/mol   J/K/mol
  10.00  VIB   1.00                    0.000      0.001     -0.036
         ROT   48.9                   29.809      2.981     10.711
         INT   48.9                   29.809      2.981     10.674
         TR   0.162E+25               49.681      4.968     20.259
         TOT                          79.4908     7.9496    30.9337   129.4268

       T/K    H(0)-H(T)+PV         H(T)/Eh          T*S/Eh         G(T)/Eh
   ------------------------------------------------------------------------
    298.15    0.508315E-02    0.331023E-01    0.300606E-01    0.304170E-02
    120.00    0.176623E-02    0.297853E-01    0.101094E-01    0.196760E-01
    100.00    0.143654E-02    0.294557E-01    0.812585E-02    0.213298E-01
     80.00    0.111800E-02    0.291371E-01    0.621809E-02    0.229190E-01
     60.00    0.812401E-03    0.288315E-01    0.440117E-02    0.244303E-01
     40.00    0.522345E-03    0.285415E-01    0.269965E-02    0.258418E-01
     20.00    0.253889E-03    0.282730E-01    0.116378E-02    0.271092E-01
     10.00    0.126677E-03    0.281458E-01    0.492960E-03    0.276528E-01 (used)
   ------------------------------------------------------------------------

         :::::::::::::::::::::::::::::::::::::::::::::::::::::
         ::                  THERMODYNAMIC                  ::
         :::::::::::::::::::::::::::::::::::::::::::::::::::::
         :: total free energy          -8.780677449678 Eh   ::
         ::.................................................::
         :: total energy               -8.808330286327 Eh   ::
         :: zero point energy           0.028019120436 Eh   ::
         :: G(RRHO) w/o ZPVE           -0.000366283786 Eh   ::
         :: G(RRHO) contrib.            0.027652836650 Eh   ::
         :::::::::::::::::::::::::::::::::::::::::::::::::::::

optimized geometry written to: xtbopt.xyz


           -------------------------------------------------
          | TOTAL ENERGY               -8.808330286327 Eh   |
          | TOTAL ENTHALPY             -8.780184489194 Eh   |
          | TOTAL FREE ENERGY          -8.780677449678 Eh   |
          | GRADIENT NORM               0.000769833386 Eh/α |
          | HOMO-LUMO GAP               4.694679246834 eV   |
           -------------------------------------------------

------------------------------------------------------------------------
 * finished run on 2020/05/12 at 11:45:22.547     
------------------------------------------------------------------------
 total:
 * wall-time:     0 d,  0 h,  0 min,  0.161 sec
 *  cpu-time:     0 d,  0 h,  0 min,  0.159 sec
 * ratio c/w:     0.987 speedup
 SCF:
 * wall-time:     0 d,  0 h,  0 min,  0.004 sec
 *  cpu-time:     0 d,  0 h,  0 min,  0.004 sec
 * ratio c/w:     1.000 speedup
 ANC optimizer:
 * wall-time:     0 d,  0 h,  0 min,  0.073 sec
 *  cpu-time:     0 d,  0 h,  0 min,  0.072 sec
 * ratio c/w:     0.995 speedup
 numerical hessian:
 * wall-time:     0 d,  0 h,  0 min,  0.065 sec
 *  cpu-time:     0 d,  0 h,  0 min,  0.064 sec
 * ratio c/w:     0.991 speedup

