[Molden Format]
[Title]
[Atoms] AU
C      1     6 -0.72746817283702E+00 -0.22343833874475E+00 -0.24756901909081E-01
N      2     7  0.16981338607317E+01 -0.58662803299603E+00  0.16012854143961E+00
N      3     7 -0.19370662591329E+01  0.18369265028647E+01 -0.15125724271488E+00
H      4     1 -0.18537928302218E+01 -0.19824602126385E+01  0.47847187206900E-01
H      5     1  0.28201934014436E+01  0.95559819178529E+00 -0.31963473745192E-01
[GTO]
           1 0
 s           4   1.0000000000000000     
   51.049363095579913      -0.16312063210127389     
   8.7911227406887544      -0.19911024581000730     
  0.70640422258929825       0.31882047753655751     
  0.26922813413411617       0.12706504184240380     
 p           4   1.0000000000000000     
   5.8263656140800002       0.73716451545209605     
   1.5106896018720002       0.68216371614850257     
  0.53256483288000001       0.35783053929253711     
  0.21202323690600003        5.3983030275847881E-002

           2 0
 s           4   1.0000000000000000     
   63.594024466941008      -0.19234388414721629     
   10.951417231523665      -0.23478107924953728     
  0.87999310257376984       0.37593753901700888     
  0.33538715296521110       0.14982889271862770     
 p           4   1.0000000000000000     
   7.2965040481495080       0.97658666315667420     
   1.8918745450712575       0.90372226730345739     
  0.66694432110824120       0.47404958461536373     
  0.26552202674130870        7.1516067715011844E-002

           3 0
 s           4   1.0000000000000000     
   63.594024466941008      -0.19234388414721629     
   10.951417231523665      -0.23478107924953728     
  0.87999310257376984       0.37593753901700888     
  0.33538715296521110       0.14982889271862770     
 p           4   1.0000000000000000     
   7.2965040481495080       0.97658666315667420     
   1.8918745450712575       0.90372226730345739     
  0.66694432110824120       0.47404958461536373     
  0.26552202674130870        7.1516067715011844E-002

           4 0
 s           3   1.0000000000000000     
   3.3702276975336001       0.27359110588908298     
  0.61389118221497996       0.26460540653860526     
  0.16614291148415999        8.2465947534082318E-002

           5 0
 s           3   1.0000000000000000     
   3.3702276975336001       0.27359110588908298     
  0.61389118221497996       0.26460540653860526     
  0.16614291148415999        8.2465947534082318E-002

[MO]
Sym=     1a
Ene=  -0.68645645421779111     
Spin= Alpha
Occup=     2.00000000
           1  0.50849359463641353     
           2   8.3395421069525522E-002
           3   9.6639755802448435E-002
           4   4.2418041119735477E-003
           5  0.33984981309737411     
           6 -0.19613506030137667     
           7   7.4253604767102618E-002
           8  -1.8747454085493973E-002
           9  0.29202327855911059     
          10  0.11850961503160741     
          11 -0.14092152246102221     
          12   1.2123410852027151E-002
          13   9.7769410658374689E-002
          14   6.8952001249603184E-002
Sym=     2a
Ene=  -0.64507857837224403     
Spin= Alpha
Occup=     2.00000000
           1   6.7787938284693358E-002
           2 -0.34863019561924885     
           3  0.21455740827565997     
           4  -2.4241404491437142E-002
           5 -0.46179389630295792     
           6   8.4852484923694224E-002
           7  -1.2813882242076455E-002
           8   1.7655832948031722E-002
           9  0.45895979621835292     
          10   2.7665215630738284E-002
          11 -0.15573613229726435     
          12   5.9506149997612286E-003
          13   2.6525096316460977E-002
          14 -0.11370597754342171     
Sym=     3a
Ene=  -0.59546528865291970     
Spin= Alpha
Occup=     2.00000000
           1  0.24219213979485193     
           2  -9.8100793782505358E-002
           3 -0.36290621069465090     
           4   2.1492572072097618E-002
           5 -0.17782058426612099     
           6 -0.25237382100632233     
           7 -0.26085821043105201     
           8   1.2173040372846392E-002
           9 -0.23758646315453699     
          10 -0.11623218763913976     
          11  -8.5331582593648592E-002
          12   5.9448165391768363E-003
          13  0.31436220619689831     
          14 -0.26482057889563126     
Sym=     4a
Ene=  -0.53654139986497784     
Spin= Alpha
Occup=     2.00000000
           1  -1.2442711882593094E-002
           2 -0.32660602983556908     
           3 -0.20544937646496553     
           4 -0.15497889167213935     
           5  0.23800308729646846     
           6  0.45457175268801464     
           7   1.5909142187944921E-002
           8 -0.12220105139362715     
           9  -8.1158263667499893E-003
          10 -0.24743644716074262     
          11 -0.14966249132041218     
          12 -0.10564974343421175     
          13  0.27839626556931263     
          14  0.32214368752776523     
Sym=     5a
Ene=  -0.52824906443021125     
Spin= Alpha
Occup=     2.00000000
           1  -2.2173874630401779E-002
           2 -0.11658150182460128     
           3  -1.8631039209046647E-002
           4  0.56231290833609282     
           5   9.0153026732874980E-002
           6  0.10408172483963044     
           7   4.9007730515471068E-002
           8  0.47842550615188700     
           9  -4.5238516945226631E-003
          10  -8.6274067139619076E-002
          11  -2.9608114264019578E-002
          12  0.41732811928643654     
          13   7.0093441060104691E-002
          14   8.0632294802507221E-002
Sym=     6a
Ene=  -0.48320489472173966     
Spin= Alpha
Occup=     2.00000000
           1  0.15198609170703301     
           2  -7.5692735183640572E-002
           3  0.11462967243056779     
           4  -1.3475144088849837E-002
           5 -0.32237729349189931     
           6  -1.6574567533126670E-002
           7  0.44134993863161343     
           8  -2.9904310884336979E-002
           9 -0.63390909681886265     
          10  0.28587423342070523     
          11 -0.38908674307546848     
          12   4.0998650109486598E-002
          13   3.9525381059443296E-002
          14  0.14236348346258659     
Sym=     7a
Ene=  -0.42295913245327232     
Spin= Alpha
Occup=     1.68101257
           1  -3.5605170074119703E-004
           2   6.8555979294388836E-002
           3 -0.19928816911455990     
           4   4.4900254306399316E-002
           5 -0.35553241208450870     
           6 -0.18489955225621785     
           7  0.53342480254476943     
           8 -0.31607071280478205     
           9  0.22133324942053259     
          10 -0.17562068551899315     
          11  0.44838978827926801     
          12  0.25205693222224074     
          13  0.24603810958506431     
          14  0.17817528677819186     
Sym=     8a
Ene=  -0.42151805268953713     
Spin= Alpha
Occup=     1.31898743
           1   1.5196480190156347E-003
           2   2.4639884025420715E-002
           3  -8.7630246143899193E-002
           4  -4.8978713262575177E-002
           5 -0.11779203379965288     
           6 -0.10699270226879477     
           7  0.30558567654259239     
           8  0.63917207655478248     
           9   7.8254366333057185E-002
          10  -6.0440957575121058E-002
          11  0.14977331836351335     
          12 -0.65509020105389160     
          13  0.11252604807382362     
          14   6.3711384937717025E-002
Sym=     9a
Ene=  -0.39940159167627143     
Spin= Alpha
Occup=     1.00000000
           1  -1.1854252699859789E-002
           2   9.8454144648960837E-002
           3   7.4845865761137387E-002
           4  -3.0746536342060736E-003
           5   3.6146317602693857E-002
           6 -0.25536600374065227     
           7  0.18461417856268025     
           8  -4.0848548333917940E-002
           9   1.4588904899655503E-002
          10 -0.79907440930904761     
          11 -0.45001995433253744     
          12  -6.3348700541019272E-003
          13 -0.30298989433974693     
          14  -4.8913085118388169E-002
Sym=    10a
Ene=  -0.22687530394018299     
Spin= Alpha
Occup=     0.00000000
           1  -2.2164068868898226E-002
           2  -4.1254273882952615E-002
           3   4.3718979604406884E-002
           4  0.85887926745338139     
           5  -2.5007665085509983E-002
           6   6.5649202018680164E-003
           7  -5.1099215578081947E-002
           8 -0.52571922440849195     
           9  -1.9520564819509036E-003
          10   3.1698954200935138E-002
          11  -3.6727160951149716E-002
          12 -0.60457395633752553     
          13   2.3067580020211123E-003
          14   2.9325351986688418E-002
Sym=    11a
Ene=    7.1458307590436504E-002
Spin= Alpha
Occup=     0.00000000
           1 -0.49760908714338270     
           2   6.2492654789543897E-002
           3  0.38661636052063447     
           4  -1.4200224144974589E-002
           5  0.65770476161466396     
           6  0.17913959569371740     
           7  0.51758776839454290     
           8  -8.6951592582746512E-002
           9  -3.1592910393497764E-002
          10  -5.6282912907044480E-003
          11  -5.0593332369109401E-002
          12  -2.9600234077062631E-004
          13  0.66553110028576401     
          14 -0.92696852102450888     
Sym=    12a
Ene=   0.19005313979269856     
Spin= Alpha
Occup=     0.00000000
           1  0.78052026420385834     
           2 -0.44529759258739426     
           3 -0.43664748884292848     
           4   3.3040483979658891E-002
           5  0.34781756875851183     
           6  0.38395642614696934     
           7  0.44139042666942957     
           8  -5.1421932662957560E-002
           9 -0.12544210111779791     
          10   5.8972429207468282E-003
          11  0.32351099668089295     
          12  -2.2634812263874652E-002
          13 -0.82558275704960660     
          14 -0.62475842509010238     
Sym=    13a
Ene=   0.32269845513442941     
Spin= Alpha
Occup=     0.00000000
           1  0.76718770905128875     
           2  0.66234207374521492     
           3  0.60311150794650037     
           4   2.5743049401316099E-002
           5 -0.48066166619661238     
           6  0.72442838516189534     
           7 -0.20338592642988756     
           8   4.9496897724390053E-002
           9 -0.35907684509901072     
          10 -0.45037986823725606     
          11  0.32000075530661554     
          12  -3.6222172984169569E-002
          13  0.32774997014229951     
          14 -0.11881870975141087     
Sym=    14a
Ene=   0.55557293218795223     
Spin= Alpha
Occup=     0.00000000
           1 -0.14291494781765909     
           2  0.89877581145409846     
           3 -0.83345289745794582     
           4   8.6663536783316786E-002
           5 -0.34236656700148216     
           6  0.61079079774414480     
           7  0.20145957011716675     
           8   2.0302986154115615E-002
           9  0.67653731353063540     
          10  0.30171143586233040     
          11 -0.68480414797631106     
          12   3.2653050883538391E-002
          13  -7.9603255501517214E-002
          14 -0.25218541573808090     
