      -----------------------------------------------------------      
     |                   =====================                   |     
     |                           x T B                           |     
     |                   =====================                   |     
     |                         S. Grimme                         |     
     |          Mulliken Center for Theoretical Chemistry        |     
     |                    University of Bonn                     |     
      -----------------------------------------------------------      

   * xtb version 6.2.2 (9d81278992624c895f80dd42a50cac0aa55982e2) compiled by '@Darwin' on 04/03/2020

   xtb is free software: you can redistribute it and/or modify it under
   the terms of the GNU Lesser General Public License as published by
   the Free Software Foundation, either version 3 of the License, or
   (at your option) any later version.
   
   xtb is distributed in the hope that it will be useful,
   but WITHOUT ANY WARRANTY; without even the implied warranty of
   MERCHANTABILITY or FITNESS FOR A PARTICULAR PURPOSE.  See the
   GNU Lesser General Public License for more details.
   
   Cite this work as:
   * S. Grimme, C. Bannwarth, P. Shushkov, J. Chem. Theory Comput., 2017,
     13, 1989-2009. DOI: 10.1021/acs.jctc.7b00118
   * C. Bannwarth, S. Ehlert and S. Grimme., J. Chem. Theory Comput., 2019,
     15, 1652-1671. DOI: 10.1021/acs.jctc.8b01176
   * P. Pracht, E. Caldeweyher, S. Ehlert, S. Grimme, ChemRxiv, 2019, preprint.
     DOI: 10.26434/chemrxiv.8326202.v1
   
   for DFT-D4:
   * E. Caldeweyher, C. Bannwarth and S. Grimme, J. Chem. Phys., 2017,
     147, 034112. DOI: 10.1063/1.4993215
   * E. Caldeweyher, S. Ehlert, A. Hansen, H. Neugebauer, S. Spicher,
     C. Bannwarth and S. Grimme, J. Chem. Phys., 2019, 150, 154122.
     DOI: 10.1063/1.5090222
   
   for sTDA-xTB:
   * S. Grimme and C. Bannwarth, J. Chem. Phys., 2016, 145, 054103.
     DOI: 10.1063/1.4959605
   
   in the mass-spec context:
   * V. Asgeirsson, C. Bauer and S. Grimme, Chem. Sci., 2017, 8, 4879.
     DOI: 10.1039/c7sc00601b
   
   for metadynamics refer to:
   * S. Grimme, J. Chem. Theory Comput., 2019, 155, 2847-2862
     DOI: 10.1021/acs.jctc.9b00143
   
   with help from (in alphabetical order)
   C. Bannwarth, F. Bohle, G. Brandenburg, E. Caldeweyher, M. Checinski,
   S. Dohm, S. Ehlert, S. Ehrlich, F. März, H. Neugebauer, J. Pisarek,
   P. Pracht, P. Shushkov, and S. Spicher.
   
 * started run on 2020/05/12 at 11:44:27.031     

           -------------------------------------------------
          |                Calculation Setup                |
           -------------------------------------------------

          program call               : xtb --input H2C3_4_S_2.input H2C3_4_S_2.xyz --ohess --molden --namespace H2C3_4_S_2 output.out
          calculation namespace      : H2C3_4_S_2
          coordinate file            : H2C3_4_S_2.xyz
          number of atoms            :                     5
          number of electrons        :                    14
          charge                     :                     0
          spin                       :                   1.0
          first test random number   :      0.25921778420556

   ID    Z sym.   atoms
    1    6 C      1-3
    2    1 H      4, 5

           -------------------------------------------------
          |                 G F N 2 - x T B                 |
           -------------------------------------------------

        Reference                      10.1021/acs.jctc.8b01176
      * Hamiltonian:
        H0-scaling (s, p, d)           1.850000    2.230000    2.230000
        zeta-weighting                 0.500000
      * Dispersion:
        s8                             2.700000
        a1                             0.520000
        a2                             5.000000
        s9                             5.000000
      * Repulsion:
        kExp                           1.500000    1.000000
        rExp                           1.000000
      * Coulomb:
        alpha                          2.000000
        third order                    shell-resolved
        anisotropic                    true
        a3                             3.000000
        a5                             4.000000
        cn-shift                       1.200000
        cn-exp                         4.000000
        max-rad                        5.000000


          ...................................................
          :                      SETUP                      :
          :.................................................:
          :  # basis functions                  14          :
          :  # atomic orbitals                  14          :
          :  # shells                            8          :
          :  # electrons                        14          :
          :  max. iterations                   250          :
          :  Hamiltonian                  GFN2-xTB          :
          :  restarted?                      false          :
          :  GBSA solvation                  false          :
          :  PC potential                    false          :
          :  electronic temp.          300.0000000     K    :
          :  accuracy                    1.0000000          :
          :  -> integral cutoff          0.2500000E+02      :
          :  -> integral neglect         0.1000000E-07      :
          :  -> SCF convergence          0.1000000E-05 Eh   :
          :  -> wf. convergence          0.1000000E-03 e    :
          :  Broyden damping             0.4000000          :
          ...................................................

 iter      E             dE          RMSdq      gap      omega  full diag
   1     -7.1565285 -0.715653E+01  0.800E+00    3.02       0.0  T
   2     -7.1603422 -0.381368E-02  0.460E+00    2.89       1.0  T
   3     -7.1518681  0.847409E-02  0.187E+00    2.91       1.0  T
   4     -7.1628455 -0.109774E-01  0.530E-01    2.82       1.0  T
   5     -7.1625780  0.267533E-03  0.614E-01    2.84       1.0  T
   6     -7.1499172  0.126608E-01  0.213E+00    2.80       1.0  T
   7     -7.1602625 -0.103453E-01  0.103E+00    2.82       1.0  T
   8     -7.1621325 -0.187004E-02  0.567E-01    2.83       1.0  T
   9     -7.1629518 -0.819252E-03  0.172E-01    2.84       1.0  T
  10     -7.1629876 -0.357909E-04  0.106E-01    2.84       1.0  T
  11     -7.1629999 -0.122731E-04  0.513E-02    2.84       1.0  T
  12     -7.1630009 -0.103560E-05  0.394E-02    2.84       1.1  T
  13     -7.1630027 -0.180792E-05  0.671E-03    2.84       6.7  T
  14     -7.1630028 -0.505030E-07  0.148E-03    2.84      30.2  T
  15     -7.1630028 -0.286580E-08  0.932E-05    2.84     479.7  T
  16     -7.1630028  0.392131E-11  0.825E-05    2.84     541.9  T

   *** convergence criteria satisfied after 16 iterations ***

         #    Occupation            Energy/Eh            Energy/eV
      -------------------------------------------------------------
         1        2.0000           -0.6754738             -18.3806
         2        2.0000           -0.5818799             -15.8338
         3        2.0000           -0.5446418             -14.8205
         4        2.0000           -0.5351012             -14.5608
         5        2.0000           -0.4640489             -12.6274
         6        1.8869           -0.4096565             -11.1473
         7        1.1131           -0.4057437             -11.0408
         8        1.0000           -0.3947234             -10.7410 (HOMO)
         9                         -0.2902659              -7.8985 (LUMO)
        10                         -0.0894872              -2.4351
        11                          0.0603261               1.6416
        12                          0.1565192               4.2591
        13                          0.1810984               4.9279
        14                          0.2336519               6.3580
      -------------------------------------------------------------
                  HL-Gap            0.1044575 Eh            2.8424 eV
             Fermi-level           -0.3750974 Eh          -10.2069 eV

 transition dipole moment (au) for excitation:           7           8
     X       Y       Z   
   0.0001  -0.2340  -0.0279  total (au/Debye):    0.236   0.599
 dE (eV)             :    0.300
 oscillator strength :  0.57701E-03

 SCC (total)                   0 d,  0 h,  0 min,  0.003 sec
 SCC setup                      ...        0 min,  0.000 sec (  2.534%)
 Dispersion                     ...        0 min,  0.000 sec (  0.414%)
 integral evaluation            ...        0 min,  0.001 sec ( 20.437%)
 zeroth order Hamiltonian       ...        0 min,  0.000 sec (  0.442%)
 iterations                     ...        0 min,  0.001 sec ( 37.840%)
 molecular gradient             ...        0 min,  0.001 sec ( 20.851%)
 printout                       ...        0 min,  0.001 sec ( 17.221%)

         :::::::::::::::::::::::::::::::::::::::::::::::::::::
         ::                     SUMMARY                     ::
         :::::::::::::::::::::::::::::::::::::::::::::::::::::
         :: total energy              -7.089353035255 Eh    ::
         :: gradient norm              0.113966361992 Eh/a0 ::
         :: HOMO-LUMO gap              2.842433256421 eV    ::
         ::.................................................::
         :: SCC energy                -7.163002753357 Eh    ::
         :: -> isotropic ES           -0.010614650144 Eh    ::
         :: -> anisotropic ES         -0.000192722975 Eh    ::
         :: -> anisotropic XC          0.006573985567 Eh    ::
         :: -> dispersion             -0.001490919976 Eh    ::
         :: repulsion energy           0.073649688769 Eh    ::
         :: add. restraining           0.000000000000 Eh    ::
         :::::::::::::::::::::::::::::::::::::::::::::::::::::

      ----------------------------------------------------------- 
     |                   =====================                   |
     |                        A N C O P T                        |
     |                   =====================                   |
     |               Approximate Normal Coordinate               |
     |                Rational Function Optimizer                |
      ----------------------------------------------------------- 

          ...................................................
          :                      SETUP                      :
          :.................................................:
          :   optimization level            normal          :
          :   max. optcycles                   200          :
          :   ANC micro-cycles                  20          :
          :   degrees of freedom                 9          :
          :.................................................:
          :   RF solver                   davidson          :
          :   write xtbopt.log                true          :
          :   linear?                        false          :
          :   energy convergence         0.5000000E-05 Eh   :
          :   grad. convergence          0.1000000E-02 Eh/α :
          :   maximium RF displ.         1.0000000          :
          :   Hlow (freq-cutoff)         0.1000000E-01      :
          :   Hmax (freq-cutoff)         5.0000000          :
          :   S6 in model hess.         20.0000000          :
          ...................................................

generating ANC from model Hessian ...
Using Lindh-Hessian (1995)
 Shifting diagonal of input Hessian by    0.0000000000000000     
 Lowest  eigenvalues of input Hessian
   -0.000000   -0.000000   -0.000000    0.000000    0.000000    0.000000
    0.056631    0.068702    0.120372    0.133744    0.362779    0.712513
    0.810700    1.135028    1.412734
 Highest eigenvalues
    0.133744    0.362779    0.712513    0.810700    1.135028    1.412734


........................................................................
.............................. CYCLE    1 ..............................
........................................................................
   1     -7.1630028 -0.716300E+01  0.484E-05    2.84       0.0  T
   2     -7.1630028  0.995737E-11  0.535E-05    2.84     836.6  T
   3     -7.1630028 -0.168310E-11  0.560E-05    2.84     798.2  T
     SCC iter.                  ...        0 min,  0.000 sec
     gradient                   ...        0 min,  0.001 sec
 * total energy  :    -7.0893530 Eh     change        0.1124691E-09 Eh
   gradient norm :     0.1139665 Eh/α   predicted     0.0000000E+00 (-100.00%)
   displ. norm   :     0.1968614 α      lambda       -0.1646051E-01
   maximum displ.:     0.1577365 α      in ANC's #4, #7, #9, ...

........................................................................
.............................. CYCLE    2 ..............................
........................................................................
   1     -7.1940170 -0.719402E+01  0.199E+00    3.47       0.0  T
   2     -7.1937455  0.271521E-03  0.701E-01    3.46       1.0  T
   3     -7.1908613  0.288416E-02  0.204E+00    3.44       1.0  T
   4     -7.1943250 -0.346365E-02  0.122E-01    3.43       1.0  T
   5     -7.1943251 -0.155559E-06  0.949E-02    3.43       1.0  T
   6     -7.1942010  0.124134E-03  0.178E-01    3.43       1.0  T
   7     -7.1943277 -0.126743E-03  0.944E-02    3.43       1.0  T
   8     -7.1943359 -0.814187E-05  0.192E-02    3.43       2.3  T
   9     -7.1943361 -0.246057E-06  0.836E-03    3.43       5.3  T
  10     -7.1943361 -0.216472E-07  0.655E-04    3.43      68.2  T
  11     -7.1943361 -0.889777E-10  0.289E-04    3.43     154.9  T
     SCC iter.                  ...        0 min,  0.001 sec
     gradient                   ...        0 min,  0.001 sec
 * total energy  :    -7.1028878 Eh     change       -0.1353478E-01 Eh
   gradient norm :     0.0946968 Eh/α   predicted    -0.8549216E-02 ( -36.84%)
   displ. norm   :     0.5980338 α      lambda       -0.4829439E-01
   maximum displ.:     0.4233988 α      in ANC's #7, #4, #9, ...

........................................................................
.............................. CYCLE    3 ..............................
........................................................................
   1     -7.3369470 -0.733695E+01  0.552E+00    5.59       0.0  T
   2     -7.3387004 -0.175341E-02  0.323E+00    5.55       1.0  T
   3     -7.3367630  0.193740E-02  0.823E-01    5.49       1.0  T
   4     -7.3394123 -0.264925E-02  0.131E-01    5.49       1.0  T
   5     -7.3394107  0.161274E-05  0.373E-02    5.48       1.2  T
   6     -7.3394146 -0.394323E-05  0.111E-02    5.48       4.0  T
   7     -7.3394151 -0.540321E-06  0.314E-03    5.48      14.3  T
   8     -7.3394152 -0.489439E-07  0.107E-03    5.48      41.9  T
   9     -7.3394152 -0.246722E-08  0.243E-04    5.48     184.4  T
  10     -7.3394152 -0.211974E-09  0.263E-05    5.48    1698.1  T
     SCC iter.                  ...        0 min,  0.001 sec
     gradient                   ...        0 min,  0.001 sec
 * total energy  :    -7.0460522 Eh     change        0.5683564E-01 Eh
   gradient norm :     0.7221193 Eh/α   predicted    -0.3278331E-01 (-157.68%)
   displ. norm   :     0.3597994 α      lambda       -0.2495158E+00
   maximum displ.:     0.3170984 α      in ANC's #7, #9, #4, ...

........................................................................
.............................. CYCLE    4 ..............................
........................................................................
   1     -7.2233324 -0.722333E+01  0.269E+00    3.67       0.0  T
   2     -7.2234375 -0.105085E-03  0.158E+00    3.71       1.0  T
   3     -7.2234038  0.337026E-04  0.173E-01    3.76       1.0  T
   4     -7.2234975 -0.937002E-04  0.825E-02    3.76       1.0  T
   5     -7.2234971  0.343021E-06  0.257E-02    3.76       1.7  T
   6     -7.2234910  0.608430E-05  0.355E-02    3.76       1.3  T
   7     -7.2234996 -0.854234E-05  0.353E-03    3.76      12.7  T
   8     -7.2234996 -0.158321E-07  0.108E-03    3.77      41.5  T
   9     -7.2234996 -0.987255E-10  0.277E-05    3.77    1615.5  T
  10     -7.2234996 -0.602185E-12  0.139E-05    3.77    3212.8  T
     SCC iter.                  ...        0 min,  0.001 sec
     gradient                   ...        0 min,  0.001 sec
 * total energy  :    -7.1173517 Eh     change       -0.7129951E-01 Eh
   gradient norm :     0.1093833 Eh/α   predicted    -0.1409086E+00 (  97.63%)
   displ. norm   :     0.0939161 α      lambda       -0.6411846E-02
   maximum displ.:     0.0762585 α      in ANC's #4, #7, #5, ...

........................................................................
.............................. CYCLE    5 ..............................
........................................................................
   1     -7.2403914 -0.724039E+01  0.399E-01    3.94       0.0  T
   2     -7.2403995 -0.805193E-05  0.238E-01    3.94       1.0  T
   3     -7.2403930  0.642542E-05  0.463E-02    3.93       1.0  T
   4     -7.2404020 -0.894372E-05  0.154E-02    3.93       2.9  T
   5     -7.2404021 -0.163352E-06  0.398E-03    3.93      11.2  T
   6     -7.2404020  0.159022E-06  0.517E-03    3.93       8.6  T
   7     -7.2404022 -0.177082E-06  0.310E-04    3.93     144.1  T
   8     -7.2404022 -0.174661E-09  0.127E-04    3.93     353.5  T
     SCC iter.                  ...        0 min,  0.001 sec
     gradient                   ...        0 min,  0.001 sec
 * total energy  :    -7.1222998 Eh     change       -0.4948097E-02 Eh
   gradient norm :     0.0607784 Eh/α   predicted    -0.3234199E-02 ( -34.64%)
   displ. norm   :     0.0870783 α      lambda       -0.4380064E-02
   maximum displ.:     0.0607129 α      in ANC's #7, #5, #4, ...

........................................................................
.............................. CYCLE    6 ..............................
........................................................................
   1     -7.2578417 -0.725784E+01  0.557E-01    4.18       0.0  T
   2     -7.2578476 -0.588433E-05  0.325E-01    4.17       1.0  T
   3     -7.2578489 -0.129672E-05  0.220E-02    4.16       2.0  T
   4     -7.2578489 -0.789968E-07  0.617E-03    4.16       7.3  T
   5     -7.2578489  0.339819E-07  0.555E-03    4.16       8.1  T
   6     -7.2578491 -0.148719E-06  0.948E-04    4.16      47.2  T
   7     -7.2578491 -0.218466E-08  0.308E-04    4.16     145.0  T
     SCC iter.                  ...        0 min,  0.001 sec
     gradient                   ...        0 min,  0.001 sec
 * total energy  :    -7.1241198 Eh     change       -0.1819971E-02 Eh
   gradient norm :     0.0209392 Eh/α   predicted    -0.2206638E-02 (  21.25%)
   displ. norm   :     0.0130780 α      lambda       -0.2320049E-03
   maximum displ.:     0.0103002 α      in ANC's #7, #9, #4, ...

........................................................................
.............................. CYCLE    7 ..............................
........................................................................
   1     -7.2537992 -0.725380E+01  0.871E-02    4.11       0.0  T
   2     -7.2537993 -0.109974E-06  0.516E-02    4.11       1.0  T
   3     -7.2537994 -0.576287E-07  0.405E-03    4.11      11.0  T
   4     -7.2537993  0.259269E-07  0.231E-03    4.11      19.4  T
   5     -7.2537994 -0.239844E-07  0.109E-03    4.11      41.1  T
   6     -7.2537994 -0.537336E-08  0.396E-04    4.11     113.0  T
   7     -7.2537994 -0.544883E-09  0.552E-05    4.11     809.8  T
     SCC iter.                  ...        0 min,  0.000 sec
     gradient                   ...        0 min,  0.001 sec
 * total energy  :    -7.1242405 Eh     change       -0.1207345E-03 Eh
   gradient norm :     0.0045092 Eh/α   predicted    -0.1160241E-03 (  -3.90%)
   displ. norm   :     0.0057620 α      lambda       -0.2027428E-04
   maximum displ.:     0.0037407 α      in ANC's #5, #9, #1, ...

........................................................................
.............................. CYCLE    8 ..............................
........................................................................
   1     -7.2533160 -0.725332E+01  0.228E-02    4.11       0.0  T
   2     -7.2533160 -0.382022E-07  0.138E-02    4.11       3.2  T
   3     -7.2533160 -0.971918E-08  0.175E-03    4.11      25.5  T
   4     -7.2533160  0.234234E-09  0.696E-04    4.11      64.3  T
   5     -7.2533160 -0.507216E-09  0.550E-04    4.11      81.3  T
     SCC iter.                  ...        0 min,  0.000 sec
     gradient                   ...        0 min,  0.001 sec
 * total energy  :    -7.1242556 Eh     change       -0.1512244E-04 Eh
   gradient norm :     0.0020860 Eh/α   predicted    -0.1013755E-04 ( -32.96%)
   displ. norm   :     0.0080018 α      lambda       -0.1081820E-04
   maximum displ.:     0.0054781 α      in ANC's #1, #5, #9, ...

........................................................................
.............................. CYCLE    9 ..............................
........................................................................
   1     -7.2530120 -0.725301E+01  0.322E-02    4.11       0.0  T
   2     -7.2530120 -0.508957E-07  0.196E-02    4.11       2.3  T
   3     -7.2530120 -0.521683E-08  0.231E-03    4.11      19.3  T
   4     -7.2530120  0.224565E-07  0.232E-03    4.11      19.3  T
   5     -7.2530120 -0.289266E-07  0.862E-04    4.11      51.9  T
   6     -7.2530120 -0.356086E-08  0.335E-04    4.11     133.5  T
     SCC iter.                  ...        0 min,  0.001 sec
     gradient                   ...        0 min,  0.001 sec
 * total energy  :    -7.1242614 Eh     change       -0.5821320E-05 Eh
   gradient norm :     0.0002547 Eh/α   predicted    -0.5410571E-05 (  -7.06%)
   displ. norm   :     0.0071362 α      lambda       -0.9821929E-06
   maximum displ.:     0.0070509 α      in ANC's #1, #4, #5, ...

........................................................................
.............................. CYCLE   10 ..............................
........................................................................
   1     -7.2529635 -0.725296E+01  0.296E-02    4.11       0.0  T
   2     -7.2529635 -0.121191E-07  0.184E-02    4.11       2.4  T
   3     -7.2529635 -0.524318E-08  0.861E-04    4.11      52.0  T
   4     -7.2529635 -0.161307E-08  0.461E-04    4.11      97.1  T
     SCC iter.                  ...        0 min,  0.000 sec
     gradient                   ...        0 min,  0.001 sec
 * total energy  :    -7.1242631 Eh     change       -0.1649930E-05 Eh
   gradient norm :     0.0005632 Eh/α   predicted    -0.4908181E-06 ( -70.25%)
   displ. norm   :     0.0084935 α      lambda       -0.1770524E-05
   maximum displ.:     0.0084929 α      in ANC's #1, #4, #5, ...

   *** GEOMETRY OPTIMIZATION CONVERGED AFTER 10 ITERATIONS ***

------------------------------------------------------------------------
 total energy gain   :        -0.0349100 Eh      -21.9064 kcal/mol
 total RMSD          :         0.2134205 a0        0.1129 Å
 total power (kW/mol):        -9.1656310 (step)-4271.8259 (real)
------------------------------------------------------------------------

 ANCopt (total)                0 d,  0 h,  0 min,  0.021 sec
 optimizer setup                ...        0 min,  0.000 sec (  0.303%)
 model hessian                  ...        0 min,  0.000 sec (  0.420%)
 ANC generation                 ...        0 min,  0.000 sec (  0.243%)
 coordinate transformation      ...        0 min,  0.000 sec (  0.100%)
 single point calculation       ...        0 min,  0.020 sec ( 94.969%)
 optimization log               ...        0 min,  0.000 sec (  1.249%)
 hessian update                 ...        0 min,  0.000 sec (  0.116%)
 rational function              ...        0 min,  0.000 sec (  1.076%)

================
 final structure:
================
5
 xtb: 6.2.2 (9d81278992624c895f80dd42a50cac0aa55982e2)
C        -0.33276843682081    0.00047506460709   -0.00525744745322
C         1.08770923516119    0.08036031986283   -0.61565239051499
C         1.06748201427143   -0.08343679049866    0.64969772168017
H        -0.91088343978499   -0.90806066140501   -0.11732818835839
H        -0.91153937282682    0.91066206743376    0.08854030464643

 Bond Distances (Angstroems)
 ---------------------------
C1-C2=1.5481         C1-C3=1.5481         C1-H4=1.0827         C1-H5=1.0827         C2-C1=1.5481         C2-C3=1.2761         
C3-C1=1.5481         C3-C2=1.2761         H4-C1=1.0827         H5-C1=1.0827         
 C  H  Rav=1.0827 sigma=0.0000  Rmin=1.0827  Rmax=1.0827     2
 C  C  Rav=1.4574 sigma=0.1283  Rmin=1.2761  Rmax=1.5481     3

 selected bond angles (degree)
 --------------------
C3-C1-C2= 48.68                H4-C1-C2=119.50                H4-C1-C3=118.77                H5-C1-C2=118.77                
H5-C1-C3=119.50                H5-C1-H4=115.40                C3-C2-C1= 65.66                C2-C3-C1= 65.66                

 selected dihedral angles (degree)
 ---------------------------------
C3-C2-C1-H4=256.18            C3-C2-C1-H5=105.38            C2-C3-C1-H4=105.38            C2-C3-C1-H5=256.18            
           -------------------------------------------------
          |                Final Singlepoint                |
           -------------------------------------------------

          ...................................................
          :                      SETUP                      :
          :.................................................:
          :  # basis functions                  14          :
          :  # atomic orbitals                  14          :
          :  # shells                            8          :
          :  # electrons                        14          :
          :  max. iterations                   250          :
          :  Hamiltonian                  GFN2-xTB          :
          :  restarted?                      false          :
          :  GBSA solvation                  false          :
          :  PC potential                    false          :
          :  electronic temp.          300.0000000     K    :
          :  accuracy                    1.0000000          :
          :  -> integral cutoff          0.2500000E+02      :
          :  -> integral neglect         0.1000000E-07      :
          :  -> SCF convergence          0.1000000E-05 Eh   :
          :  -> wf. convergence          0.1000000E-03 e    :
          :  Broyden damping             0.4000000          :
          ...................................................

 iter      E             dE          RMSdq      gap      omega  full diag
   1     -7.2529635 -0.725296E+01  0.133E-04    4.11       0.0  T
   2     -7.2529635  0.198840E-09  0.205E-04    4.11     217.8  T
   3     -7.2529635 -0.293261E-09  0.345E-05    4.11    1296.5  T

   *** convergence criteria satisfied after 3 iterations ***

         #    Occupation            Energy/Eh            Energy/eV
      -------------------------------------------------------------
         1        2.0000           -0.6708787             -18.2555
         2        2.0000           -0.5939275             -16.1616
         3        2.0000           -0.5315700             -14.4648
         4        2.0000           -0.5177844             -14.0896
         5        2.0000           -0.4916448             -13.3783
         6        2.0000           -0.4138120             -11.2604
         7        1.0000           -0.3881777             -10.5629
         8        1.0000           -0.3657956              -9.9538 (HOMO)
         9                         -0.2146006              -5.8396 (LUMO)
        10                         -0.0613708              -1.6700
        11                          0.0393786               1.0715
        12                          0.1858774               5.0580
        13                          0.2347965               6.3891
        14                          0.6728937              18.3104
      -------------------------------------------------------------
                  HL-Gap            0.1511950 Eh            4.1142 eV
             Fermi-level           -0.3455965 Eh           -9.4042 eV

 transition dipole moment (au) for excitation:           7           8
     X       Y       Z   
  -0.0148  -0.1133   0.9274  total (au/Debye):    0.934   2.375
 dE (eV)             :    0.609
 oscillator strength :  0.18425E-01

 SCC (total)                   0 d,  0 h,  0 min,  0.002 sec
 SCC setup                      ...        0 min,  0.000 sec (  2.345%)
 Dispersion                     ...        0 min,  0.000 sec (  0.410%)
 integral evaluation            ...        0 min,  0.001 sec ( 27.289%)
 zeroth order Hamiltonian       ...        0 min,  0.000 sec (  0.410%)
 iterations                     ...        0 min,  0.000 sec ( 17.987%)
 molecular gradient             ...        0 min,  0.001 sec ( 27.826%)
 printout                       ...        0 min,  0.001 sec ( 23.361%)

         :::::::::::::::::::::::::::::::::::::::::::::::::::::
         ::                     SUMMARY                     ::
         :::::::::::::::::::::::::::::::::::::::::::::::::::::
         :: total energy              -7.124263090734 Eh    ::
         :: gradient norm              0.000562550951 Eh/a0 ::
         :: HOMO-LUMO gap              4.114224537426 eV    ::
         ::.................................................::
         :: SCC energy                -7.252963470629 Eh    ::
         :: -> isotropic ES           -0.002106206199 Eh    ::
         :: -> anisotropic ES          0.002012819496 Eh    ::
         :: -> anisotropic XC          0.004142319575 Eh    ::
         :: -> dispersion             -0.001531179759 Eh    ::
         :: repulsion energy           0.128700355476 Eh    ::
         :: add. restraining           0.000000000000 Eh    ::
         :::::::::::::::::::::::::::::::::::::::::::::::::::::

           ------------------------------------------------- 
          |                Numerical Hessian                |
           ------------------------------------------------- 
step length          :   0.00500
SCC accuracy         :   0.30000
Hessian scale factor :   1.00000
frozen atoms in %    :   0.00000    0
RMS gradient         :   0.00056
estimated CPU  time      0.00 min
estimated wall time      0.00 min

writing file <hessian>.

 projected vibrational frequencies (cm-1)
eigval :       -0.00    -0.00    -0.00     0.00     0.00     0.00
eigval :     -369.55   720.78   934.20  1003.79  1014.07  1429.02
eigval :     1858.91  3030.87  3037.25
           -------------------------------------------------
          |                Property Printout                |
           -------------------------------------------------

    * Orbital Energies and Occupations

         #    Occupation            Energy/Eh            Energy/eV
      -------------------------------------------------------------
         1        2.0000           -0.6708787             -18.2555
         2        2.0000           -0.5939275             -16.1616
         3        2.0000           -0.5315699             -14.4648
         4        2.0000           -0.5177843             -14.0896
         5        2.0000           -0.4916447             -13.3783
         6        2.0000           -0.4138119             -11.2604
         7        1.0000           -0.3881776             -10.5629
         8        1.0000           -0.3657955              -9.9538 (HOMO)
         9                         -0.2146005              -5.8396 (LUMO)
        10                         -0.0613706              -1.6700
        11                          0.0393787               1.0715
        12                          0.1858775               5.0580
        13                          0.2347965               6.3891
        14                          0.6728937              18.3104
      -------------------------------------------------------------
                  HL-Gap            0.1511950 Eh            4.1142 eV
             Fermi-level           -0.3455964 Eh           -9.4042 eV

     #   Z        covCN         q      C6AA      α(0)
     1   6 C      3.796     0.012    20.380     6.428
     2   6 C      1.954    -0.057    32.604     9.221
     3   6 C      1.954    -0.057    32.604     9.221
     4   1 H      0.925     0.051     2.312     2.378
     5   1 H      0.925     0.051     2.312     2.378

 Mol. C6AA /au·bohr⁶  :        359.256179
 Mol. C8AA /au·bohr⁸  :       9245.906155
 Mol. α(0) /au        :         29.626564


Wiberg/Mayer (AO) data.
largest (>0.10) Wiberg bond orders for each atom
          total WBO             WBO to atom ...
     1  C   3.524        H    5 0.977    H    4 0.977    C    3 0.785    C    2 0.785
     2  C   2.893        C    3 2.089    C    1 0.785
Molecule has the following symmetry elements: (C2) 2*(sigma) 
It seems to be the C2v point group
     3  C   2.893        C    2 2.089    C    1 0.785
     4  H   0.997        C    1 0.977
     5  H   0.997        C    1 0.977

MOs/occ written to file <molden.input>


molecular dipole:
                 x           y           z       tot (Debye)
 q only:       -0.412       0.001      -0.007
   full:       -0.628       0.001      -0.010       1.595
molecular quadrupole (traceless):
                xx          xy          yy          xz          yz          zz
 q only:       -0.234      -0.000       0.457      -0.000       0.082      -0.224
  q+dip:       -1.528       0.003       0.948      -0.033       0.051       0.580
   full:       -1.094       0.000       1.223      -0.015       0.207      -0.129

           -------------------------------------------------
          |                Geometry Summary                 |
           -------------------------------------------------

      molecular mass/u    :       38.0480892
   center of mass at/Å    :        0.5270106      -0.0007550       0.0083231
  moments of inertia/u·Å² :        0.1146721E+02   0.2202331E+02   0.3011483E+02
rotational constants/cm⁻¹ :        0.1470073E+01   0.7654448E+00   0.5597784E+00

 * 3 selected distances

     #   Z        #   Z                                     value/Å
     2   6 C      3   6 C                                 1.2760680 (max)
     1   6 C      4   1 H                                 1.0826883 (min)
     1   6 C      5   1 H                                 1.0826884

 * 2 distinct bonds (by element types)

   Z      Z             #   av. dist./Å        max./Å        min./Å
   1 H    6 C           2     1.0826884     1.0826884     1.0826883
   6 C    6 C           1     1.2760680     1.2760680     1.2760680

           -------------------------------------------------
          |               Frequency Printout                |
           -------------------------------------------------
 projected vibrational frequencies (cm-1)
eigval :       -0.00    -0.00    -0.00     0.00     0.00     0.00
eigval :     -369.55   720.78   934.20  1003.79  1014.07  1429.02
eigval :     1858.91  3030.87  3037.25
 reduced masses (amu)
   1:  9.22   2: 11.49   3: 10.79   4: 10.15   5: 10.89   6: 11.71   7:  2.63   8: 11.59
   9:  3.53  10:  3.40  11: 11.35  12:  1.91  13: 11.96  14:  1.40  15:  2.13
 IR intensities (amu)
   1:  0.28   2:  0.04   3:  0.09   4:  0.14   5:  0.07   6:  0.12   7:  0.03   8:  0.46
   9:  0.28  10:  0.19  11:  0.41  12:  0.08  13:  0.43  14:  0.19  15:  0.27
 Raman intensities (amu)
   1:  0.00   2:  0.00   3:  0.00   4:  0.00   5:  0.00   6:  0.00   7:  0.00   8:  0.00
   9:  0.00  10:  0.00  11:  0.00  12:  0.00  13:  0.00  14:  0.00  15:  0.00
 output can be read by thermo (or use thermo option).
 writing <g98.out> molden fake output.
 recommended (thermochemical) frequency scaling factor: 1.0
           -------------------------------------------------
          |             Thermodynamic Functions             |
           -------------------------------------------------

c2v symmetry found (for desy threshold:  0.10E+00) used in thermo

          ...................................................
          :                      SETUP                      :
          :.................................................:
          :  # frequencies                           8      :
          :  # imaginary freq.                       1      :
          :  linear?                             false      :
          :  only rotor calc.                    false      :
          :  symmetry                              c2v      :
          :  rotational number                       2      :
          :  scaling factor                  1.0000000      :
          :  rotor cutoff                   50.0000000 cm⁻¹ :
          :  imag. cutoff                  -20.0000000 cm⁻¹ :
          :.................................................:

    mode    ω/cm⁻¹     T·S(HO)/kcal·mol⁻¹    T·S(FR)/kcal·mol⁻¹   T·S(vib)
   ------------------------------------------------------------------------
   ------------------------------------------------------------------------

   temp. (K)  partition function   enthalpy   heat capacity  entropy
                                   cal/mol     cal/K/mol   cal/K/mol   J/K/mol
 298.15  VIB   1.06                  144.884      2.097      0.603
         ROT  0.333E+04              888.752      2.981     19.100
         INT  0.353E+04             1033.636      5.078     19.703
         TR   0.227E+27             1481.254      4.968     36.821
         TOT                        2514.8900    10.0457    56.5237   236.4952

   temp. (K)  partition function   enthalpy   heat capacity  entropy
                                   cal/mol     cal/K/mol   cal/K/mol   J/K/mol
 120.00  VIB   1.00                    0.433      0.033      0.004
         ROT   851.                  357.707      2.981     16.387
         INT   851.                  358.140      3.014     16.391
         TR   0.580E+26              596.178      4.968     32.302
         TOT                         954.3175     7.9819    48.6922   203.7283

   temp. (K)  partition function   enthalpy   heat capacity  entropy
                                   cal/mol     cal/K/mol   cal/K/mol   J/K/mol
 100.00  VIB   1.00                    0.071      0.008      0.001
         ROT   647.                  298.089      2.981     15.843
         INT   647.                  298.160      2.989     15.844
         TR   0.441E+26              496.815      4.968     31.396
         TOT                         794.9754     7.9567    47.2402   197.6529

   temp. (K)  partition function   enthalpy   heat capacity  entropy
                                   cal/mol     cal/K/mol   cal/K/mol   J/K/mol
  80.00  VIB   1.00                    0.005      0.001      0.000
         ROT   463.                  238.471      2.981     15.178
         INT   463.                  238.476      2.982     15.178
         TR   0.316E+26              397.452      4.968     30.288
         TOT                         635.9282     7.9499    45.4662   190.2306

   temp. (K)  partition function   enthalpy   heat capacity  entropy
                                   cal/mol     cal/K/mol   cal/K/mol   J/K/mol
  60.00  VIB   1.00                    0.000      0.000     -0.000
         ROT   301.                  178.853      2.981     14.320
         INT   301.                  178.853      2.981     14.320
         TR   0.205E+26              298.089      4.968     28.860
         TOT                         476.9425     7.9491    43.1800   180.6653

   temp. (K)  partition function   enthalpy   heat capacity  entropy
                                   cal/mol     cal/K/mol   cal/K/mol   J/K/mol
  40.00  VIB   1.00                    0.000      0.000     -0.000
         ROT   164.                  119.236      2.981     13.112
         INT   164.                  119.236      2.981     13.112
         TR   0.112E+26              198.726      4.968     26.846
         TOT                         317.9616     7.9490    39.9579   167.1840

   temp. (K)  partition function   enthalpy   heat capacity  entropy
                                   cal/mol     cal/K/mol   cal/K/mol   J/K/mol
  20.00  VIB   1.00                    0.000      0.000     -0.000
         ROT   57.9                   59.618      2.981     11.046
         INT   57.9                   59.618      2.981     11.046
         TR   0.395E+25               99.363      4.968     23.404
         TOT                         158.9808     7.9490    34.4497   144.1377

   temp. (K)  partition function   enthalpy   heat capacity  entropy
                                   cal/mol     cal/K/mol   cal/K/mol   J/K/mol
  10.00  VIB   1.00                    0.000      0.000     -0.000
         ROT   20.5                   29.809      2.981      8.979
         INT   20.5                   29.809      2.981      8.979
         TR   0.139E+25               49.681      4.968     19.962
         TOT                          79.4904     7.9490    28.9415   121.0914

       T/K    H(0)-H(T)+PV         H(T)/Eh          T*S/Eh         G(T)/Eh
   ------------------------------------------------------------------------
    298.15    0.400773E-02    0.336898E-01    0.268562E-01    0.683352E-02
    120.00    0.152080E-02    0.312028E-01    0.931152E-02    0.218913E-01
    100.00    0.126687E-02    0.309489E-01    0.752820E-02    0.234207E-01
     80.00    0.101342E-02    0.306954E-01    0.579640E-02    0.248990E-01
     60.00    0.760056E-03    0.304421E-01    0.412871E-02    0.263134E-01
     40.00    0.506704E-03    0.301887E-01    0.254708E-02    0.276416E-01
     20.00    0.253352E-03    0.299354E-01    0.109798E-02    0.288374E-01
     10.00    0.126676E-03    0.298087E-01    0.461213E-03    0.293475E-01 (used)
   ------------------------------------------------------------------------

         :::::::::::::::::::::::::::::::::::::::::::::::::::::
         ::                  THERMODYNAMIC                  ::
         :::::::::::::::::::::::::::::::::::::::::::::::::::::
         :: total free energy          -7.094915601356 Eh   ::
         ::.................................................::
         :: total energy               -7.124263090320 Eh   ::
         :: zero point energy           0.029682025639 Eh   ::
         :: G(RRHO) w/o ZPVE           -0.000334536675 Eh   ::
         :: G(RRHO) contrib.            0.029347488964 Eh   ::
         :::::::::::::::::::::::::::::::::::::::::::::::::::::
imag cut-off (cm-1) :    5.00
 found            1  significant imaginary frequency
 writing imag mode distorted coords to xtbhess.xyz
 for further optimization.

optimized geometry written to: xtbopt.xyz


           -------------------------------------------------
          | TOTAL ENERGY               -7.124263090320 Eh   |
          | TOTAL ENTHALPY             -7.094454388665 Eh   |
          | TOTAL FREE ENERGY          -7.094915601356 Eh   |
          | GRADIENT NORM               0.000562572003 Eh/α |
          | HOMO-LUMO GAP               4.114225639694 eV   |
           -------------------------------------------------

------------------------------------------------------------------------
 * finished run on 2020/05/12 at 11:44:27.130     
------------------------------------------------------------------------
 total:
 * wall-time:     0 d,  0 h,  0 min,  0.098 sec
 *  cpu-time:     0 d,  0 h,  0 min,  0.098 sec
 * ratio c/w:     0.999 speedup
 SCF:
 * wall-time:     0 d,  0 h,  0 min,  0.003 sec
 *  cpu-time:     0 d,  0 h,  0 min,  0.003 sec
 * ratio c/w:     1.000 speedup
 ANC optimizer:
 * wall-time:     0 d,  0 h,  0 min,  0.025 sec
 *  cpu-time:     0 d,  0 h,  0 min,  0.025 sec
 * ratio c/w:     0.998 speedup
 numerical hessian:
 * wall-time:     0 d,  0 h,  0 min,  0.054 sec
 *  cpu-time:     0 d,  0 h,  0 min,  0.054 sec
 * ratio c/w:     0.999 speedup

