[Molden Format]
[Title]
[Atoms] AU
C      1     6 -0.62884118013460E+00  0.90101718025893E-03 -0.99329413764912E-02
C      2     6  0.20554691009718E+01  0.15184618878841E+00 -0.11634217380902E+01
C      3     6  0.20172519228351E+01 -0.15768108761058E+00  0.12277438775142E+01
H      4     1 -0.17213298317272E+01 -0.17159771695232E+01 -0.22170911862243E+00
H      5     1 -0.17225500119452E+01  0.17209110511651E+01  0.16731992057496E+00
[GTO]
           1 0
 s           4   1.0000000000000000     
   51.049363095579913      -0.16312063210127389     
   8.7911227406887544      -0.19911024581000730     
  0.70640422258929825       0.31882047753655751     
  0.26922813413411617       0.12706504184240380     
 p           4   1.0000000000000000     
   5.8263656140800002       0.73716451545209605     
   1.5106896018720002       0.68216371614850257     
  0.53256483288000001       0.35783053929253711     
  0.21202323690600003        5.3983030275847881E-002

           2 0
 s           4   1.0000000000000000     
   51.049363095579913      -0.16312063210127389     
   8.7911227406887544      -0.19911024581000730     
  0.70640422258929825       0.31882047753655751     
  0.26922813413411617       0.12706504184240380     
 p           4   1.0000000000000000     
   5.8263656140800002       0.73716451545209605     
   1.5106896018720002       0.68216371614850257     
  0.53256483288000001       0.35783053929253711     
  0.21202323690600003        5.3983030275847881E-002

           3 0
 s           4   1.0000000000000000     
   51.049363095579913      -0.16312063210127389     
   8.7911227406887544      -0.19911024581000730     
  0.70640422258929825       0.31882047753655751     
  0.26922813413411617       0.12706504184240380     
 p           4   1.0000000000000000     
   5.8263656140800002       0.73716451545209605     
   1.5106896018720002       0.68216371614850257     
  0.53256483288000001       0.35783053929253711     
  0.21202323690600003        5.3983030275847881E-002

           4 0
 s           3   1.0000000000000000     
   3.3702276975336001       0.27359110588908298     
  0.61389118221497996       0.26460540653860526     
  0.16614291148415999        8.2465947534082318E-002

           5 0
 s           3   1.0000000000000000     
   3.3702276975336001       0.27359110588908298     
  0.61389118221497996       0.26460540653860526     
  0.16614291148415999        8.2465947534082318E-002

[MO]
Sym=     1a
Ene=  -0.67087867650258715     
Spin= Alpha
Occup=     2.00000000
           1 -0.36681771760644161     
           2 -0.16647892091554306     
           3   2.3855961459245910E-004
           4  -2.6296520875887810E-003
           5 -0.37240880107120955     
           6   9.2425657827136479E-002
           7   1.8505528304780982E-002
           8 -0.14356618464198101     
           9 -0.37240936335221470     
          10   8.7791856999913570E-002
          11  -1.8763740298716750E-002
          12  0.14641263847020367     
          13  -7.6298351404871498E-002
          14  -7.6298327429435250E-002
Sym=     2a
Ene=  -0.59392745364870825     
Spin= Alpha
Occup=     2.00000000
           1 -0.45857113398568028     
           2  0.25149952174075602     
           3  -3.6017867842961252E-004
           4   3.9713552192370480E-003
           5  0.24429002300426969     
           6  0.13382735698661086     
           7  -1.3638262386833482E-002
           8  0.10528177659285477     
           9  0.24428802271947397     
          10  0.13712557259508004     
          11   1.3250097545805462E-002
          12 -0.10100246845424385     
          13 -0.27432511137235371     
          14 -0.27432501732930253     
Sym=     3a
Ene=  -0.53156994100525934     
Spin= Alpha
Occup=     2.00000000
           1  -1.0036643303372322E-007
           2  -1.1960794277996723E-005
           3 -0.53496429157302150     
           4  -4.7766095666913581E-002
           5  -1.7321101636497499E-002
           6   4.7557053864866533E-003
           7 -0.23817871329089879     
           8  -2.0742608676179219E-002
           9   1.7321150069385938E-002
          10  -4.7805567061143268E-003
          11 -0.23816571137284523     
          12  -2.0893296271053029E-002
          13  0.34072598361478951     
          14 -0.34072613903428395     
Sym=     4a
Ene=  -0.51778432779410766     
Spin= Alpha
Occup=     2.00000000
           1  -1.0576608565973443E-006
           2  -7.1062630319188441E-003
           3  -3.3655742107261848E-002
           4  0.44705922059025849     
           5 -0.47075421425657227     
           6   9.1296796368304109E-002
           7  -2.3729195176155866E-002
           8  0.27986676361493190     
           9  0.47075312556760285     
          10 -0.10016013417366591     
          11  -2.3454999359005649E-002
          12  0.27684395434458764     
          13  -1.1540771163795980E-002
          14   1.1537793388678984E-002
Sym=     5a
Ene=  -0.49164469632918456     
Spin= Alpha
Occup=     2.00000000
           1  -4.8002773493324699E-002
           2 -0.42215717317564111     
           3   6.0461542609262795E-004
           4  -6.6652446547035681E-003
           5  0.18554262786614883     
           6  0.43962628903849271     
           7  -1.2745193691034301E-002
           8  0.10155964113960018     
           9  0.18554559940364818     
          10  0.44264844979173434     
          11   1.1480617084442807E-002
          12  -8.7620144001480604E-002
          13  0.19756040049396761     
          14  0.19756044779988063     
Sym=     6a
Ene=  -0.41381192759462204     
Spin= Alpha
Occup=     1.99999862
           1   2.4822231732050163E-008
           2   1.5356734624908392E-004
           3  0.21748407597748776     
           4   1.0004681960948817E-002
           5  -1.2841104670130270E-002
           6  -8.7651152533138182E-003
           7 -0.58351902308985937     
           8  -6.6552672121068995E-002
           9   1.2840907682850287E-002
          10   9.1908103165630421E-003
          11 -0.58354294678194163     
          12  -6.6269093973918017E-002
          13 -0.27368091006061862     
          14  0.27368095957527871     
Sym=     7a
Ene=  -0.38817760910704169     
Spin= Alpha
Occup=     1.00000138
           1  -8.7569426428976138E-007
           2  -1.0361358724848259E-002
           3  -6.8524328233083021E-002
           4  0.64987640234923372     
           5  0.32138844951994056     
           6  0.36706393987266356     
           7   1.3226764027066887E-002
           8 -0.23814989156346486     
           9 -0.32137422636560425     
          10 -0.35931916831221655     
          11   1.4264939616167005E-002
          12 -0.24960208956701907     
          13  -7.6376344775628633E-003
          14   7.6380184894687163E-003
Sym=     8a
Ene=  -0.36579546648238859     
Spin= Alpha
Occup=     1.00000000
           1  -3.7674373470572117E-003
           2   3.5093468187530737E-002
           3  -4.8915694144039552E-005
           4   5.4195019146223661E-004
           5  0.38426154992185113     
           6   3.8879258085728910E-002
           7   7.8358477937809562E-002
           8 -0.60395730991545959     
           9  0.38427251115997663     
          10   1.9574633856127677E-002
          11  -7.8442960470591724E-002
          12  0.60488902444669923     
          13   1.5214757254815877E-002
          14   1.5214634687381805E-002
Sym=     9a
Ene=  -0.21460045630066341     
Spin= Alpha
Occup=     0.00000000
           1   1.9193100963425622E-003
           2  -7.0803450427624020E-004
           3   9.7933177822065734E-007
           4  -1.1208082322540820E-005
           5   7.2154840591128158E-005
           6   8.6530913297529785E-004
           7 -0.80372744118834538     
           8 -0.10418021897572835     
           9   7.2159714563016381E-005
          10  -1.2262740264031019E-004
          11  0.80372736542622214     
          12  0.10419208633447004     
          13  -8.9291124029017169E-004
          14  -8.9573328694699265E-004
Sym=    10a
Ene=   -6.1370624453459449E-002
Spin= Alpha
Occup=     0.00000000
           1  -1.9387731143568194E-005
           2  -1.0944583764515403E-002
           3  -7.2735729596001941E-002
           4  0.68570166886610751     
           5   8.6730506517370423E-002
           6 -0.75030848413699025     
           7   1.7732351756100752E-002
           8 -0.16217588896660093     
           9  -8.6721216370497914E-002
          10  0.75508377540983396     
          11   1.5575775468395333E-002
          12 -0.13840161864481548     
          13   8.5223249855937190E-003
          14  -8.5093751427661179E-003
Sym=    11a
Ene=    3.9378694117423972E-002
Spin= Alpha
Occup=     0.00000000
           1  -1.0854773244752776     
           2 -0.38281768118776172     
           3   5.4969638885203772E-004
           4  -6.0610874360907578E-003
           5  0.24333868976629211     
           6 -0.46373246714246674     
           7  -1.2727667856857335E-002
           8   8.5961658200390922E-002
           9  0.24334164786228676     
          10 -0.46078028367732649     
          11   1.4051401847175959E-002
          12 -0.10055540568580791     
          13  0.41244379939530940     
          14  0.41244466381119194     
Sym=    12a
Ene=   0.18587747081133704     
Spin= Alpha
Occup=     0.00000000
           1  0.42337058988350473     
           2  -1.0569612441596632     
           3   1.5159567556781736E-003
           4  -1.6694829589264441E-002
           5  0.24099270282296648     
           6 -0.29723722347621384     
           7  -6.6081311328668292E-003
           8   5.9795814331739007E-002
           9  0.24099237544506869     
          10 -0.29518606341971476     
          11   7.4562038503898894E-003
          12  -6.9149758492457178E-002
          13 -0.67683309606775022     
          14 -0.67683522698456111     
Sym=    13a
Ene=   0.23479654308196463     
Spin= Alpha
Occup=     0.00000000
           1   1.0098192134106602E-006
           2   3.1884908774629754E-004
           3  -1.1040840555029776     
           4 -0.12042873063560199     
           5  -1.1126204940183268E-003
           6  -8.0819483857822293E-003
           7  0.12261348746582340     
           8   9.8720666263480486E-003
           9   1.1130978988740398E-003
          10   8.1169031725857477E-003
          11  0.12259232213231430     
          12   1.0128072063250114E-002
          13 -0.84749637406518130     
          14  0.84749422219450066     
Sym=    14a
Ene=   0.67289374931676971     
Spin= Alpha
Occup=     0.00000000
           1   2.1328247074796151E-006
           2  -2.2402707829698716E-003
           3  -2.2213665052500511E-002
           4  0.14003546167342568     
           5  0.87745883542062286     
           6  -6.8681136709806870E-002
           7 -0.12622804846130189     
           8  0.97679613536351362     
           9 -0.87746119820107615     
          10   3.7434485417682448E-002
          11 -0.12638019618882432     
          12  0.97847303307817746     
          13  -3.7241356034603216E-003
          14   3.7246390141175978E-003
