$hessian                                                                        
        0.5051448250  -0.0006698462   0.0059765528  -0.1517873673  -0.0144872545
        0.1015952070  -0.1469886614   0.0148197393  -0.1052604526  -0.1031123404
       -0.1063447453  -0.0140917203  -0.1032564559   0.1066821067   0.0117804131
       -0.0006698462   0.5037143602   0.0420353931  -0.0062364018  -0.0232201799
        0.0013632044   0.0065450062  -0.0232793096   0.0018611951  -0.1097533311
       -0.2282934748  -0.0243472518   0.1101145728  -0.2289213958  -0.0209125408
        0.0059765528   0.0420353931   0.1320328422   0.0462413639   0.0011841384
       -0.0314819197  -0.0498151635   0.0017834924  -0.0362588265  -0.0134836086
       -0.0241654547  -0.0325441887   0.0110808555  -0.0208375692  -0.0317479073
       -0.1517873673  -0.0062364018   0.0462413639   0.1737069263   0.0122471997
       -0.0899274317   0.0106980183  -0.0041930204   0.0274125274  -0.0161025873
       -0.0035579947   0.0082411932  -0.0165149900   0.0017402172   0.0080323473
       -0.0144872545  -0.0232201799   0.0011841384   0.0122471997   0.0161062427
       -0.0957763957   0.0011847778   0.0015489717   0.0942179159  -0.0109909028
        0.0032276485  -0.0034402928   0.0120461798   0.0023373170   0.0038146342
        0.1015952070   0.0013632044  -0.0314819197  -0.0899274317  -0.0957763957
        0.7714985554  -0.0033287955   0.0941726360  -0.7433550989  -0.0055924902
       -0.0012218548   0.0036453685  -0.0027464896   0.0014624101  -0.0003069053
       -0.1469886614   0.0065450062  -0.0498151635   0.0106980183   0.0011847778
       -0.0033287955   0.1684580583  -0.0096563230   0.0705538957  -0.0162785333
       -0.0017257670  -0.0085342140  -0.0158888819   0.0036523060  -0.0088757227
        0.0148197393  -0.0232793096   0.0017834924  -0.0041930204   0.0015489717
        0.0941726360  -0.0096563230   0.0161688523  -0.0963460431  -0.0121136142
        0.0023665951   0.0034549023   0.0111432183   0.0031948904  -0.0030649876
       -0.1052604526   0.0018611951  -0.0362588265   0.0274125274   0.0942179159
       -0.7433550989   0.0705538957  -0.0963460431   0.7765593213   0.0022740719
        0.0013947806  -0.0004889465   0.0050199575  -0.0011278486   0.0035435506
       -0.1031123404  -0.1097533311  -0.0134836086  -0.0161025873  -0.0109909028
       -0.0055924902  -0.0162785333  -0.0121136142   0.0022740719   0.1279984592
        0.1222263596   0.0157147659   0.0074950017   0.0106314885   0.0010872609
       -0.1063447453  -0.2282934748  -0.0241654547  -0.0035579947   0.0032276485
       -0.0012218548  -0.0017257670   0.0023665951   0.0013947806   0.1222263596
        0.2477543465   0.0286786475  -0.0105978526  -0.0250551154  -0.0046861187
       -0.0140917203  -0.0243472518  -0.0325441887   0.0082411932  -0.0034402928
        0.0036453685  -0.0085342140   0.0034549023  -0.0004889465   0.0157147659
        0.0286786475   0.0144824166  -0.0013300248  -0.0043460052   0.0149053501
       -0.1032564559   0.1101145728   0.0110808555  -0.0165149900   0.0120461798
       -0.0027464896  -0.0158888819   0.0111432183   0.0050199575   0.0074950017
       -0.0105978526  -0.0013300248   0.1281653262  -0.1227061184  -0.0120242986
        0.1066821067  -0.2289213958  -0.0208375692   0.0017402172   0.0023373170
        0.0014624101   0.0036523060   0.0031948904  -0.0011278486   0.0106314885
       -0.0250551154  -0.0043460052  -0.1227061184   0.2484443038   0.0248490128
        0.0117804131  -0.0209125408  -0.0317479073   0.0080323473   0.0038146342
       -0.0003069053  -0.0088757227  -0.0030649876   0.0035435506   0.0010872609
       -0.0046861187   0.0149053501  -0.0120242986   0.0248490128   0.0136059119
