5
 energy: -7.089353035143 gnorm: 0.113966471354 xtb: 6.2.2 (9d81278992624c895f80dd42a50cac0aa55982e2)
C        -0.31513600000000    0.00046100000000   -0.00504100000000
C         1.00501300000000    0.08815300000000   -0.73758400000000
C         0.98089200000000   -0.09098700000000    0.76895400000000
H        -0.83494800000000   -0.97178800000000   -0.12882300000000
H        -0.83582100000000    0.97416100000000    0.10249400000000
5
 energy: -7.102887812087 gnorm: 0.094696771946 xtb: 6.2.2 (9d81278992624c895f80dd42a50cac0aa55982e2)
C        -0.30246676822078    0.00043362936619   -0.00478030293713
C         1.02831457729898    0.08298217227177   -0.69393988043723
C         1.00566535581055   -0.08588772155049    0.72608608566372
H        -0.86533833391234   -0.92792072918370   -0.12412620072399
H        -0.86617483097641    0.93039264909623    0.09676029843464
5
 energy: -7.046052174670 gnorm: 0.722119302776 xtb: 6.2.2 (9d81278992624c895f80dd42a50cac0aa55982e2)
C        -0.30268108975023    0.00043289031196   -0.00481983378605
C         1.10897781359083    0.06278689836524   -0.52160711875388
C         1.09183070760329   -0.06593350005067    0.55640683210953
H        -0.94868228917419   -0.84764061854306   -0.11570378968237
H        -0.94944514226970    0.85035432991653    0.08572391011277
5
 energy: -7.117351683326 gnorm: 0.109383339921 xtb: 6.2.2 (9d81278992624c895f80dd42a50cac0aa55982e2)
C        -0.29179425581597    0.00041847858843   -0.00463114672775
C         1.09080003439362    0.07825776200925   -0.65134360054265
C         1.06950389844897   -0.08134510903323    0.68549706275845
H        -0.93386611380891   -0.86864334141684   -0.11792802491569
H        -0.93464356321771    0.87131220985239    0.08840570942763
5
 energy: -7.122299780753 gnorm: 0.060778388627 xtb: 6.2.2 (9d81278992624c895f80dd42a50cac0aa55982e2)
C        -0.30986999443352    0.00044093795228   -0.00488722545116
C         1.08194032165310    0.07673517244371   -0.63419840710123
C         1.06120219592298   -0.07979730056174    0.66807616714611
H        -0.91624541656594   -0.88822714971359   -0.11958474953951
H        -0.91702710657662    0.89084833987935    0.09059421494579
5
 energy: -7.124119752019 gnorm: 0.020939227355 xtb: 6.2.2 (9d81278992624c895f80dd42a50cac0aa55982e2)
C        -0.32949533601795    0.00047157312104   -0.00521884805277
C         1.08551479290565    0.07508041984829   -0.61187918969823
C         1.06541477369753   -0.07815017715410    0.64585737311932
H        -0.91033129761558   -0.90607894166441   -0.12081797402200
H        -0.91110293296964    0.90867712584918    0.09205863865368
5
 energy: -7.124240486493 gnorm: 0.004509239133 xtb: 6.2.2 (9d81278992624c895f80dd42a50cac0aa55982e2)
C        -0.32858512681412    0.00046841781143   -0.00518735852296
C         1.08626195856529    0.07597842962835   -0.61619006588352
C         1.06604528545741   -0.07905110816830    0.65019446738939
H        -0.91148025287766   -0.90465440299843   -0.12037953725282
H        -0.91224186433091    0.90725866372695    0.09156249426992
5
 energy: -7.124255608936 gnorm: 0.002086002869 xtb: 6.2.2 (9d81278992624c895f80dd42a50cac0aa55982e2)
C        -0.33040662124375    0.00047144753566   -0.00521874005926
C         1.08705520978183    0.07669297419846   -0.61620623375107
C         1.06682880106947   -0.07976777753636    0.65023353810027
H        -0.91136597357168   -0.90595165335665   -0.11997797515998
H        -0.91211141603586    0.90855500915889    0.09116941087003
5
 energy: -7.124261430256 gnorm: 0.000254896648 xtb: 6.2.2 (9d81278992624c895f80dd42a50cac0aa55982e2)
C        -0.33241084738290    0.00047415607461   -0.00524875213376
C         1.08766487693453    0.07829180028843   -0.61592344141021
C         1.06743805889675   -0.08136807716731    0.64996775790693
H        -0.91099262431552   -0.90758043857996   -0.11890139936623
H        -0.91169946413287    0.91018255938423    0.09010583500327
5
 energy: -7.124263080187 gnorm: 0.000563385023 xtb: 6.2.2 (9d81278992624c895f80dd42a50cac0aa55982e2)
C        -0.33276843682081    0.00047506460709   -0.00525744745322
C         1.08770923516119    0.08036031986283   -0.61565239051499
C         1.06748201427143   -0.08343679049866    0.64969772168017
H        -0.91088343978499   -0.90806066140501   -0.11732818835839
H        -0.91153937282682    0.91066206743376    0.08854030464643
