 Entering Gaussian System
 *********************************************
 Gaussian 98:
 frequency output generated by the xtb code
 *********************************************
                         Standard orientation:
 --------------------------------------------------------------------
  Center     Atomic     Atomic              Coordinates (Angstroms)
  Number     Number      Type              X           Y           Z
 --------------------------------------------------------------------
    1          6             0       -0.426055    0.874382   -0.144999
    2          6             0       -1.267602    0.021152    0.584906
    3          6             0       -0.456397   -0.858393   -0.148104
    4          7             0        0.632541   -0.010379   -0.387248
    5          1             0        1.517513   -0.026762    0.095445
 --------------------------------------------------------------------
     1 basis functions        1 primitive gaussians
     1 alpha electrons        1 beta electrons

 Harmonic frequencies (cm**-1), IR intensities (KM/Mole),
 Raman scattering activities (A**4/amu), Raman depolarization ratios,
 reduced masses (AMU), force constants (mDyne/A) and normal coordinates:
                      1                      2                      3
                        a                      a                      a 
 Frequencies --   468.6905               617.0526               800.9404
 Red. masses --     4.7975                10.3945                11.6749
 Frc consts  --     0.0000                 0.0000                 0.0000
 IR Inten    --     0.5538                 0.8876                 1.6832
 Raman Activ --     0.0000                 0.0000                 0.0000
 Depolar     --     0.0000                 0.0000                 0.0000
 Atom AN      X      Y      Z        X      Y      Z        X      Y      Z
   1   6    -0.17  -0.08  -0.22     0.11   0.23   0.39     0.14  -0.50   0.14
   2   6     0.28  -0.01   0.27    -0.06   0.00  -0.37    -0.01   0.45   0.01
   3   6    -0.17   0.09  -0.21     0.10  -0.24   0.39    -0.16  -0.47  -0.13
   4   7     0.16  -0.01  -0.05    -0.07   0.00  -0.47     0.02   0.42  -0.01
   5   1    -0.35   0.00   0.73    -0.26   0.00   0.35     0.00   0.25   0.01
                      4                      5                      6
                        a                      a                      a 
 Frequencies --   814.5097               914.5756               987.3143
 Red. masses --    12.5221                11.7329                 3.7115
 Frc consts  --     0.0000                 0.0000                 0.0000
 IR Inten    --     0.3653                 0.3099                 0.3137
 Raman Activ --     0.0000                 0.0000                 0.0000
 Depolar     --     0.0000                 0.0000                 0.0000
 Atom AN      X      Y      Z        X      Y      Z        X      Y      Z
   1   6     0.02  -0.44   0.11     0.44  -0.01  -0.26    -0.25  -0.09   0.02
   2   6    -0.51  -0.01   0.12    -0.01  -0.43  -0.00     0.00   0.22   0.00
   3   6     0.05   0.47   0.12    -0.44   0.01   0.26     0.24  -0.10  -0.03
   4   7     0.40  -0.02  -0.34     0.01   0.47   0.00     0.00   0.22   0.00
   5   1     0.04  -0.01   0.04    -0.00  -0.26  -0.00    -0.02  -0.87  -0.00
                      7                      8                      9
                        a                      a                      a 
 Frequencies --  1240.7006              1403.5748              3416.2895
 Red. masses --    11.9430                12.1209                 1.8778
 Frc consts  --     0.0000                 0.0000                 0.0000
 IR Inten    --     1.3231                 0.3921                 0.1870
 Raman Activ --     0.0000                 0.0000                 0.0000
 Depolar     --     0.0000                 0.0000                 0.0000
 Atom AN      X      Y      Z        X      Y      Z        X      Y      Z
   1   6    -0.45   0.16   0.13     0.11   0.45  -0.17    -0.00  -0.01  -0.00
   2   6     0.20  -0.00  -0.16    -0.50   0.01   0.43     0.00  -0.00  -0.00
   3   6    -0.46  -0.15   0.13     0.09  -0.45  -0.17    -0.00   0.01  -0.00
   4   7     0.60  -0.01  -0.05     0.26  -0.00  -0.09    -0.23   0.00  -0.11
   5   1     0.23  -0.00  -0.14     0.04  -0.00   0.04     0.86  -0.02   0.44
