5
 energy: -9.494347036143 gnorm: 0.000353240996 xtb: 6.2.2 (9d81278992624c895f80dd42a50cac0aa55982e2)
C        -0.42605548704967    0.87438221512447   -0.14499876404189
C        -1.26760203435452    0.02115203261178    0.58490643328015
C        -0.45639672310774   -0.85839331434916   -0.14810444153469
N         0.63254132094282   -0.01037891681311   -0.38724814649221
H         1.51751292356911   -0.02676201657397    0.09544491878865
