5
 energy: -9.442628759615 gnorm: 0.163617670929 xtb: 6.2.2 (9d81278992624c895f80dd42a50cac0aa55982e2)
C        -0.31810800000000    1.02299000000000   -0.03373400000000
C        -1.31753500000000    0.02218600000000    0.49218400000000
C        -0.35372100000000   -1.01109500000000   -0.03738700000000
N         0.58070300000000   -0.00921500000000   -0.52984200000000
H         1.40866100000000   -0.02486600000000    0.10877900000000
5
 energy: -9.474623436448 gnorm: 0.108119423029 xtb: 6.2.2 (9d81278992624c895f80dd42a50cac0aa55982e2)
C        -0.36842494646959    0.96870221903293   -0.06053252651695
C        -1.27866764478903    0.02147582094101    0.50898721064975
C        -0.40210688784394   -0.95498436665161   -0.06398823354128
N         0.60436708623109   -0.00970250128962   -0.48960468390536
H         1.44483239287148   -0.02549117203270    0.10513823331384
5
 energy: -9.465653491927 gnorm: 0.188381619852 xtb: 6.2.2 (9d81278992624c895f80dd42a50cac0aa55982e2)
C        -0.52012385023647    0.80991362398292   -0.22264293849492
C        -1.12964120066246    0.01859048037378    0.66306416531920
C        -0.54814748850759   -0.79040348933820   -0.22551974482896
N         0.68925731731532   -0.01140382747349   -0.37042780713056
H         1.50865522209120   -0.02669678754501    0.15552632513523
5
 energy: -9.490534406848 gnorm: 0.046236452713 xtb: 6.2.2 (9d81278992624c895f80dd42a50cac0aa55982e2)
C        -0.45710031882953    0.87966216545124   -0.18756943849064
C        -1.17071768171763    0.01935259466831    0.63900691282851
C        -0.48760684083308   -0.86244091788666   -0.19070101135049
N         0.64696100012136   -0.01055566561925   -0.43054521343305
H         1.46846384125888   -0.02601817661365    0.16980875044567
5
 energy: -9.491341389350 gnorm: 0.040161374069 xtb: 6.2.2 (9d81278992624c895f80dd42a50cac0aa55982e2)
C        -0.40022456551978    0.87026387043673   -0.11461811662793
C        -1.26635149325644    0.02115102434201    0.56960506986284
C        -0.43044024996247   -0.85530019699033   -0.11771848761278
N         0.63001250567376   -0.01020793288257   -0.45842824297412
H         1.46700380306493   -0.02590676490584    0.12115977735200
5
 energy: -9.493865111209 gnorm: 0.013550138150 xtb: 6.2.2 (9d81278992624c895f80dd42a50cac0aa55982e2)
C        -0.42453308031022    0.87579976001624   -0.14724548620586
C        -1.23008075191143    0.02046340920976    0.59899241965819
C        -0.45492605891395   -0.85986494753604   -0.15036450311771
N         0.63693271118450   -0.01036676407252   -0.43761953307316
H         1.47260717995111   -0.02603145761745    0.13623710273854
5
 energy: -9.494048854884 gnorm: 0.008756511373 xtb: 6.2.2 (9d81278992624c895f80dd42a50cac0aa55982e2)
C        -0.42591360421129    0.87606123282394   -0.15041522112317
C        -1.23400277373228    0.02052918893113    0.60077023878923
C        -0.45631524003140   -0.86006727764737   -0.15353528513052
N         0.63681478530923   -0.01038044161234   -0.42887094326440
H         1.47941683266574   -0.02614270249537    0.13205121072886
5
 energy: -9.494280277878 gnorm: 0.003243729299 xtb: 6.2.2 (9d81278992624c895f80dd42a50cac0aa55982e2)
C        -0.42624390205345    0.87452314755878   -0.15126391263912
C        -1.25045681692982    0.02082851041190    0.59707533643143
C        -0.45659889781762   -0.85852695166588   -0.15438139878833
N         0.63438764670437   -0.01037584962163   -0.40749340286039
H         1.49891197009651   -0.02644885668317    0.11606337785641
5
 energy: -9.494331377025 gnorm: 0.002796921842 xtb: 6.2.2 (9d81278992624c895f80dd42a50cac0aa55982e2)
C        -0.42582672489505    0.87383324032538   -0.14863630697336
C        -1.26075432034688    0.02101975227571    0.59143170435300
C        -0.45615560691885   -0.85786251128101   -0.15175020688151
N         0.63294595686411   -0.01036851034266   -0.39618500068209
H         1.50979069529667   -0.02662197097743    0.10513981018397
5
 energy: -9.494345179200 gnorm: 0.001432530564 xtb: 6.2.2 (9d81278992624c895f80dd42a50cac0aa55982e2)
C        -0.42580342719883    0.87390963831248   -0.14638340428664
C        -1.26573181434071    0.02111617069171    0.58729234950511
C        -0.45613593858923   -0.85795184238705   -0.14949773294516
N         0.63251170407153   -0.01037015204226   -0.39007116545586
H         1.51515947605723   -0.02670381457488    0.09865995318254
5
 energy: -9.494347035856 gnorm: 0.000353362473 xtb: 6.2.2 (9d81278992624c895f80dd42a50cac0aa55982e2)
C        -0.42605955915464    0.87438023736302   -0.14499872519002
C        -1.26760418678982    0.02114437461614    0.58490204541516
C        -0.45639171157979   -0.85839544552995   -0.14810753282611
N         0.63254272702521   -0.01037492896268   -0.38724595661218
H         1.51751273049904   -0.02675423748653    0.09545016921314
