[Molden Format]
[Title]
[Atoms] AU
C      1     6 -0.80512810971822E+00  0.16523427615247E+01 -0.27400792702599E+00
C      2     6 -0.23954204577017E+01  0.39971544906857E-01  0.11053128648804E+01
C      3     6 -0.86246473083092E+00 -0.16221281208289E+01 -0.27987680637428E+00
N      4     7  0.11953297481884E+01 -0.19613308427332E-01 -0.73179287124359E+00
H      5     1  0.28676835500624E+01 -0.50572877175356E-01  0.18036473976348E+00
[GTO]
           1 0
 s           4   1.0000000000000000     
   51.049363095579913      -0.16312063210127389     
   8.7911227406887544      -0.19911024581000730     
  0.70640422258929825       0.31882047753655751     
  0.26922813413411617       0.12706504184240380     
 p           4   1.0000000000000000     
   5.8263656140800002       0.73716451545209605     
   1.5106896018720002       0.68216371614850257     
  0.53256483288000001       0.35783053929253711     
  0.21202323690600003        5.3983030275847881E-002

           2 0
 s           4   1.0000000000000000     
   51.049363095579913      -0.16312063210127389     
   8.7911227406887544      -0.19911024581000730     
  0.70640422258929825       0.31882047753655751     
  0.26922813413411617       0.12706504184240380     
 p           4   1.0000000000000000     
   5.8263656140800002       0.73716451545209605     
   1.5106896018720002       0.68216371614850257     
  0.53256483288000001       0.35783053929253711     
  0.21202323690600003        5.3983030275847881E-002

           3 0
 s           4   1.0000000000000000     
   51.049363095579913      -0.16312063210127389     
   8.7911227406887544      -0.19911024581000730     
  0.70640422258929825       0.31882047753655751     
  0.26922813413411617       0.12706504184240380     
 p           4   1.0000000000000000     
   5.8263656140800002       0.73716451545209605     
   1.5106896018720002       0.68216371614850257     
  0.53256483288000001       0.35783053929253711     
  0.21202323690600003        5.3983030275847881E-002

           4 0
 s           4   1.0000000000000000     
   63.594024466941008      -0.19234388414721629     
   10.951417231523665      -0.23478107924953728     
  0.87999310257376984       0.37593753901700888     
  0.33538715296521110       0.14982889271862770     
 p           4   1.0000000000000000     
   7.2965040481495080       0.97658666315667420     
   1.8918745450712575       0.90372226730345739     
  0.66694432110824120       0.47404958461536373     
  0.26552202674130870        7.1516067715011844E-002

           5 0
 s           3   1.0000000000000000     
   3.3702276975336001       0.27359110588908298     
  0.61389118221497996       0.26460540653860526     
  0.16614291148415999        8.2465947534082318E-002

[MO]
Sym=     1a
Ene=  -0.72296186090948877     
Spin= Alpha
Occup=     2.00000000
           1  0.30942517931144786     
           2   4.4282004396502768E-002
           3 -0.14978953160728881     
           4   1.4824378429616165E-002
           5  0.21824706573277300     
           6  0.10234117300400795     
           7  -1.6696448804997537E-003
           8  -6.8331596838084374E-002
           9  0.30942656996389972     
          10   4.9498773490085871E-002
          11  0.14809333792214549     
          12   1.5358252017837488E-002
          13  0.35787879613346552     
          14 -0.22718728550873427     
          15   3.8251530811328101E-003
          16   8.4960152110565582E-002
          17   3.9539848558862375E-002
Sym=     2a
Ene=  -0.64163486207857379     
Spin= Alpha
Occup=     2.00000000
           1  0.10453398732864423     
           2 -0.20413463839160942     
           3  -3.2625850056639843E-002
           4   6.5252172404985806E-002
           5  0.33663630835096642     
           6   3.7511980986569979E-002
           7  -5.3398440178823944E-004
           8  -6.7724897207426304E-002
           9  0.10452324929892187     
          10 -0.20287672933387754     
          11   3.9520024595069141E-002
          12   6.5382024182870063E-002
          13 -0.52187560495757634     
          14 -0.18606724645007225     
          15   3.3526998593432396E-003
          16  -4.7915434248769671E-002
          17 -0.28228882116679999     
Sym=     3a
Ene=  -0.60723824248255165     
Spin= Alpha
Occup=     2.00000000
           1 -0.45069666748990195     
           2 -0.11706642562621047     
           3  -7.6145454576517127E-002
           4  -1.3180910472913045E-003
           5   1.3269328523369022E-005
           6  -3.2871397392499535E-003
           7 -0.18776935723750340     
           8  -3.3711355155262681E-004
           9  0.45069764173409693     
          10  0.11431494428896262     
          11  -8.0203857777582571E-002
          12   1.0487711735925125E-003
          13  -1.0965310474288242E-005
          14  -9.0370650376296376E-003
          15 -0.51636213198298631     
          16  -9.2093153398262455E-004
          17   6.0584496904100799E-006
Sym=     4a
Ene=  -0.59077183146394363     
Spin= Alpha
Occup=     2.00000000
           1   3.2422226766332503E-002
           2  0.13068060946378499     
           3  -3.4852229009815210E-002
           4 -0.24089638019243659     
           5 -0.37549510866072822     
           6  -3.1158107820595783E-002
           7   6.1901328235922115E-004
           8  -4.4076756614185496E-002
           9   3.2446110126544733E-002
          10  0.13183957633238713     
          11   3.1114321123021704E-002
          12 -0.24077890689314280     
          13   2.0258692940339166E-002
          14 -0.42098379799439684     
          15   7.8984910000987046E-003
          16 -0.29945651968850229     
          17 -0.33269535841487602     
Sym=     5a
Ene=  -0.52747165309684074     
Spin= Alpha
Occup=     2.00000000
           1  0.20882669119334113     
           2 -0.32624503521512238     
           3   8.5144631822448733E-002
           4  0.16381319868279862     
           5   7.3311992890026941E-006
           6   7.8842735924535313E-003
           7  0.45075363237683586     
           8   7.9899026635103895E-004
           9 -0.20881875093536853     
          10  0.32901432308330575     
          11   7.4256459258052451E-002
          12 -0.16354993890154981     
          13   3.9741744426932290E-006
          14  -6.8635562646164501E-003
          15 -0.39239059109008317     
          16  -7.2592359682378056E-004
          17   6.4599248126244653E-006
Sym=     6a
Ene=  -0.52284995948979829     
Spin= Alpha
Occup=     2.00000000
           1  -5.2002534312562118E-002
           2  0.24839152535722397     
           3  -3.3409499748562276E-003
           4  0.24611545193743956     
           5 -0.21520116440164366     
           6  0.21147357920269871     
           7  -4.0378175770131508E-003
           8  0.19709811690922607     
           9  -5.2016931161581792E-002
          10  0.24836963456077621     
          11  -6.2333876097066497E-003
          12  0.24609750829562380     
          13 -0.22467475396104261     
          14 -0.27822610307779755     
          15   3.9182890491016925E-003
          16  0.52270782260167015     
          17 -0.14379271707780925     
Sym=     7a
Ene=  -0.44872994813769995     
Spin= Alpha
Occup=     2.00000000
           1 -0.42675294501837058     
           2   7.3016014573417970E-002
           3 -0.35298496777982746     
           4   8.4701690420919393E-002
           5  0.38398212970463569     
           6 -0.11958174873907969     
           7   1.5197304029447821E-003
           8  0.32203792948859777     
           9 -0.42674822901759502     
          10   8.5327372503564841E-002
          11  0.34990426290159732     
          12   8.5956552656692178E-002
          13  0.21835835473170354     
          14  -8.5869732826550485E-002
          15   1.9336719758904978E-003
          16 -0.24002074787686600     
          17 -0.13263852393295220     
Sym=     8a
Ene=  -0.42679163739599418     
Spin= Alpha
Occup=     2.00000000
           1 -0.23592080938629079     
           2 -0.15549009413715739     
           3 -0.37066120076937376     
           4 -0.12405708393693672     
           5 -0.30841330731068106     
           6   3.1293008214209286E-002
           7   2.9716681274327000E-004
           8 -0.47133143872507638     
           9 -0.23592055805298348     
          10 -0.14241005781488569     
          11  0.37631953375580635     
          12 -0.12271620036004337     
          13 -0.14128365762608638     
          14   1.1820676057143709E-002
          15  -8.9211540732048156E-004
          16  0.38264229786935394     
          17  0.13036481049921178     
Sym=     9a
Ene=  -0.37136883194475789     
Spin= Alpha
Occup=     1.00000000
           1  -2.6703615504053556E-002
           2  -7.9172083887572714E-002
           3  -7.9451492933319087E-002
           4  0.20176812764191804     
           5 -0.31560969309798126     
           6  0.73526269530127519     
           7  -1.2790632648183926E-002
           8  -4.2952140794295351E-002
           9  -2.6690858913294022E-002
          10  -7.6363700159828463E-002
          11   8.1436891312483231E-002
          12  0.20202958139289892     
          13   3.8529889068012968E-002
          14  0.22041244730535273     
          15  -2.9605298966275044E-003
          16 -0.49890295451614741     
          17  -2.8106509232301295E-002
Sym=    10a
Ene=  -0.36479848381357788     
Spin= Alpha
Occup=     1.00000000
           1  0.24385125458450574     
           2 -0.18748168111552266     
           3  0.29257025372697276     
           4 -0.53737015192145388     
           5  -5.8169634407307971E-006
           6  -4.9523915394600691E-003
           7 -0.28391493443503979     
           8  -5.0579350746919269E-004
           9 -0.24385555384482213     
          10  0.19757280371051875     
          11  0.28390773036206440     
          12  0.53841005123567354     
          13  -1.3253280034873888E-006
          14  -4.0334253587444137E-003
          15 -0.23048682579692256     
          16  -4.2848402421884749E-004
          17   9.2097116418242893E-007
Sym=    11a
Ene=  -0.27733756298284057     
Spin= Alpha
Occup=     0.00000000
           1  0.10954551079797109     
           2  0.29011036479902680     
           3  0.51335789093224649     
           4  0.37744906115588217     
           5   4.3546959069963483E-007
           6  -6.0142918854187459E-003
           7 -0.34347156303665860     
           8  -6.1528740982288771E-004
           9 -0.10954763950597148     
          10 -0.27193439605829534     
          11  0.52455229584053742     
          12 -0.37558839201581162     
          13  -3.2676650472490383E-006
          14  -6.0342504306218434E-003
          15 -0.34446098098697808     
          16  -6.1839736103244420E-004
          17   3.5916604114025485E-006
Sym=    12a
Ene=  -0.23660722051549882     
Spin= Alpha
Occup=     0.00000000
           1   6.9396331159731039E-002
           2 -0.16025436491832407     
           3  -9.2043580325044047E-002
           4 -0.47415706770635585     
           5   6.2156106679873195E-002
           6  0.40052310912045924     
           7  -8.2269421763165040E-003
           8  0.67809467726769124     
           9   6.9395233720125057E-002
          10 -0.15691086119146835     
          11   9.9289854727991303E-002
          12 -0.47381709569260916     
          13 -0.28561690882439605     
          14   8.6269696545390826E-003
          15  -5.1084645041545495E-004
          16  0.20125678555521892     
          17  0.27151903614224543     
Sym=    13a
Ene=    3.1795910154570527E-002
Spin= Alpha
Occup=     0.00000000
           1  0.11652332789106894     
           2  0.44113214839172993     
           3 -0.16567687293615885     
           4   2.2365932408139250E-002
           5  0.13209260769269859     
           6 -0.11311309427687598     
           7   2.2814535918546344E-003
           8 -0.16217749811337315     
           9  0.11644469416457996     
          10  0.44656738109266148     
          11  0.14996321961798539     
          12   2.2957552975645144E-002
          13 -0.97127588192243308     
          14  -9.7341361391158995E-002
          15   2.4693534455863270E-003
          16 -0.46114075338158877     
          17  0.80776263624980960     
Sym=    14a
Ene=    9.1767373514435480E-002
Spin= Alpha
Occup=     0.00000000
           1 -0.48937983457577044     
           2 -0.47649909660254247     
           3  0.51088505820023344     
           4  0.12011979613556535     
           5   1.5699639990375877E-005
           6  -5.8352171582033523E-004
           7  -3.2943620425861797E-002
           8  -7.3748573731040608E-005
           9  0.48940495966601766     
          10  0.49418695569614479     
          11  0.49434369711629894     
          12 -0.11832325471577060     
          13  -9.0756132404670503E-005
          14   1.4003814583712738E-002
          15  0.79964490273507438     
          16   1.3946905880724586E-003
          17   6.9659465257869589E-005
Sym=    15a
Ene=   0.17050332024436324     
Spin= Alpha
Occup=     0.00000000
           1  0.44072465151446788     
           2 -0.47715416842558828     
           3 -0.34345001266323838     
           4  0.36054280222615176     
           5  -6.0576269684487723E-006
           6  -1.6590399689761001E-002
           7 -0.94716130881870064     
           8  -1.6939079182853847E-003
           9 -0.44071920175105544     
          10  0.46485620660222748     
          11 -0.35864366160846373     
          12 -0.36179410663103845     
          13  -6.9526356889290266E-006
          14   2.7650626923418692E-003
          15  0.15822954689919747     
          16   2.7919625353758573E-004
          17   1.0665431557682562E-005
Sym=    16a
Ene=   0.24519412466213436     
Spin= Alpha
Occup=     0.00000000
           1  -8.6842371945879612E-002
           2 -0.50805807777535839     
           3   9.5498367757669303E-002
           4  0.29500757502782676     
           5 -0.44588189048872018     
           6 -0.22890378534912623     
           7   3.5604840308943670E-003
           8  0.25462346099266187     
           9  -8.6827475202017779E-002
          10 -0.51111144404063524     
          11  -7.8696565259692680E-002
          12  0.29470012133698115     
          13  0.12254211674606078     
          14 -0.93447828502494257     
          15   1.6731671201275711E-002
          16 -0.19798093396731906     
          17  0.75011744206821418     
Sym=    17a
Ene=   0.47710120481579427     
Spin= Alpha
Occup=     0.00000000
           1 -0.58651669079590163     
           2  0.13634735741626403     
           3  0.48734253953631251     
           4 -0.25352927674133624     
           5  0.78565552310340747     
           6  0.65905348708099265     
           7  -1.0564309237536262E-002
           8 -0.54699341038452642     
           9 -0.58652448840315918     
          10  0.11922246788351769     
          11 -0.49091062037417244     
          12 -0.25528734523973495     
          13  0.18043779013021047     
          14 -0.56180789181597202     
          15   9.7237986661248658E-003
          16   6.5909042540166315E-002
          17  0.27147610079915874     
