      -----------------------------------------------------------      
     |                   =====================                   |     
     |                           x T B                           |     
     |                   =====================                   |     
     |                         S. Grimme                         |     
     |          Mulliken Center for Theoretical Chemistry        |     
     |                    University of Bonn                     |     
      -----------------------------------------------------------      

   * xtb version 6.2.2 (9d81278992624c895f80dd42a50cac0aa55982e2) compiled by '@Darwin' on 04/03/2020

   xtb is free software: you can redistribute it and/or modify it under
   the terms of the GNU Lesser General Public License as published by
   the Free Software Foundation, either version 3 of the License, or
   (at your option) any later version.
   
   xtb is distributed in the hope that it will be useful,
   but WITHOUT ANY WARRANTY; without even the implied warranty of
   MERCHANTABILITY or FITNESS FOR A PARTICULAR PURPOSE.  See the
   GNU Lesser General Public License for more details.
   
   Cite this work as:
   * S. Grimme, C. Bannwarth, P. Shushkov, J. Chem. Theory Comput., 2017,
     13, 1989-2009. DOI: 10.1021/acs.jctc.7b00118
   * C. Bannwarth, S. Ehlert and S. Grimme., J. Chem. Theory Comput., 2019,
     15, 1652-1671. DOI: 10.1021/acs.jctc.8b01176
   * P. Pracht, E. Caldeweyher, S. Ehlert, S. Grimme, ChemRxiv, 2019, preprint.
     DOI: 10.26434/chemrxiv.8326202.v1
   
   for DFT-D4:
   * E. Caldeweyher, C. Bannwarth and S. Grimme, J. Chem. Phys., 2017,
     147, 034112. DOI: 10.1063/1.4993215
   * E. Caldeweyher, S. Ehlert, A. Hansen, H. Neugebauer, S. Spicher,
     C. Bannwarth and S. Grimme, J. Chem. Phys., 2019, 150, 154122.
     DOI: 10.1063/1.5090222
   
   for sTDA-xTB:
   * S. Grimme and C. Bannwarth, J. Chem. Phys., 2016, 145, 054103.
     DOI: 10.1063/1.4959605
   
   in the mass-spec context:
   * V. Asgeirsson, C. Bauer and S. Grimme, Chem. Sci., 2017, 8, 4879.
     DOI: 10.1039/c7sc00601b
   
   for metadynamics refer to:
   * S. Grimme, J. Chem. Theory Comput., 2019, 155, 2847-2862
     DOI: 10.1021/acs.jctc.9b00143
   
   with help from (in alphabetical order)
   C. Bannwarth, F. Bohle, G. Brandenburg, E. Caldeweyher, M. Checinski,
   S. Dohm, S. Ehlert, S. Ehrlich, F. März, H. Neugebauer, J. Pisarek,
   P. Pracht, P. Shushkov, and S. Spicher.
   
 * started run on 2020/05/12 at 11:43:58.631     

           -------------------------------------------------
          |                Calculation Setup                |
           -------------------------------------------------

          program call               : xtb --input C4N1_4_S_1.input C4N1_4_S_1.xyz --ohess --molden --namespace C4N1_4_S_1 output.out
          calculation namespace      : C4N1_4_S_1
          coordinate file            : C4N1_4_S_1.xyz
          number of atoms            :                     5
          number of electrons        :                    21
          charge                     :                     0
          spin                       :                   0.5
          first test random number   :      0.39897320701336

   ID    Z sym.   atoms
    1    6 C      1, 2, 4, 5
    2    7 N      3

           -------------------------------------------------
          |                 G F N 2 - x T B                 |
           -------------------------------------------------

        Reference                      10.1021/acs.jctc.8b01176
      * Hamiltonian:
        H0-scaling (s, p, d)           1.850000    2.230000    2.230000
        zeta-weighting                 0.500000
      * Dispersion:
        s8                             2.700000
        a1                             0.520000
        a2                             5.000000
        s9                             5.000000
      * Repulsion:
        kExp                           1.500000    1.000000
        rExp                           1.000000
      * Coulomb:
        alpha                          2.000000
        third order                    shell-resolved
        anisotropic                    true
        a3                             3.000000
        a5                             4.000000
        cn-shift                       1.200000
        cn-exp                         4.000000
        max-rad                        5.000000


          ...................................................
          :                      SETUP                      :
          :.................................................:
          :  # basis functions                  20          :
          :  # atomic orbitals                  20          :
          :  # shells                           10          :
          :  # electrons                        21          :
          :  max. iterations                   250          :
          :  Hamiltonian                  GFN2-xTB          :
          :  restarted?                      false          :
          :  GBSA solvation                  false          :
          :  PC potential                    false          :
          :  electronic temp.          300.0000000     K    :
          :  accuracy                    1.0000000          :
          :  -> integral cutoff          0.2500000E+02      :
          :  -> integral neglect         0.1000000E-07      :
          :  -> SCF convergence          0.1000000E-05 Eh   :
          :  -> wf. convergence          0.1000000E-03 e    :
          :  Broyden damping             0.4000000          :
          ...................................................

 iter      E             dE          RMSdq      gap      omega  full diag
   1    -10.8344015 -0.108344E+02  0.131E+01    0.35       0.0  T
   2    -10.7206592  0.113742E+00  0.905E+00    0.11       1.0  T
   3     -9.4185329  0.130213E+01  0.138E+01    1.44       1.0  T
   4    -10.4576531 -0.103912E+01  0.648E+00    0.05       1.0  T
   5    -10.9056950 -0.448042E+00  0.232E+00    0.22       1.0  T
   6    -10.9086516 -0.295664E-02  0.149E+00    0.21       1.0  T
   7    -10.8639485  0.447031E-01  0.257E+00    0.25       1.0  T
   8    -10.9086556 -0.447071E-01  0.112E+00    0.21       1.0  T
   9    -10.9153629 -0.670728E-02  0.438E-01    0.23       1.0  T
  10    -10.9161925 -0.829629E-03  0.280E-01    0.24       1.0  T
  11    -10.9162607 -0.681942E-04  0.214E-01    0.24       1.0  T
  12    -10.9163303 -0.695688E-04  0.771E-02    0.25       1.0  T
  13    -10.9163381 -0.788167E-05  0.290E-02    0.25       1.5  T
  14    -10.9163380  0.102101E-06  0.149E-02    0.25       3.0  T
  15    -10.9163398 -0.177533E-05  0.194E-03    0.25      23.1  T
  16    -10.9163398 -0.387160E-08  0.771E-04    0.25      58.0  T
  17    -10.9163398 -0.177519E-08  0.192E-04    0.25     232.5  T

   *** convergence criteria satisfied after 17 iterations ***

         #    Occupation            Energy/Eh            Energy/eV
      -------------------------------------------------------------
         1        2.0000           -0.7305714             -19.8799
       ...           ...                  ...                  ...
         5        2.0000           -0.5639673             -15.3463
         6        2.0000           -0.5471977             -14.8900
         7        2.0000           -0.5395785             -14.6827
         8        2.0000           -0.5283647             -14.3775
         9        2.0000           -0.4844709             -13.1831
        10        2.0000           -0.4763867             -12.9631
        11        0.9915           -0.4384728             -11.9315 (HOMO)
        12        0.0085           -0.4294326             -11.6855 (LUMO)
        13                         -0.4106768             -11.1751
        14                         -0.3972106             -10.8087
        15                         -0.3725883             -10.1386
        16                         -0.3469967              -9.4423
       ...                                ...                  ...
        20                          0.0790766               2.1518
      -------------------------------------------------------------
                  HL-Gap            0.0090402 Eh            0.2460 eV
             Fermi-level           -0.4456912 Eh          -12.1279 eV

 SCC (total)                   0 d,  0 h,  0 min,  0.005 sec
 SCC setup                      ...        0 min,  0.000 sec (  1.772%)
 Dispersion                     ...        0 min,  0.000 sec (  0.289%)
 integral evaluation            ...        0 min,  0.001 sec ( 27.822%)
 zeroth order Hamiltonian       ...        0 min,  0.000 sec (  1.157%)
 iterations                     ...        0 min,  0.002 sec ( 34.101%)
 molecular gradient             ...        0 min,  0.002 sec ( 32.614%)
 printout                       ...        0 min,  0.000 sec (  2.121%)

         :::::::::::::::::::::::::::::::::::::::::::::::::::::
         ::                     SUMMARY                     ::
         :::::::::::::::::::::::::::::::::::::::::::::::::::::
         :: total energy             -10.867247045405 Eh    ::
         :: gradient norm              0.318475917502 Eh/a0 ::
         :: HOMO-LUMO gap              0.245995921130 eV    ::
         ::.................................................::
         :: SCC energy               -10.916339823379 Eh    ::
         :: -> isotropic ES           -0.044922533279 Eh    ::
         :: -> anisotropic ES         -0.000679866985 Eh    ::
         :: -> anisotropic XC          0.016500618651 Eh    ::
         :: -> dispersion             -0.003171632240 Eh    ::
         :: repulsion energy           0.049092489668 Eh    ::
         :: add. restraining           0.000000000000 Eh    ::
         :::::::::::::::::::::::::::::::::::::::::::::::::::::

      ----------------------------------------------------------- 
     |                   =====================                   |
     |                        A N C O P T                        |
     |                   =====================                   |
     |               Approximate Normal Coordinate               |
     |                Rational Function Optimizer                |
      ----------------------------------------------------------- 

          ...................................................
          :                      SETUP                      :
          :.................................................:
          :   optimization level            normal          :
          :   max. optcycles                   200          :
          :   ANC micro-cycles                  20          :
          :   degrees of freedom                 9          :
          :.................................................:
          :   RF solver                   davidson          :
          :   write xtbopt.log                true          :
          :   linear?                        false          :
          :   energy convergence         0.5000000E-05 Eh   :
          :   grad. convergence          0.1000000E-02 Eh/α :
          :   maximium RF displ.         1.0000000          :
          :   Hlow (freq-cutoff)         0.1000000E-01      :
          :   Hmax (freq-cutoff)         5.0000000          :
          :   S6 in model hess.         20.0000000          :
          ...................................................

generating ANC from model Hessian ...
Using Lindh-Hessian (1995)
 Shifting diagonal of input Hessian by    1.4262040744624626E-003
 Lowest  eigenvalues of input Hessian
   -0.000000   -0.000000   -0.000000    0.000000    0.000000    0.000000
    0.010000    0.025110    0.068810    0.090569    0.142314    0.536668
    0.909892    0.981330    1.201593
 Highest eigenvalues
    0.090569    0.142314    0.536668    0.909892    0.981330    1.201593


........................................................................
.............................. CYCLE    1 ..............................
........................................................................
   1    -10.9163398 -0.109163E+02  0.414E-05    0.25       0.0  T
   2    -10.9163398  0.927715E-09  0.326E-04    0.25     137.0  T
   3    -10.9163398 -0.780735E-09  0.135E-04    0.25     330.4  T
     SCC iter.                  ...        0 min,  0.000 sec
     gradient                   ...        0 min,  0.001 sec
 * total energy  :   -10.8672470 Eh     change        0.1957510E-09 Eh
   gradient norm :     0.3184752 Eh/α   predicted     0.0000000E+00 (-100.00%)
   displ. norm   :     0.4228256 α      lambda       -0.1216617E+00
   maximum displ.:     0.3237852 α      in ANC's #6, #7, #9, ...

........................................................................
.............................. CYCLE    2 ..............................
........................................................................
   1    -11.0539415 -0.110539E+02  0.279E+00    0.48       0.0  T
   2    -11.0134846  0.404569E-01  0.349E+00    0.42       1.0  T
   3    -11.0786401 -0.651555E-01  0.116E+00    0.47       1.0  T
   4    -11.0773517  0.128846E-02  0.526E-01    0.43       1.0  T
   5    -11.0786673 -0.131568E-02  0.199E-01    0.46       1.0  T
   6    -11.0788185 -0.151168E-03  0.744E-02    0.45       1.0  T
   7    -11.0778598  0.958717E-03  0.321E-01    0.45       1.0  T
   8    -11.0788344 -0.974594E-03  0.230E-02    0.45       1.9  T
   9    -11.0788384 -0.399814E-05  0.485E-03    0.45       9.2  T
  10    -11.0788384 -0.269323E-07  0.701E-04    0.45      63.8  T
  11    -11.0788384 -0.109362E-08  0.134E-04    0.45     333.0  T
     SCC iter.                  ...        0 min,  0.001 sec
     gradient                   ...        0 min,  0.002 sec
 * total energy  :   -10.9681085 Eh     change       -0.1008614E+00 Eh
   gradient norm :     0.1880493 Eh/α   predicted    -0.7170629E-01 ( -28.91%)
   displ. norm   :     0.5891950 α      lambda       -0.8965421E-01
   maximum displ.:     0.3125570 α      in ANC's #6, #3, #2, ...

........................................................................
.............................. CYCLE    3 ..............................
........................................................................
   1    -11.2473630 -0.112474E+02  0.410E+00    0.85       0.0  T
   2    -11.2562642 -0.890126E-02  0.268E+00    1.17       1.0  T
   3    -11.2620585 -0.579427E-02  0.175E+00    0.92       1.0  T
   4    -11.2582939  0.376460E-02  0.135E+00    1.14       1.0  T
   5    -11.2708738 -0.125799E-01  0.236E-01    1.01       1.0  T
   6    -11.2711594 -0.285542E-03  0.115E-01    1.03       1.0  T
   7    -11.2711664 -0.701007E-05  0.590E-02    1.01       1.0  T
   8    -11.2711748 -0.840591E-05  0.479E-02    1.02       1.0  T
   9    -11.2711964 -0.216653E-04  0.332E-03    1.02      13.5  T
  10    -11.2711965 -0.201606E-07  0.754E-04    1.02      59.3  T
  11    -11.2711965 -0.172769E-08  0.204E-04    1.02     219.0  T
     SCC iter.                  ...        0 min,  0.001 sec
     gradient                   ...        0 min,  0.001 sec
 * total energy  :   -10.9902243 Eh     change       -0.2211583E-01 Eh
   gradient norm :     0.3919687 Eh/α   predicted    -0.6038886E-01 ( 173.06%)
   displ. norm   :     0.5185202 α      lambda       -0.9400728E-01
   maximum displ.:     0.4575649 α      in ANC's #2, #3, #5, ...

........................................................................
.............................. CYCLE    4 ..............................
........................................................................
   1    -11.2020768 -0.112021E+02  0.214E+00    1.44       0.0  T
   2    -11.1986567  0.342011E-02  0.143E+00    1.41       1.0  T
   3    -11.1986738 -0.171176E-04  0.145E+00    1.34       1.0  T
   4    -11.2067468 -0.807296E-02  0.582E-01    1.45       1.0  T
   5    -11.2091875 -0.244069E-02  0.168E-01    1.41       1.0  T
   6    -11.2093423 -0.154769E-03  0.827E-02    1.40       1.0  T
   7    -11.2093356  0.666588E-05  0.327E-02    1.40       1.4  T
   8    -11.2093460 -0.103666E-04  0.435E-03    1.40      10.3  T
   9    -11.2093459  0.395112E-07  0.227E-03    1.40      19.7  T
  10    -11.2093459 -0.335791E-07  0.112E-03    1.40      40.1  T
  11    -11.2093460 -0.887263E-08  0.221E-04    1.40     202.7  T
  12    -11.2093460 -0.168484E-09  0.315E-05    1.40    1419.6  T
     SCC iter.                  ...        0 min,  0.001 sec
     gradient                   ...        0 min,  0.001 sec
 * total energy  :   -11.0324241 Eh     change       -0.4219980E-01 Eh
   gradient norm :     0.1296017 Eh/α   predicted    -0.5964119E-01 (  41.33%)
   displ. norm   :     0.6812478 α      lambda       -0.3795866E-01
   maximum displ.:     0.5687855 α      in ANC's #2, #3, #5, ...

........................................................................
.............................. CYCLE    5 ..............................
........................................................................
   1    -11.1878641 -0.111879E+02  0.284E+00    2.29       0.0  T
   2    -11.1875828  0.281303E-03  0.169E+00    2.29       1.0  T
   3    -11.1774391  0.101437E-01  0.150E+00    2.28       1.0  T
   4    -11.1890186 -0.115795E-01  0.222E-01    2.27       1.0  T
   5    -11.1890110  0.760052E-05  0.145E-01    2.27       1.0  T
   6    -11.1888052  0.205798E-03  0.216E-01    2.28       1.0  T
   7    -11.1890554 -0.250230E-03  0.626E-02    2.28       1.0  T
   8    -11.1890559 -0.523469E-06  0.191E-02    2.28       2.3  T
   9    -11.1890560 -0.136642E-06  0.169E-03    2.28      26.4  T
  10    -11.1890560  0.249161E-07  0.304E-03    2.28      14.7  T
  11    -11.1890560 -0.291009E-07  0.224E-03    2.28      20.0  T
  12    -11.1890561 -0.320051E-08  0.984E-05    2.28     454.7  T
  13    -11.1890561 -0.226148E-10  0.656E-05    2.28     681.7  T
     SCC iter.                  ...        0 min,  0.001 sec
     gradient                   ...        0 min,  0.001 sec
 * total energy  :   -11.0531890 Eh     change       -0.2076485E-01 Eh
   gradient norm :     0.1566915 Eh/α   predicted    -0.2778763E-01 (  33.82%)
   displ. norm   :     0.6379008 α      lambda       -0.4382118E-01
   maximum displ.:     0.5740268 α      in ANC's #3, #2, #6, ...

........................................................................
.............................. CYCLE    6 ..............................
........................................................................
   1    -11.2458355 -0.112458E+02  0.571E+00    2.26       0.0  T
   2    -11.1900066  0.558290E-01  0.394E+00    1.53       1.0  T
   3    -11.1039084  0.860982E-01  0.580E+00    2.56       1.0  T
   4    -11.2554494 -0.151541E+00  0.160E+00    2.03       1.0  T
   5    -11.2601727 -0.472322E-02  0.119E+00    2.07       1.0  T
   6    -11.2605279 -0.355273E-03  0.134E+00    2.10       1.0  T
   7    -11.2604782  0.496904E-04  0.596E-01    2.13       1.0  T
   8    -11.2610032 -0.524914E-03  0.319E-01    2.12       1.0  T
   9    -11.2610555 -0.523604E-04  0.283E-01    2.12       1.0  T
  10    -11.2612647 -0.209168E-03  0.157E-01    2.10       1.0  T
  11    -11.2612991 -0.343881E-04  0.585E-02    2.09       1.0  T
  12    -11.2613040 -0.491893E-05  0.289E-02    2.09       1.5  T
  13    -11.2613061 -0.210622E-05  0.109E-03    2.10      40.9  T
  14    -11.2613061 -0.286727E-08  0.518E-04    2.10      86.4  T
  15    -11.2613061 -0.111068E-08  0.377E-05    2.10    1185.9  T
     SCC iter.                  ...        0 min,  0.001 sec
     gradient                   ...        0 min,  0.002 sec
 * total energy  :   -11.0977396 Eh     change       -0.4455062E-01 Eh
   gradient norm :     0.1311281 Eh/α   predicted    -0.3082638E-01 ( -30.81%)
   displ. norm   :     0.3444954 α      lambda       -0.3648179E-01
   maximum displ.:     0.2864364 α      in ANC's #6, #5, #3, ...

........................................................................
.............................. CYCLE    7 ..............................
........................................................................
   1    -11.3403404 -0.113403E+02  0.201E+00    1.49       0.0  T
   2    -11.3394203  0.920150E-03  0.140E+00    1.60       1.0  T
   3    -11.3309317  0.848859E-02  0.139E+00    1.33       1.0  T
   4    -11.3420905 -0.111588E-01  0.224E-01    1.53       1.0  T
   5    -11.3422357 -0.145241E-03  0.938E-02    1.46       1.0  T
   6    -11.3422658 -0.300705E-04  0.621E-02    1.50       1.0  T
   7    -11.3422390  0.267696E-04  0.901E-02    1.49       1.0  T
   8    -11.3422751 -0.360597E-04  0.485E-03    1.48       9.2  T
   9    -11.3422751 -0.965943E-08  0.203E-03    1.48      22.0  T
  10    -11.3422751 -0.266413E-08  0.273E-04    1.48     163.6  T
  11    -11.3422751 -0.498357E-10  0.441E-05    1.48    1013.9  T
     SCC iter.                  ...        0 min,  0.001 sec
     gradient                   ...        0 min,  0.001 sec
 * total energy  :   -11.0916415 Eh     change        0.6098071E-02 Eh
   gradient norm :     0.2503572 Eh/α   predicted    -0.2040567E-01 (-434.62%)
   displ. norm   :     0.4148439 α      lambda       -0.6676031E-01
   maximum displ.:     0.4076194 α      in ANC's #3, #2, #9, ...

........................................................................
.............................. CYCLE    8 ..............................
........................................................................
   1    -11.3136241 -0.113136E+02  0.335E+00    2.89       0.0  T
   2    -11.2845845  0.290396E-01  0.364E+00    2.07       1.0  T
   3    -11.3227073 -0.381228E-01  0.160E+00    2.87       1.0  T
   4    -11.3200397  0.266759E-02  0.128E+00    2.59       1.0  T
   5    -11.3256726 -0.563291E-02  0.743E-01    2.70       1.0  T
   6    -11.3221362  0.353644E-02  0.114E+00    2.75       1.0  T
   7    -11.3264592 -0.432301E-02  0.615E-01    2.80       1.0  T
   8    -11.3268750 -0.415795E-03  0.848E-02    2.77       1.0  T
   9    -11.3268804 -0.537335E-05  0.285E-02    2.77       1.6  T
  10    -11.3268803  0.571765E-07  0.274E-02    2.77       1.6  T
  11    -11.3268813 -0.968734E-06  0.342E-03    2.77      13.1  T
  12    -11.3268813 -0.141294E-07  0.161E-03    2.77      27.8  T
  13    -11.3268813 -0.301423E-08  0.280E-04    2.77     159.4  T
  14    -11.3268813 -0.101316E-09  0.464E-05    2.77     964.8  T
     SCC iter.                  ...        0 min,  0.001 sec
     gradient                   ...        0 min,  0.002 sec
 * total energy  :   -11.1023372 Eh     change       -0.1069570E-01 Eh
   gradient norm :     0.1373195 Eh/α   predicted    -0.3912473E-01 ( 265.80%)
   displ. norm   :     0.4487184 α      lambda       -0.4673042E-01
   maximum displ.:     0.3184142 α      in ANC's #2, #5, #3, ...

........................................................................
.............................. CYCLE    9 ..............................
........................................................................
   1    -11.2452988 -0.112453E+02  0.251E+00    1.95       0.0  T
   2    -11.1599370  0.853618E-01  0.447E+00    2.37       1.0  T
   3    -11.2485635 -0.886265E-01  0.171E+00    1.89       1.0  T
   4    -11.2531247 -0.456124E-02  0.782E-01    2.16       1.0  T
   5    -11.2560137 -0.288897E-02  0.526E-01    2.05       1.0  T
   6    -11.2565175 -0.503834E-03  0.337E-01    2.06       1.0  T
   7    -11.2565878 -0.702726E-04  0.301E-01    2.09       1.0  T
   8    -11.2568981 -0.310256E-03  0.152E-01    2.11       1.0  T
   9    -11.2568781  0.199437E-04  0.176E-01    2.11       1.0  T
  10    -11.2569604 -0.823221E-04  0.360E-02    2.09       1.2  T
  11    -11.2569625 -0.206920E-05  0.240E-02    2.09       1.9  T
  12    -11.2569640 -0.144597E-05  0.322E-03    2.10      13.9  T
  13    -11.2569640 -0.254634E-07  0.720E-04    2.10      62.1  T
  14    -11.2569640 -0.133623E-08  0.143E-04    2.10     311.8  T
     SCC iter.                  ...        0 min,  0.001 sec
     gradient                   ...        0 min,  0.001 sec
 * total energy  :   -11.0965920 Eh     change        0.5745231E-02 Eh
   gradient norm :     0.1781688 Eh/α   predicted    -0.2806976E-01 (-588.58%)
   displ. norm   :     0.1931052 α      lambda       -0.2681476E-01
   maximum displ.:     0.1334613 α      in ANC's #2, #5, #6, ...

........................................................................
.............................. CYCLE   10 ..............................
........................................................................
   1    -11.3108944 -0.113109E+02  0.864E-01    2.29       0.0  T
   2    -11.3106901  0.204275E-03  0.689E-01    2.31       1.0  T
   3    -11.3098229  0.867274E-03  0.742E-01    2.35       1.0  T
   4    -11.3093463  0.476623E-03  0.646E-01    2.20       1.0  T
   5    -11.3105480 -0.120174E-02  0.510E-01    2.30       1.0  T
   6    -11.3112863 -0.738315E-03  0.267E-01    2.31       1.0  T
   7    -11.3115500 -0.263704E-03  0.424E-02    2.29       1.1  T
   8    -11.3115487  0.127793E-05  0.237E-02    2.29       1.9  T
   9    -11.3115514 -0.265172E-05  0.328E-03    2.29      13.6  T
  10    -11.3115514 -0.163374E-07  0.119E-03    2.29      37.4  T
  11    -11.3115514 -0.548827E-08  0.245E-04    2.29     182.3  T
  12    -11.3115514 -0.138400E-09  0.483E-05    2.29     926.5  T
     SCC iter.                  ...        0 min,  0.001 sec
     gradient                   ...        0 min,  0.001 sec
 * total energy  :   -11.1144265 Eh     change       -0.1783456E-01 Eh
   gradient norm :     0.0562109 Eh/α   predicted    -0.1390734E-01 ( -22.02%)
   displ. norm   :     0.3005972 α      lambda       -0.8421210E-02
   maximum displ.:     0.2034562 α      in ANC's #2, #6, #5, ...

........................................................................
.............................. CYCLE   11 ..............................
........................................................................
   1    -11.2953196 -0.112953E+02  0.149E+00    2.07       0.0  T
   2    -11.2817909  0.135288E-01  0.165E+00    1.70       1.0  T
   3    -11.2859798 -0.418891E-02  0.186E+00    2.22       1.0  T
   4    -11.2964227 -0.104429E-01  0.869E-01    2.10       1.0  T
   5    -11.2900218  0.640085E-02  0.153E+00    1.96       1.0  T
   6    -11.2990162 -0.899439E-02  0.355E-01    1.98       1.0  T
   7    -11.2992145 -0.198293E-03  0.311E-01    1.99       1.0  T
   8    -11.2994302 -0.215736E-03  0.126E-01    2.01       1.0  T
   9    -11.2994760 -0.457798E-04  0.184E-02    2.02       2.4  T
  10    -11.2994757  0.283042E-06  0.198E-02    2.02       2.3  T
  11    -11.2994764 -0.687492E-06  0.261E-03    2.02      17.1  T
  12    -11.2994764 -0.747086E-08  0.119E-03    2.02      37.6  T
  13    -11.2994764 -0.479234E-08  0.159E-04    2.02     280.9  T
  14    -11.2994764 -0.487521E-10  0.413E-05    2.02    1083.4  T
     SCC iter.                  ...        0 min,  0.001 sec
     gradient                   ...        0 min,  0.001 sec
 * total energy  :   -11.1106580 Eh     change        0.3768584E-02 Eh
   gradient norm :     0.1409285 Eh/α   predicted    -0.4591068E-02 (-221.82%)
   displ. norm   :     0.1807616 α      lambda       -0.1313513E-01
   maximum displ.:     0.1354809 α      in ANC's #2, #5, #6, ...

........................................................................
.............................. CYCLE   12 ..............................
........................................................................
   1    -11.3302780 -0.113303E+02  0.113E+00    2.20       0.0  T
   2    -11.3204074  0.987066E-02  0.160E+00    2.48       1.0  T
   3    -11.3306635 -0.102561E-01  0.912E-01    2.14       1.0  T
   4    -11.3302047  0.458801E-03  0.922E-01    2.19       1.0  T
   5    -11.3316601 -0.145537E-02  0.707E-01    2.23       1.0  T
   6    -11.3333017 -0.164159E-02  0.221E-01    2.24       1.0  T
   7    -11.3333502 -0.485786E-04  0.144E-01    2.23       1.0  T
   8    -11.3334243 -0.740557E-04  0.201E-02    2.25       2.2  T
   9    -11.3334247 -0.452999E-06  0.644E-03    2.25       6.9  T
  10    -11.3334248 -0.797437E-07  0.300E-03    2.25      14.9  T
  11    -11.3334248 -0.303419E-07  0.498E-04    2.25      89.9  T
  12    -11.3334248 -0.750934E-09  0.665E-05    2.25     672.6  T
     SCC iter.                  ...        0 min,  0.001 sec
     gradient                   ...        0 min,  0.002 sec
 * total energy  :   -11.1169824 Eh     change       -0.6324421E-02 Eh
   gradient norm :     0.0304860 Eh/α   predicted    -0.6782154E-02 (   7.24%)
   displ. norm   :     0.0818342 α      lambda       -0.1575355E-02
   maximum displ.:     0.0724357 α      in ANC's #2, #1, #5, ...

........................................................................
.............................. CYCLE   13 ..............................
........................................................................
   1    -11.3175716 -0.113176E+02  0.782E-01    2.19       0.0  T
   2    -11.2894515  0.281201E-01  0.250E+00    2.13       1.0  T
   3    -11.3144664 -0.250149E-01  0.114E+00    2.15       1.0  T
   4    -11.3171463 -0.267992E-02  0.698E-01    2.20       1.0  T
   5    -11.3185652 -0.141884E-02  0.256E-01    2.18       1.0  T
   6    -11.3185654 -0.239294E-06  0.249E-01    2.19       1.0  T
   7    -11.3185886 -0.231907E-04  0.229E-01    2.18       1.0  T
   8    -11.3187311 -0.142494E-03  0.110E-02    2.20       4.1  T
   9    -11.3187308  0.307201E-06  0.129E-02    2.20       3.5  T
  10    -11.3187312 -0.440791E-06  0.268E-03    2.20      16.7  T
  11    -11.3187312  0.502526E-09  0.214E-03    2.20      20.9  T
  12    -11.3187312 -0.694828E-08  0.772E-04    2.20      57.9  T
  13    -11.3187312 -0.974261E-09  0.144E-04    2.20     311.5  T
     SCC iter.                  ...        0 min,  0.001 sec
     gradient                   ...        0 min,  0.001 sec
 * total energy  :   -11.1175999 Eh     change       -0.6175173E-03 Eh
   gradient norm :     0.0291726 Eh/α   predicted    -0.7929522E-03 (  28.41%)
   displ. norm   :     0.2252794 α      lambda       -0.1270539E-02
   maximum displ.:     0.2076551 α      in ANC's #1, #2, #4, ...

........................................................................
.............................. CYCLE   14 ..............................
........................................................................
   1    -11.3122261 -0.113122E+02  0.201E+00    2.00       0.0  T
   2    -11.2797257  0.325004E-01  0.224E+00    1.82       1.0  T
   3    -11.3042878 -0.245621E-01  0.176E+00    2.01       1.0  T
   4    -11.3158811 -0.115933E-01  0.735E-01    1.93       1.0  T
   5    -11.3166021 -0.721013E-03  0.571E-01    1.98       1.0  T
   6    -11.3166593 -0.571304E-04  0.512E-01    1.96       1.0  T
   7    -11.3170023 -0.343040E-03  0.204E-01    1.96       1.0  T
   8    -11.3170502 -0.479337E-04  0.116E-01    1.96       1.0  T
   9    -11.3170665 -0.162936E-04  0.471E-02    1.96       1.0  T
  10    -11.3170702 -0.368957E-05  0.485E-03    1.96       9.2  T
  11    -11.3170702 -0.306538E-07  0.203E-03    1.96      22.0  T
  12    -11.3170703 -0.865538E-08  0.267E-04    1.96     167.2  T
  13    -11.3170703 -0.491092E-10  0.187E-04    1.96     238.6  T
     SCC iter.                  ...        0 min,  0.001 sec
     gradient                   ...        0 min,  0.001 sec
 * total energy  :   -11.1198414 Eh     change       -0.2241455E-02 Eh
   gradient norm :     0.0440792 Eh/α   predicted    -0.6675086E-03 ( -70.22%)
   displ. norm   :     0.8998351 α      lambda       -0.6359445E-02
   maximum displ.:     0.7817261 α      in ANC's #1, #2, #6, ...

........................................................................
.............................. CYCLE   15 ..............................
........................................................................
   1    -11.2177126 -0.112177E+02  0.435E+00    0.81       0.0  T
   2    -10.9900581  0.227654E+00  0.630E+00    0.07       1.0  T
   3    -11.2263167 -0.236259E+00  0.280E+00    0.89       1.0  T
   4    -11.2459882 -0.196716E-01  0.134E+00    0.55       1.0  T
   5    -11.2503008 -0.431258E-02  0.981E-01    0.63       1.0  T
   6    -11.2514923 -0.119149E-02  0.833E-01    0.63       1.0  T
   7    -11.2525335 -0.104118E-02  0.603E-01    0.61       1.0  T
   8    -11.2542271 -0.169356E-02  0.186E-01    0.55       1.0  T
   9    -11.2542612 -0.341932E-04  0.142E-01    0.55       1.0  T
  10    -11.2543046 -0.433433E-04  0.325E-02    0.54       1.4  T
  11    -11.2543069 -0.228825E-05  0.630E-03    0.53       7.1  T
  12    -11.2543069 -0.594870E-07  0.318E-03    0.53      14.0  T
  13    -11.2543070 -0.203289E-07  0.540E-04    0.53      82.9  T
  14    -11.2543070 -0.557199E-09  0.677E-05    0.53     660.3  T
     SCC iter.                  ...        0 min,  0.001 sec
     gradient                   ...        0 min,  0.001 sec
 * total energy  :   -11.0618506 Eh     change        0.5799075E-01 Eh
   gradient norm :     0.3154275 Eh/α   predicted    -0.5754390E-02 (-109.92%)
   displ. norm   :     0.4950827 α      lambda       -0.9472594E-01
   maximum displ.:     0.4692446 α      in ANC's #1, #4, #2, ...

........................................................................
.............................. CYCLE   16 ..............................
........................................................................
   1    -11.2928895 -0.112929E+02  0.282E+00    1.11       0.0  T
   2    -11.2785000  0.143896E-01  0.229E+00    1.57       1.0  T
   3    -11.3030218 -0.245219E-01  0.141E+00    1.12       1.0  T
   4    -11.3085531 -0.553128E-02  0.277E-01    1.34       1.0  T
   5    -11.3086687 -0.115609E-03  0.227E-01    1.24       1.0  T
   6    -11.3089748 -0.306051E-03  0.955E-02    1.28       1.0  T
   7    -11.3089846 -0.988137E-05  0.632E-02    1.27       1.0  T
   8    -11.3090049 -0.202295E-04  0.672E-03    1.27       6.7  T
   9    -11.3090049 -0.278772E-08  0.390E-03    1.27      11.5  T
  10    -11.3090049 -0.339805E-07  0.394E-04    1.27     113.6  T
  11    -11.3090049 -0.220966E-09  0.106E-04    1.27     421.3  T
     SCC iter.                  ...        0 min,  0.001 sec
     gradient                   ...        0 min,  0.001 sec
 * total energy  :   -11.1166456 Eh     change       -0.5479501E-01 Eh
   gradient norm :     0.0687436 Eh/α   predicted    -0.5897197E-01 (   7.62%)
   displ. norm   :     0.5514120 α      lambda       -0.1344123E-01
   maximum displ.:     0.4083172 α      in ANC's #1, #6, #9, ...

........................................................................
.............................. CYCLE   17 ..............................
........................................................................
   1    -11.3343293 -0.113343E+02  0.227E+00    1.64       0.0  T
   2    -11.3265011  0.782823E-02  0.184E+00    1.80       1.0  T
   3    -11.3288602 -0.235911E-02  0.156E+00    1.80       1.0  T
   4    -11.3357094 -0.684924E-02  0.636E-01    1.59       1.0  T
   5    -11.3382883 -0.257887E-02  0.262E-01    1.78       1.0  T
   6    -11.3384148 -0.126537E-03  0.177E-01    1.77       1.0  T
   7    -11.3384388 -0.239297E-04  0.125E-01    1.77       1.0  T
   8    -11.3384861 -0.473589E-04  0.879E-03    1.77       5.1  T
   9    -11.3384862 -0.770824E-07  0.542E-03    1.77       8.3  T
  10    -11.3384863 -0.763505E-07  0.701E-04    1.77      63.8  T
  11    -11.3384863  0.105532E-09  0.425E-04    1.77     105.3  T
     SCC iter.                  ...        0 min,  0.001 sec
     gradient                   ...        0 min,  0.001 sec
 * total energy  :   -11.1106528 Eh     change        0.5992777E-02 Eh
   gradient norm :     0.1807166 Eh/α   predicted    -0.8764047E-02 (-246.24%)
   displ. norm   :     0.5788827 α      lambda       -0.2667305E-01
   maximum displ.:     0.3801049 α      in ANC's #2, #6, #9, ...

........................................................................
.............................. CYCLE   18 ..............................
........................................................................
   1    -11.3536115 -0.113536E+02  0.306E+00    2.49       0.0  T
   2    -11.3261160  0.274956E-01  0.266E+00    2.64       1.0  T
   3    -11.2993931  0.267229E-01  0.400E+00    2.32       1.0  T
   4    -11.3533103 -0.539172E-01  0.162E+00    2.28       1.0  T
   5    -11.3603944 -0.708405E-02  0.470E-01    2.62       1.0  T
   6    -11.3608179 -0.423518E-03  0.712E-01    2.53       1.0  T
   7    -11.3607692  0.486870E-04  0.703E-01    2.52       1.0  T
   8    -11.3617376 -0.968401E-03  0.319E-01    2.55       1.0  T
   9    -11.3619667 -0.229081E-03  0.726E-02    2.56       1.0  T
  10    -11.3619696 -0.287926E-05  0.540E-02    2.56       1.0  T
  11    -11.3619691  0.438049E-06  0.363E-02    2.56       1.2  T
  12    -11.3619706 -0.148168E-05  0.240E-02    2.56       1.9  T
  13    -11.3619715 -0.882386E-06  0.946E-03    2.56       4.7  T
  14    -11.3619717 -0.176291E-06  0.282E-03    2.56      15.9  T
  15    -11.3619717 -0.171990E-07  0.381E-04    2.56     117.5  T
  16    -11.3619717 -0.264359E-09  0.115E-04    2.56     387.9  T
     SCC iter.                  ...        0 min,  0.002 sec
     gradient                   ...        0 min,  0.001 sec
 * total energy  :   -11.1139792 Eh     change       -0.3326348E-02 Eh
   gradient norm :     0.1413512 Eh/α   predicted    -0.1780568E-01 ( 435.29%)
   displ. norm   :     0.6851737 α      lambda       -0.3513972E-01
   maximum displ.:     0.5383156 α      in ANC's #2, #1, #4, ...

........................................................................
.............................. CYCLE   19 ..............................
........................................................................
   1    -11.2131079 -0.112131E+02  0.338E+00    1.31       0.0  T
   2    -11.1643355  0.487724E-01  0.328E+00    0.63       1.0  T
   3    -11.2028562 -0.385207E-01  0.236E+00    1.40       1.0  T
   4    -11.2038806 -0.102439E-02  0.191E+00    1.02       1.0  T
   5    -11.2297756 -0.258950E-01  0.353E-01    1.12       1.0  T
   6    -11.2302840 -0.508438E-03  0.237E-01    1.12       1.0  T
   7    -11.2302488  0.351938E-04  0.182E-01    1.12       1.0  T
   8    -11.2303645 -0.115715E-03  0.218E-02    1.13       2.1  T
   9    -11.2303642  0.325156E-06  0.173E-02    1.13       2.6  T
  10    -11.2303655 -0.124180E-05  0.158E-03    1.13      28.4  T
  11    -11.2303655 -0.548100E-08  0.737E-04    1.13      60.7  T
  12    -11.2303655 -0.169404E-08  0.829E-05    1.13     539.2  T
     SCC iter.                  ...        0 min,  0.001 sec
     gradient                   ...        0 min,  0.001 sec
 * total energy  :   -11.0853041 Eh     change        0.2867506E-01 Eh
   gradient norm :     0.2430844 Eh/α   predicted    -0.2581823E-01 (-190.04%)
   displ. norm   :     0.3432846 α      lambda       -0.5445097E-01
   maximum displ.:     0.2377886 α      in ANC's #2, #1, #5, ...

........................................................................
.............................. CYCLE   20 ..............................
........................................................................
   1    -11.3068562 -0.113069E+02  0.178E+00    1.61       0.0  T
   2    -11.2988619  0.799435E-02  0.169E+00    1.84       1.0  T
   3    -11.3115712 -0.127094E-01  0.907E-01    1.69       1.0  T
   4    -11.3115810 -0.980319E-05  0.506E-01    1.62       1.0  T
   5    -11.3132810 -0.169993E-02  0.176E-01    1.71       1.0  T
   6    -11.3133252 -0.442857E-04  0.987E-02    1.70       1.0  T
   7    -11.3133613 -0.360278E-04  0.569E-02    1.71       1.0  T
   8    -11.3133729 -0.115827E-04  0.614E-03    1.70       7.3  T
   9    -11.3133729 -0.454798E-07  0.199E-03    1.70      22.4  T
  10    -11.3133729 -0.217257E-07  0.338E-04    1.70     132.2  T
  11    -11.3133729 -0.920100E-10  0.111E-04    1.70     403.9  T
     SCC iter.                  ...        0 min,  0.001 sec
     gradient                   ...        0 min,  0.001 sec
 * total energy  :   -11.1206390 Eh     change       -0.3533486E-01 Eh
   gradient norm :     0.0494351 Eh/α   predicted    -0.3043386E-01 ( -13.87%)
   displ. norm   :     0.1374193 α      lambda       -0.4365427E-02
   maximum displ.:     0.0888081 α      in ANC's #1, #5, #2, ...
 * RMSD in coord.:     1.3519923 α      energy gain  -0.2533919E+00 Eh

generating ANC from model Hessian ...
Using Lindh-Hessian (1995)
 Shifting diagonal of input Hessian by    7.4380224688104443E-003
 Lowest  eigenvalues of input Hessian
   -0.000000   -0.000000   -0.000000    0.000000    0.000000    0.000000
    0.010000    0.012306    0.270410    0.361878    0.695716    1.296714
    1.312170    1.879185    2.863598
 Highest eigenvalues
    0.361878    0.695716    1.296714    1.312170    1.879185    2.863598


........................................................................
.............................. CYCLE   21 ..............................
........................................................................
   1    -11.3376880 -0.113377E+02  0.649E-01    1.89       0.0  T
   2    -11.3366724  0.101561E-02  0.631E-01    1.97       1.0  T
   3    -11.3382580 -0.158558E-02  0.339E-01    1.94       1.0  T
   4    -11.3380812  0.176817E-03  0.259E-01    1.88       1.0  T
   5    -11.3385111 -0.429966E-03  0.520E-02    1.93       1.0  T
   6    -11.3385142 -0.308478E-05  0.308E-02    1.93       1.5  T
   7    -11.3385161 -0.191422E-05  0.193E-02    1.94       2.3  T
   8    -11.3385174 -0.128739E-05  0.208E-03    1.93      21.5  T
   9    -11.3385174 -0.318970E-08  0.328E-04    1.93     136.4  T
  10    -11.3385174 -0.502482E-09  0.115E-04    1.93     390.0  T
     SCC iter.                  ...        0 min,  0.001 sec
     gradient                   ...        0 min,  0.001 sec
 * total energy  :   -11.1218838 Eh     change       -0.1244770E-02 Eh
   gradient norm :     0.0405383 Eh/α   predicted     0.0000000E+00 (-100.00%)
   displ. norm   :     0.2705571 α      lambda       -0.2038880E-02
   maximum displ.:     0.2430235 α      in ANC's #1, #2, #3, ...

........................................................................
.............................. CYCLE   22 ..............................
........................................................................
   1    -11.3285067 -0.113285E+02  0.880E-01    1.88       0.0  T
   2    -11.3284072  0.994890E-04  0.558E-01    1.87       1.0  T
   3    -11.3258802  0.252694E-02  0.661E-01    1.86       1.0  T
   4    -11.3285790 -0.269875E-02  0.104E-01    1.90       1.0  T
   5    -11.3286402 -0.611949E-04  0.329E-02    1.87       1.4  T
   6    -11.3286408 -0.580464E-06  0.210E-02    1.88       2.1  T
   7    -11.3286400  0.807036E-06  0.160E-02    1.88       2.8  T
   8    -11.3286414 -0.144639E-05  0.214E-03    1.88      20.9  T
   9    -11.3286414 -0.867750E-08  0.104E-03    1.88      43.1  T
  10    -11.3286414 -0.192545E-08  0.145E-04    1.88     307.8  T
  11    -11.3286414 -0.227693E-10  0.203E-05    1.88    2206.6  T
     SCC iter.                  ...        0 min,  0.001 sec
     gradient                   ...        0 min,  0.001 sec
 * total energy  :   -11.1217174 Eh     change        0.1663461E-03 Eh
   gradient norm :     0.0186852 Eh/α   predicted    -0.1094070E-02 (-757.71%)
   displ. norm   :     0.2405691 α      lambda       -0.2998849E-02
   maximum displ.:     0.2306765 α      in ANC's #2, #1, #5, ...

........................................................................
.............................. CYCLE   23 ..............................
........................................................................
   1    -11.3288765 -0.113289E+02  0.820E-01    1.86       0.0  T
   2    -11.3288516  0.249098E-04  0.485E-01    1.81       1.0  T
   3    -11.3276129  0.123865E-02  0.455E-01    1.93       1.0  T
   4    -11.3289584 -0.134552E-02  0.563E-02    1.83       1.0  T
   5    -11.3289662 -0.773513E-05  0.357E-02    1.84       1.3  T
   6    -11.3289702 -0.400542E-05  0.143E-02    1.84       3.1  T
   7    -11.3289712 -0.965908E-06  0.493E-03    1.84       9.1  T
   8    -11.3289713 -0.135197E-06  0.128E-03    1.84      34.9  T
   9    -11.3289713 -0.196960E-08  0.168E-04    1.84     265.8  T
  10    -11.3289713 -0.237339E-10  0.686E-05    1.84     651.8  T
     SCC iter.                  ...        0 min,  0.001 sec
     gradient                   ...        0 min,  0.001 sec
 * total energy  :   -11.1228047 Eh     change       -0.1087304E-02 Eh
   gradient norm :     0.0186063 Eh/α   predicted    -0.1586197E-02 (  45.88%)
   displ. norm   :     0.2640372 α      lambda       -0.1258858E-02
   maximum displ.:     0.2370747 α      in ANC's #1, #2, #3, ...

........................................................................
.............................. CYCLE   24 ..............................
........................................................................
   1    -11.3370248 -0.113370E+02  0.968E-01    1.84       0.0  T
   2    -11.3370210  0.384051E-05  0.575E-01    1.87       1.0  T
   3    -11.3357991  0.122187E-02  0.461E-01    1.76       1.0  T
   4    -11.3371039 -0.130482E-02  0.850E-02    1.86       1.0  T
   5    -11.3371357 -0.317918E-04  0.378E-02    1.85       1.2  T
   6    -11.3371370 -0.131013E-05  0.170E-02    1.85       2.6  T
   7    -11.3371385 -0.149088E-05  0.788E-03    1.85       5.7  T
   8    -11.3371389 -0.440500E-06  0.615E-04    1.85      72.7  T
   9    -11.3371389  0.777920E-10  0.225E-04    1.85     198.7  T
     SCC iter.                  ...        0 min,  0.001 sec
     gradient                   ...        0 min,  0.001 sec
 * total energy  :   -11.1228989 Eh     change       -0.9419681E-04 Eh
   gradient norm :     0.0175013 Eh/α   predicted    -0.6733148E-03 ( 614.80%)
   displ. norm   :     0.1004024 α      lambda       -0.5091958E-03
   maximum displ.:     0.0953264 α      in ANC's #1, #2, #3, ...

........................................................................
.............................. CYCLE   25 ..............................
........................................................................
   1    -11.3360393 -0.113360E+02  0.343E-01    1.84       0.0  T
   2    -11.3360395 -0.224903E-06  0.204E-01    1.83       1.0  T
   3    -11.3358967  0.142770E-03  0.160E-01    1.86       1.0  T
   4    -11.3360479 -0.151207E-03  0.308E-02    1.83       1.5  T
   5    -11.3360525 -0.452834E-05  0.132E-02    1.84       3.4  T
   6    -11.3360527 -0.258885E-06  0.632E-03    1.84       7.1  T
   7    -11.3360528 -0.102171E-06  0.375E-03    1.83      11.9  T
   8    -11.3360529 -0.100204E-06  0.312E-04    1.84     143.3  T
   9    -11.3360529 -0.380798E-10  0.756E-05    1.84     591.8  T
     SCC iter.                  ...        0 min,  0.001 sec
     gradient                   ...        0 min,  0.001 sec
 * total energy  :   -11.1232856 Eh     change       -0.3866795E-03 Eh
   gradient norm :     0.0092546 Eh/α   predicted    -0.2571634E-03 ( -33.49%)
   displ. norm   :     0.1283466 α      lambda       -0.4573711E-03
   maximum displ.:     0.0917138 α      in ANC's #1, #2, #3, ...

........................................................................
.............................. CYCLE   26 ..............................
........................................................................
   1    -11.3306176 -0.113306E+02  0.456E-01    1.78       0.0  T
   2    -11.3305886  0.289031E-04  0.284E-01    1.75       1.0  T
   3    -11.3302214  0.367230E-03  0.284E-01    1.82       1.0  T
   4    -11.3306488 -0.427397E-03  0.657E-02    1.77       1.0  T
   5    -11.3306733 -0.245273E-04  0.171E-02    1.77       2.6  T
   6    -11.3306728  0.562057E-06  0.129E-02    1.78       3.5  T
   7    -11.3306736 -0.821760E-06  0.462E-03    1.77       9.7  T
   8    -11.3306737 -0.131841E-06  0.701E-04    1.77      63.8  T
   9    -11.3306737 -0.672840E-09  0.191E-04    1.77     233.8  T
     SCC iter.                  ...        0 min,  0.001 sec
     gradient                   ...        0 min,  0.001 sec
 * total energy  :   -11.1234800 Eh     change       -0.1944297E-03 Eh
   gradient norm :     0.0131757 Eh/α   predicted    -0.2324535E-03 (  19.56%)
   displ. norm   :     0.0445104 α      lambda       -0.1756091E-03
   maximum displ.:     0.0391711 α      in ANC's #1, #3, #5, ...

........................................................................
.............................. CYCLE   27 ..............................
........................................................................
   1    -11.3329083 -0.113329E+02  0.163E-01    1.77       0.0  T
   2    -11.3329070  0.132111E-05  0.999E-02    1.78       1.0  T
   3    -11.3328691  0.378697E-04  0.887E-02    1.76       1.0  T
   4    -11.3329125 -0.433843E-04  0.189E-02    1.78       2.4  T
   5    -11.3329144 -0.190969E-05  0.637E-03    1.77       7.0  T
   6    -11.3329144  0.183823E-07  0.380E-03    1.77      11.8  T
   7    -11.3329144 -0.607298E-07  0.195E-03    1.77      22.9  T
   8    -11.3329145 -0.259599E-07  0.147E-04    1.77     305.1  T
   9    -11.3329145 -0.141700E-10  0.154E-05    1.77    2902.8  T
     SCC iter.                  ...        0 min,  0.001 sec
     gradient                   ...        0 min,  0.001 sec
 * total energy  :   -11.1236125 Eh     change       -0.1324859E-03 Eh
   gradient norm :     0.0071484 Eh/α   predicted    -0.8797933E-04 ( -33.59%)
   displ. norm   :     0.0797945 α      lambda       -0.2229692E-03
   maximum displ.:     0.0564090 α      in ANC's #3, #2, #1, ...

........................................................................
.............................. CYCLE   28 ..............................
........................................................................
   1    -11.3342973 -0.113343E+02  0.272E-01    1.75       0.0  T
   2    -11.3342991 -0.174288E-05  0.160E-01    1.75       1.0  T
   3    -11.3342460  0.530410E-04  0.967E-02    1.75       1.0  T
   4    -11.3343029 -0.568510E-04  0.179E-02    1.75       2.5  T
   5    -11.3343035 -0.612535E-06  0.125E-02    1.75       3.6  T
   6    -11.3343040 -0.467026E-06  0.470E-03    1.75       9.5  T
   7    -11.3343041 -0.116372E-06  0.213E-03    1.75      21.0  T
   8    -11.3343041 -0.292730E-07  0.326E-04    1.75     137.0  T
   9    -11.3343041 -0.293561E-10  0.312E-05    1.75    1432.1  T
     SCC iter.                  ...        0 min,  0.001 sec
     gradient                   ...        0 min,  0.002 sec
 * total energy  :   -11.1237558 Eh     change       -0.1433196E-03 Eh
   gradient norm :     0.0052799 Eh/α   predicted    -0.1121931E-03 ( -21.72%)
   displ. norm   :     0.0399692 α      lambda       -0.5417879E-04
   maximum displ.:     0.0264472 α      in ANC's #3, #2, #5, ...

........................................................................
.............................. CYCLE   29 ..............................
........................................................................
   1    -11.3352627 -0.113353E+02  0.132E-01    1.75       0.0  T
   2    -11.3352621  0.514811E-06  0.785E-02    1.75       1.0  T
   3    -11.3352365  0.256258E-04  0.682E-02    1.74       1.0  T
   4    -11.3352654 -0.288829E-04  0.835E-03    1.75       5.4  T
   5    -11.3352655 -0.147708E-06  0.570E-03    1.75       7.9  T
   6    -11.3352656 -0.627998E-07  0.296E-03    1.75      15.1  T
   7    -11.3352657 -0.470936E-07  0.125E-03    1.75      35.8  T
   8    -11.3352657 -0.863275E-08  0.141E-04    1.75     317.0  T
   9    -11.3352657 -0.575184E-11  0.110E-05    1.75    4072.7  T
     SCC iter.                  ...        0 min,  0.001 sec
     gradient                   ...        0 min,  0.001 sec
 * total energy  :   -11.1237922 Eh     change       -0.3636870E-04 Eh
   gradient norm :     0.0035471 Eh/α   predicted    -0.2713136E-04 ( -25.40%)
   displ. norm   :     0.0219384 α      lambda       -0.2056651E-04
   maximum displ.:     0.0154320 α      in ANC's #2, #3, #5, ...

........................................................................
.............................. CYCLE   30 ..............................
........................................................................
   1    -11.3357682 -0.113358E+02  0.743E-02    1.76       0.0  T
   2    -11.3357675  0.661612E-06  0.450E-02    1.76       1.0  T
   3    -11.3357561  0.113817E-04  0.452E-02    1.75       1.0  T
   4    -11.3357693 -0.132233E-04  0.495E-03    1.76       9.0  T
   5    -11.3357694 -0.510091E-07  0.360E-03    1.76      12.4  T
   6    -11.3357694 -0.338527E-07  0.137E-03    1.76      32.5  T
   7    -11.3357694 -0.118080E-07  0.202E-04    1.76     221.7  T
   8    -11.3357694 -0.783285E-10  0.967E-05    1.76     462.5  T
     SCC iter.                  ...        0 min,  0.001 sec
     gradient                   ...        0 min,  0.001 sec
 * total energy  :   -11.1238064 Eh     change       -0.1419961E-04 Eh
   gradient norm :     0.0023756 Eh/α   predicted    -0.1028775E-04 ( -27.55%)
   displ. norm   :     0.0118038 α      lambda       -0.1101962E-04
   maximum displ.:     0.0078508 α      in ANC's #2, #5, #3, ...

........................................................................
.............................. CYCLE   31 ..............................
........................................................................
   1    -11.3358607 -0.113359E+02  0.463E-02    1.77       0.0  T
   2    -11.3358606  0.171001E-06  0.276E-02    1.77       1.6  T
   3    -11.3358561  0.442853E-05  0.267E-02    1.77       1.7  T
   4    -11.3358611 -0.497446E-05  0.256E-03    1.77      17.5  T
   5    -11.3358611  0.604389E-08  0.246E-03    1.77      18.2  T
   6    -11.3358611 -0.280671E-07  0.605E-04    1.77      73.9  T
   7    -11.3358611  0.533920E-10  0.312E-04    1.77     143.3  T
     SCC iter.                  ...        0 min,  0.001 sec
     gradient                   ...        0 min,  0.001 sec
 * total energy  :   -11.1238142 Eh     change       -0.7797832E-05 Eh
   gradient norm :     0.0016846 Eh/α   predicted    -0.5509451E-05 ( -29.35%)
   displ. norm   :     0.0106966 α      lambda       -0.7796304E-05
   maximum displ.:     0.0068623 α      in ANC's #5, #6, #1, ...

........................................................................
.............................. CYCLE   32 ..............................
........................................................................
   1    -11.3356553 -0.113357E+02  0.507E-02    1.79       0.0  T
   2    -11.3356554 -0.842720E-07  0.291E-02    1.79       1.5  T
   3    -11.3356536  0.174170E-05  0.182E-02    1.79       2.5  T
   4    -11.3356556 -0.193561E-05  0.247E-03    1.79      18.1  T
   5    -11.3356556 -0.843155E-08  0.186E-03    1.79      24.1  T
   6    -11.3356556 -0.121058E-07  0.772E-04    1.79      57.9  T
   7    -11.3356556 -0.207256E-08  0.927E-05    1.79     482.6  T
     SCC iter.                  ...        0 min,  0.001 sec
     gradient                   ...        0 min,  0.001 sec
 * total energy  :   -11.1238207 Eh     change       -0.6551657E-05 Eh
   gradient norm :     0.0015616 Eh/α   predicted    -0.3898089E-05 ( -40.50%)
   displ. norm   :     0.0104619 α      lambda       -0.3309148E-05
   maximum displ.:     0.0069724 α      in ANC's #2, #3, #1, ...

........................................................................
.............................. CYCLE   33 ..............................
........................................................................
   1    -11.3354511 -0.113355E+02  0.320E-02    1.79       0.0  T
   2    -11.3354509  0.222240E-06  0.198E-02    1.79       2.3  T
   3    -11.3354488  0.212849E-05  0.212E-02    1.79       2.1  T
   4    -11.3354514 -0.261384E-05  0.321E-03    1.79      13.9  T
   5    -11.3354514 -0.493046E-07  0.148E-03    1.79      30.2  T
   6    -11.3354514 -0.266203E-08  0.692E-04    1.79      64.6  T
   7    -11.3354514 -0.279955E-08  0.147E-04    1.79     304.3  T
     SCC iter.                  ...        0 min,  0.001 sec
     gradient                   ...        0 min,  0.002 sec
 * total energy  :   -11.1238243 Eh     change       -0.3554785E-05 Eh
   gradient norm :     0.0009487 Eh/α   predicted    -0.1655548E-05 ( -53.43%)
   displ. norm   :     0.0078869 α      lambda       -0.1652283E-05
   maximum displ.:     0.0050257 α      in ANC's #1, #2, #3, ...

   *** GEOMETRY OPTIMIZATION CONVERGED AFTER 33 ITERATIONS ***

------------------------------------------------------------------------
 total energy gain   :        -0.2565772 Eh     -161.0047 kcal/mol
 total RMSD          :         1.3785452 a0        0.7295 Å
 total power (kW/mol):       -20.4134387 (step)-5477.4068 (real)
------------------------------------------------------------------------

 ANCopt (total)                0 d,  0 h,  0 min,  0.123 sec
 optimizer setup                ...        0 min,  0.000 sec (  0.044%)
 model hessian                  ...        0 min,  0.000 sec (  0.079%)
 ANC generation                 ...        0 min,  0.000 sec (  0.063%)
 coordinate transformation      ...        0 min,  0.000 sec (  0.064%)
 single point calculation       ...        0 min,  0.120 sec ( 97.864%)
 optimization log               ...        0 min,  0.001 sec (  0.665%)
 hessian update                 ...        0 min,  0.000 sec (  0.045%)
 rational function              ...        0 min,  0.001 sec (  0.558%)

================
 final structure:
================
5
 xtb: 6.2.2 (9d81278992624c895f80dd42a50cac0aa55982e2)
C        -1.55333191061757   -0.65293093951530    0.04678214009172
C        -0.25903987209467    0.07701239873236    0.00389886506076
N         1.03139452988153   -0.02605317944751   -0.01817345370433
C        -1.42262530505079    0.74252318309843    0.00966186366408
C         2.20360255788151   -0.14055146286798   -0.04216941511223

 Bond Distances (Angstroems)
 ---------------------------
C1-C2=1.4866         C1-C4=1.4021         C2-C1=1.4866         C2-N3=1.2947         C2-C4=1.3405         N3-C2=1.2947         
N3-C5=1.1780         C4-C1=1.4021         C4-C2=1.3405         C5-N3=1.1780         
 C  C  Rav=1.4097 sigma=0.0599  Rmin=1.3405  Rmax=1.4866     3
 N  C  Rav=1.2364 sigma=0.0584  Rmin=1.1780  Rmax=1.2947     2

 selected bond angles (degree)
 --------------------
C4-C1-C2= 55.20                N3-C2-C1=146.01                C4-C2-C1= 59.20                C4-C2-N3=154.79                
C5-N3-C2=178.97                C2-C4-C1= 65.60                

 selected dihedral angles (degree)
 ---------------------------------
N3-C2-C1-C4=179.99            C5-N3-C2-C1= 12.17            C5-N3-C2-C4=192.16            C1-C4-C2-N3=180.01            
           -------------------------------------------------
          |                Final Singlepoint                |
           -------------------------------------------------

          ...................................................
          :                      SETUP                      :
          :.................................................:
          :  # basis functions                  20          :
          :  # atomic orbitals                  20          :
          :  # shells                           10          :
          :  # electrons                        21          :
          :  max. iterations                   250          :
          :  Hamiltonian                  GFN2-xTB          :
          :  restarted?                      false          :
          :  GBSA solvation                  false          :
          :  PC potential                    false          :
          :  electronic temp.          300.0000000     K    :
          :  accuracy                    1.0000000          :
          :  -> integral cutoff          0.2500000E+02      :
          :  -> integral neglect         0.1000000E-07      :
          :  -> SCF convergence          0.1000000E-05 Eh   :
          :  -> wf. convergence          0.1000000E-03 e    :
          :  Broyden damping             0.4000000          :
          ...................................................

 iter      E             dE          RMSdq      gap      omega  full diag
   1    -11.3354514 -0.113355E+02  0.541E-05    1.79       0.0  T
   2    -11.3354514  0.352429E-11  0.349E-05    1.79    1282.8  T
   3    -11.3354514  0.143885E-11  0.402E-05    1.79    1113.2  T

   *** convergence criteria satisfied after 3 iterations ***

         #    Occupation            Energy/Eh            Energy/eV
      -------------------------------------------------------------
         1        2.0000           -0.7286417             -19.8273
       ...           ...                  ...                  ...
         5        2.0000           -0.5854787             -15.9317
         6        2.0000           -0.5451237             -14.8336
         7        2.0000           -0.5272659             -14.3476
         8        2.0000           -0.5046604             -13.7325
         9        2.0000           -0.4772598             -12.9869
        10        2.0000           -0.4318704             -11.7518
        11        1.0000           -0.4087553             -11.1228 (HOMO)
        12                         -0.3430546              -9.3350 (LUMO)
        13                         -0.2880672              -7.8387
        14                         -0.2724534              -7.4138
        15                         -0.1989908              -5.4148
        16                         -0.0323822              -0.8812
       ...                                ...                  ...
        20                          1.0706372              29.1335
      -------------------------------------------------------------
                  HL-Gap            0.0657007 Eh            1.7878 eV
             Fermi-level           -0.3985476 Eh          -10.8450 eV

 SCC (total)                   0 d,  0 h,  0 min,  0.003 sec
 SCC setup                      ...        0 min,  0.000 sec (  1.374%)
 Dispersion                     ...        0 min,  0.000 sec (  0.450%)
 integral evaluation            ...        0 min,  0.001 sec ( 40.779%)
 zeroth order Hamiltonian       ...        0 min,  0.000 sec (  0.483%)
 iterations                     ...        0 min,  0.000 sec ( 15.678%)
 molecular gradient             ...        0 min,  0.001 sec ( 39.004%)
 printout                       ...        0 min,  0.000 sec (  1.987%)

         :::::::::::::::::::::::::::::::::::::::::::::::::::::
         ::                     SUMMARY                     ::
         :::::::::::::::::::::::::::::::::::::::::::::::::::::
         :: total energy             -11.123824295025 Eh    ::
         :: gradient norm              0.000948759045 Eh/a0 ::
         :: HOMO-LUMO gap              1.787806866626 eV    ::
         ::.................................................::
         :: SCC energy               -11.335451429118 Eh    ::
         :: -> isotropic ES           -0.015411361778 Eh    ::
         :: -> anisotropic ES          0.000609055292 Eh    ::
         :: -> anisotropic XC          0.016907516219 Eh    ::
         :: -> dispersion             -0.002807366155 Eh    ::
         :: repulsion energy           0.211627206759 Eh    ::
         :: add. restraining           0.000000000000 Eh    ::
         :::::::::::::::::::::::::::::::::::::::::::::::::::::

           ------------------------------------------------- 
          |                Numerical Hessian                |
           ------------------------------------------------- 
step length          :   0.00500
SCC accuracy         :   0.30000
Hessian scale factor :   1.00000
frozen atoms in %    :   0.00000    0
RMS gradient         :   0.00095
estimated CPU  time      0.00 min
estimated wall time      0.00 min

writing file <hessian>.

 projected vibrational frequencies (cm-1)
eigval :       -0.00    -0.00    -0.00    -0.00     0.00     0.00
eigval :      185.74   192.23   444.42   488.67   731.85  1010.65
eigval :     1228.61  1812.57  2099.66
           -------------------------------------------------
          |                Property Printout                |
           -------------------------------------------------

    * Orbital Energies and Occupations

         #    Occupation            Energy/Eh            Energy/eV
      -------------------------------------------------------------
         1        2.0000           -0.7286416             -19.8273
         2        2.0000           -0.7180426             -19.5389
         3        2.0000           -0.6769996             -18.4221
         4        2.0000           -0.6067744             -16.5112
         5        2.0000           -0.5854785             -15.9317
         6        2.0000           -0.5451237             -14.8336
         7        2.0000           -0.5272660             -14.3476
         8        2.0000           -0.5046604             -13.7325
         9        2.0000           -0.4772596             -12.9869
        10        2.0000           -0.4318705             -11.7518
        11        1.0000           -0.4087554             -11.1228 (HOMO)
        12                         -0.3430545              -9.3350 (LUMO)
        13                         -0.2880674              -7.8387
        14                         -0.2724532              -7.4138
        15                         -0.1989907              -5.4148
        16                         -0.0323822              -0.8812
        17                          0.0360476               0.9809
        18                          0.2992488               8.1430
        19                          0.5632144              15.3258
        20                          1.0706372              29.1335
      -------------------------------------------------------------
                  HL-Gap            0.0657009 Eh            1.7878 eV
             Fermi-level           -0.3985477 Eh          -10.8450 eV

     #   Z        covCN         q      C6AA      α(0)
     1   6 C      1.958    -0.114    34.251     9.451
     2   6 C      2.875     0.163    24.473     8.110
     3   7 N      1.821     0.060    20.844     6.765
     4   6 C      1.961    -0.017    31.515     9.066
     5   6 C      0.916    -0.093    38.383    10.371

 Mol. C6AA /au·bohr⁶  :        737.302154
 Mol. C8AA /au·bohr⁸  :      20428.820797
 Mol. α(0) /au        :         43.762827


Wiberg/Mayer (AO) data.
largest (>0.10) Wiberg bond orders for each atom
          total WBO             WBO to atom ...
     1  C   2.533        C    4 1.318    C    2 1.055    C    5 0.130
     2  C   3.835        C    4 1.468    N    3 1.257    C    1 1.055
     3  N   3.710        C    5 2.375    C    2 1.257
     4  C   2.950        C    2 1.468    C    1 1.318    C    5 0.118
     5  C   2.678        N    3 2.375    C    1 0.130    C    4 0.118

MOs/occ written to file <molden.input>


molecular dipole:
                 x           y           z       tot (Debye)
 q only:        0.032       0.163      -0.004
   full:        0.077       0.451      -0.011       1.163
molecular quadrupole (traceless):
                xx          xy          yy          xz          yz          zz
 q only:       -2.339      -0.398       1.013       0.085       0.016       1.326
  q+dip:       -5.759      -1.987       2.552       0.230       0.055       3.207
   full:       -8.382      -1.760       2.286       0.337       0.128       6.095

           -------------------------------------------------
          |                Geometry Summary                 |
           -------------------------------------------------

      molecular mass/u    :       62.0496468
   center of mass at/Å    :        0.0331771      -0.0008382      -0.0005847
  moments of inertia/u·Å² :        0.1186508E+02   0.1274971E+03   0.1393620E+03
rotational constants/cm⁻¹ :        0.1420777E+01   0.1322197E+00   0.1209629E+00

 * 3 selected distances

     #   Z        #   Z                                     value/Å
     2   6 C      3   7 N                                 1.2947319
     2   6 C      4   6 C                                 1.3404734 (max)
     3   7 N      5   6 C                                 1.1780311 (min)

 * 2 distinct bonds (by element types)

   Z      Z             #   av. dist./Å        max./Å        min./Å
   6 C    6 C           1     1.3404734     1.3404734     1.3404734
   6 C    7 N           2     1.2363815     1.2947319     1.1780311

           -------------------------------------------------
          |               Frequency Printout                |
           -------------------------------------------------
 projected vibrational frequencies (cm-1)
eigval :       -0.00    -0.00    -0.00    -0.00     0.00     0.00
eigval :      185.74   192.23   444.42   488.67   731.85  1010.65
eigval :     1228.61  1812.57  2099.66
 reduced masses (amu)
   1: 12.50   2: 12.29   3: 12.15   4: 12.32   5: 12.54   6: 12.05   7: 12.72   8: 12.40
   9: 12.97  10: 12.63  11: 12.30  12: 12.13  13: 12.05  14: 12.01  15: 13.09
 IR intensities (amu)
   1:  0.09   2:  0.14   3:  0.08   4:  0.07   5:  0.06   6:  0.17   7:  0.37   8:  0.34
   9:  0.20  10:  0.40  11:  0.12  12:  0.22  13:  0.30  14:  0.32  15:  0.28
 Raman intensities (amu)
   1:  0.00   2:  0.00   3:  0.00   4:  0.00   5:  0.00   6:  0.00   7:  0.00   8:  0.00
   9:  0.00  10:  0.00  11:  0.00  12:  0.00  13:  0.00  14:  0.00  15:  0.00
 output can be read by thermo (or use thermo option).
 writing <g98.out> molden fake output.
 recommended (thermochemical) frequency scaling factor: 1.0
           -------------------------------------------------
          |             Thermodynamic Functions             |
Molecule has the following symmetry elements: (sigma) 
It seems to be the Cs point group
           -------------------------------------------------

cs  symmetry found (for desy threshold:  0.10E+00) used in thermo

          ...................................................
          :                      SETUP                      :
          :.................................................:
          :  # frequencies                           9      :
          :  # imaginary freq.                       0      :
          :  linear?                             false      :
          :  only rotor calc.                    false      :
          :  symmetry                               cs      :
          :  rotational number                       1      :
          :  scaling factor                  1.0000000      :
          :  rotor cutoff                   50.0000000 cm⁻¹ :
          :  imag. cutoff                  -20.0000000 cm⁻¹ :
          :.................................................:

    mode    ω/cm⁻¹     T·S(HO)/kcal·mol⁻¹    T·S(FR)/kcal·mol⁻¹   T·S(vib)
   ------------------------------------------------------------------------
       1    185.74    -0.00000 ( 99.48%)     0.01135 (  0.52%)     0.00006
       2    192.23    -0.00000 ( 99.54%)     0.01169 (  0.46%)     0.00005
   ------------------------------------------------------------------------

   temp. (K)  partition function   enthalpy   heat capacity  entropy
                                   cal/mol     cal/K/mol   cal/K/mol   J/K/mol
 298.15  VIB   3.64                 1135.908      7.713      6.377
         ROT  0.351E+05              888.752      2.981     23.778
         INT  0.128E+06             2024.660     10.694     30.155
         TR   0.473E+27             1481.254      4.968     38.278
         TOT                        3505.9141    15.6620    68.4332   286.3245

   temp. (K)  partition function   enthalpy   heat capacity  entropy
                                   cal/mol     cal/K/mol   cal/K/mol   J/K/mol
 120.00  VIB   1.25                  135.657      3.133      1.588
         ROT  0.896E+04              357.707      2.981     21.065
         INT  0.112E+05              493.364      6.114     22.653
         TR   0.121E+27              596.178      4.968     33.759
         TOT                        1089.5416    11.0820    56.4115   236.0256

   temp. (K)  partition function   enthalpy   heat capacity  entropy
                                   cal/mol     cal/K/mol   cal/K/mol   J/K/mol
 100.00  VIB   1.15                   79.745      2.450      1.080
         ROT  0.681E+04              298.089      2.981     20.522
         INT  0.783E+04              377.834      5.431     21.602
         TR   0.919E+26              496.815      4.968     32.853
         TOT                         874.6486    10.3992    54.4552   227.8405

   temp. (K)  partition function   enthalpy   heat capacity  entropy
                                   cal/mol     cal/K/mol   cal/K/mol   J/K/mol
  80.00  VIB   1.07                   38.035      1.709      0.618
         ROT  0.488E+04              238.471      2.981     19.856
         INT  0.522E+04              276.506      4.690     20.474
         TR   0.657E+26              397.452      4.968     31.745
         TOT                         673.9583     9.6584    52.2195   218.4866

   temp. (K)  partition function   enthalpy   heat capacity  entropy
                                   cal/mol     cal/K/mol   cal/K/mol   J/K/mol
  60.00  VIB   1.02                   11.819      0.906      0.245
         ROT  0.317E+04              178.853      2.981     18.999
         INT  0.324E+04              190.672      3.887     19.244
         TR   0.427E+26              298.089      4.968     30.317
         TOT                         488.7611     8.8549    49.5608   207.3624

   temp. (K)  partition function   enthalpy   heat capacity  entropy
                                   cal/mol     cal/K/mol   cal/K/mol   J/K/mol
  40.00  VIB   1.00                    1.214      0.206      0.037
         ROT  0.172E+04              119.236      2.981     17.790
         INT  0.173E+04              120.449      3.187     17.827
         TR   0.232E+26              198.726      4.968     28.303
         TOT                         319.1754     8.1552    46.1303   193.0092

   temp. (K)  partition function   enthalpy   heat capacity  entropy
                                   cal/mol     cal/K/mol   cal/K/mol   J/K/mol
  20.00  VIB   1.00                    0.001      0.001     -0.005
         ROT   609.                   59.618      2.981     15.724
         INT   609.                   59.619      2.982     15.719
         TR   0.822E+25               99.363      4.968     24.861
         TOT                         158.9822     7.9500    40.5806   169.7893

   temp. (K)  partition function   enthalpy   heat capacity  entropy
                                   cal/mol     cal/K/mol   cal/K/mol   J/K/mol
  10.00  VIB   1.00                    0.000      0.000     -0.012
         ROT   215.                   29.809      2.981     13.658
         INT   215.                   29.809      2.981     13.646
         TR   0.290E+25               49.681      4.968     21.419
         TOT                          79.4904     7.9490    35.0654   146.7137

       T/K    H(0)-H(T)+PV         H(T)/Eh          T*S/Eh         G(T)/Eh
   ------------------------------------------------------------------------
    298.15    0.558703E-02    0.242552E-01    0.325148E-01   -0.825958E-02
    120.00    0.173629E-02    0.204045E-01    0.107877E-01    0.961682E-02
    100.00    0.139384E-02    0.200621E-01    0.867798E-02    0.113841E-01
     80.00    0.107402E-02    0.197422E-01    0.665737E-02    0.130849E-01
     60.00    0.778890E-03    0.194471E-01    0.473881E-02    0.147083E-01
     40.00    0.508638E-03    0.191769E-01    0.294053E-02    0.162363E-01
     20.00    0.253354E-03    0.189216E-01    0.129339E-02    0.176282E-01
     10.00    0.126676E-03    0.187949E-01    0.558803E-03    0.182361E-01 (used)
   ------------------------------------------------------------------------

         :::::::::::::::::::::::::::::::::::::::::::::::::::::
         ::                  THERMODYNAMIC                  ::
         :::::::::::::::::::::::::::::::::::::::::::::::::::::
         :: total free energy         -11.105588208501 Eh   ::
         ::.................................................::
         :: total energy              -11.123824294948 Eh   ::
         :: zero point energy           0.018668213512 Eh   ::
         :: G(RRHO) w/o ZPVE           -0.000432127066 Eh   ::
         :: G(RRHO) contrib.            0.018236086447 Eh   ::
         :::::::::::::::::::::::::::::::::::::::::::::::::::::

optimized geometry written to: xtbopt.xyz


           -------------------------------------------------
          | TOTAL ENERGY              -11.123824294948 Eh   |
          | TOTAL ENTHALPY            -11.105029405420 Eh   |
          | TOTAL FREE ENERGY         -11.105588208501 Eh   |
          | GRADIENT NORM               0.000948994619 Eh/α |
          | HOMO-LUMO GAP               1.787813763219 eV   |
           -------------------------------------------------

------------------------------------------------------------------------
 * finished run on 2020/05/12 at 11:43:58.873     
------------------------------------------------------------------------
 total:
 * wall-time:     0 d,  0 h,  0 min,  0.242 sec
 *  cpu-time:     0 d,  0 h,  0 min,  0.241 sec
 * ratio c/w:     0.998 speedup
 SCF:
 * wall-time:     0 d,  0 h,  0 min,  0.005 sec
 *  cpu-time:     0 d,  0 h,  0 min,  0.005 sec
 * ratio c/w:     0.998 speedup
 ANC optimizer:
 * wall-time:     0 d,  0 h,  0 min,  0.127 sec
 *  cpu-time:     0 d,  0 h,  0 min,  0.127 sec
 * ratio c/w:     0.999 speedup
 numerical hessian:
 * wall-time:     0 d,  0 h,  0 min,  0.094 sec
 *  cpu-time:     0 d,  0 h,  0 min,  0.093 sec
 * ratio c/w:     0.996 speedup

