[Molden Format]
[Title]
[Atoms] AU
C      1     6 -0.29353777711845E+01 -0.12338450156175E+01  0.88417823967102E-01
C      2     6 -0.48951358046714E+00  0.14553490425027E+00  0.73692412037281E-02
N      3     7  0.19490526293773E+01 -0.49243634419529E-01 -0.34349564603176E-01
C      4     6 -0.26883645443466E+01  0.14031794351835E+01  0.18265209687387E-01
C      5     6  0.41642032666211E+01 -0.26562568939677E+00 -0.79702710255037E-01
[GTO]
           1 0
 s           4   1.0000000000000000     
   51.049363095579913      -0.16312063210127389     
   8.7911227406887544      -0.19911024581000730     
  0.70640422258929825       0.31882047753655751     
  0.26922813413411617       0.12706504184240380     
 p           4   1.0000000000000000     
   5.8263656140800002       0.73716451545209605     
   1.5106896018720002       0.68216371614850257     
  0.53256483288000001       0.35783053929253711     
  0.21202323690600003        5.3983030275847881E-002

           2 0
 s           4   1.0000000000000000     
   51.049363095579913      -0.16312063210127389     
   8.7911227406887544      -0.19911024581000730     
  0.70640422258929825       0.31882047753655751     
  0.26922813413411617       0.12706504184240380     
 p           4   1.0000000000000000     
   5.8263656140800002       0.73716451545209605     
   1.5106896018720002       0.68216371614850257     
  0.53256483288000001       0.35783053929253711     
  0.21202323690600003        5.3983030275847881E-002

           3 0
 s           4   1.0000000000000000     
   63.594024466941008      -0.19234388414721629     
   10.951417231523665      -0.23478107924953728     
  0.87999310257376984       0.37593753901700888     
  0.33538715296521110       0.14982889271862770     
 p           4   1.0000000000000000     
   7.2965040481495080       0.97658666315667420     
   1.8918745450712575       0.90372226730345739     
  0.66694432110824120       0.47404958461536373     
  0.26552202674130870        7.1516067715011844E-002

           4 0
 s           4   1.0000000000000000     
   51.049363095579913      -0.16312063210127389     
   8.7911227406887544      -0.19911024581000730     
  0.70640422258929825       0.31882047753655751     
  0.26922813413411617       0.12706504184240380     
 p           4   1.0000000000000000     
   5.8263656140800002       0.73716451545209605     
   1.5106896018720002       0.68216371614850257     
  0.53256483288000001       0.35783053929253711     
  0.21202323690600003        5.3983030275847881E-002

           5 0
 s           4   1.0000000000000000     
   51.049363095579913      -0.16312063210127389     
   8.7911227406887544      -0.19911024581000730     
  0.70640422258929825       0.31882047753655751     
  0.26922813413411617       0.12706504184240380     
 p           4   1.0000000000000000     
   5.8263656140800002       0.73716451545209605     
   1.5106896018720002       0.68216371614850257     
  0.53256483288000001       0.35783053929253711     
  0.21202323690600003        5.3983030275847881E-002

[MO]
Sym=     1a
Ene=  -0.72864161350475976     
Spin= Alpha
Occup=     2.00000000
           1  0.24481474603056205     
           2   8.1582884109313761E-002
           3   8.5684755219044048E-002
           4  -3.6932871928501299E-003
           5  0.46844018004734317     
           6   8.4202960572676584E-003
           7  -3.6298923431491350E-003
           8  -1.5746622810928576E-004
           9  0.37677166252796307     
          10 -0.12273934608731049     
          11   8.9702290117778354E-003
          12   1.7921997498131590E-003
          13  0.26283649054230140     
          14   9.6592288881510516E-002
          15 -0.11110212990260876     
          16   8.9819452692480267E-004
          17  0.10675161009288307     
          18  -7.5181558805234222E-002
          19   7.0121500695047309E-003
          20   1.4123548016026230E-003
Sym=     2a
Ene=  -0.71804260293028843     
Spin= Alpha
Occup=     2.00000000
           1 -0.22902049131490526     
           2  -3.7922451488930649E-002
           3  -7.7527807155501116E-002
           4   2.6293219179428316E-003
           5  -6.9993188013097701E-002
           6  0.26728069776738644     
           7  -1.4944650827202498E-002
           8  -4.9057162825368039E-003
           9  0.48787777577663544     
          10   7.4068641081785722E-002
          11  -5.4000997748919199E-003
          12  -1.9038158699941658E-003
          13 -0.23950986972000207     
          14  -3.6757418670307913E-002
          15   9.5341139240308306E-002
          16  -1.6890340877119671E-003
          17  0.30340698140419575     
          18 -0.14397675399252763     
          19   1.4699836547964572E-002
          20   2.8444414169497786E-003
Sym=     3a
Ene=  -0.67699958439300911     
Spin= Alpha
Occup=     2.00000000
           1 -0.18571480379569225     
           2   1.7327050960824118E-002
           3  -6.0690597099865386E-002
           4   1.1893097953754057E-003
           5  0.20965404801928136     
           6  0.28065669900173623     
           7  -4.1967700326784882E-003
           8  -5.0859066298167797E-003
           9   2.4513422783631666E-002
          10 -0.46666571979602495     
          11   4.9389422486986696E-002
          12   8.5935737955273005E-003
          13 -0.16870149412191712     
          14   4.1375093247717404E-002
          15   7.1459193704844645E-002
          16  -2.5420166545726268E-003
          17 -0.43869235632817710     
          18   9.7099193409793366E-002
          19  -8.9146869326895764E-003
          20  -2.1779993722922985E-003
Sym=     4a
Ene=  -0.60677438360161606     
Spin= Alpha
Occup=     2.00000000
           1 -0.34869008690853637     
           2  -6.6830825286469525E-002
           3   9.5672667432585248E-002
           4  -1.1300671701710259E-003
           5   4.3597909402648682E-002
           6  -2.2290541900523986E-002
           7  0.47422785095355990     
           8  -1.1467700863540089E-002
           9  -2.4728757659959404E-002
          10   7.2604961493933778E-002
          11  0.41840564495667087     
          12  -1.2042846645428269E-002
          13  0.28526894316320994     
          14  0.17039471810208554     
          15  0.16876075572338792     
          16  -7.4914073489043441E-003
          17   3.7463818326740610E-002
          18   1.7852897621478469E-002
          19  0.15653610243498903     
          20  -4.2909256821260511E-003
Sym=     5a
Ene=  -0.58547854474525951     
Spin= Alpha
Occup=     2.00000000
           1  -2.1911271624444102E-004
           2  -2.6245433665479756E-003
           3  -3.8979127233871006E-003
           4 -0.15000493073612090     
           5   3.3716272932876568E-004
           6  -8.5157477935652384E-003
           7  -1.1288701442842684E-002
           8 -0.44652927234245965     
           9  -1.6211058622516354E-003
          10  -1.3204396487294174E-002
          11  -1.5700400493484364E-002
          12 -0.62536831122295489     
          13  -4.1117991026152166E-004
          14  -3.5281935320125302E-003
          15  -4.7994571328891138E-003
          16 -0.19568349176645541     
          17   5.3251763973848000E-004
          18  -5.8501033593481499E-003
          19  -6.8354446034787474E-003
          20 -0.27268440264846810     
Sym=     6a
Ene=  -0.54512372137193399     
Spin= Alpha
Occup=     2.00000000
           1  0.44976300123776231     
           2 -0.22527838578806436     
           3  -2.8786961811774984E-002
           4   4.7209202711322147E-003
           5 -0.17731727807692457     
           6  0.12958417851394627     
           7  -2.9706370099040647E-002
           8  -2.3020393800337901E-003
           9  0.12533253793361809     
          10  -2.1847912900198364E-002
          11  0.52357144483000084     
          12  -1.2716798163781387E-002
          13  -7.9153752928508472E-002
          14 -0.29496201718793513     
          15 -0.18989523615056550     
          16   9.9575409915310300E-003
          17 -0.15942333157203947     
          18  -4.0318442950043692E-002
          19  0.31080147381631273     
          20  -6.9372481969642687E-003
Sym=     7a
Ene=  -0.52726600991015282     
Spin= Alpha
Occup=     2.00000000
           1  -5.7077111607119591E-002
           2 -0.32047644980620055     
           3  0.24622680238868355     
           4  -6.4196010495967573E-004
           5 -0.20663440641821801     
           6  0.13077630803269305     
           7  0.10086269993766453     
           8  -5.8962363391730447E-003
           9  0.16533986698170750     
          10  -9.2552229553448717E-002
          11 -0.31127352872313646     
          12   9.7354966205426934E-003
          13  0.49200440124719125     
          14 -0.34587908841721360     
          15  0.10360871068489717     
          16   3.2351931368070973E-003
          17 -0.23382841601106166     
          18 -0.15123607126499483     
          19 -0.20514509782682344     
          20   8.4619984442906183E-003
Sym=     8a
Ene=  -0.50466043080825351     
Spin= Alpha
Occup=     2.00000000
           1   3.0453068474096799E-004
           2   6.5750829435740898E-003
           3   1.0498396533906156E-002
           4  0.40276383024456835     
           5  -2.0633306814128255E-004
           6   7.3341332298569335E-003
           7   8.4640732218032519E-003
           8  0.33629427787404992     
           9  -1.0490208532095216E-003
          10  -9.4665857331949089E-003
          11  -1.0318795939452239E-002
          12 -0.41232814097834936     
          13   9.2134579094030637E-004
          14   8.0089909052856595E-003
          15   1.2124939446938267E-002
          16  0.48568351143664573     
          17   1.9463333198489340E-003
          18  -6.6188405551528889E-003
          19  -8.9737351545171457E-003
          20 -0.35314284178596844     
Sym=     9a
Ene=  -0.47725964339874166     
Spin= Alpha
Occup=     2.00000000
           1   5.1457700712728698E-002
           2 -0.16002991403232922     
           3   5.6992468325922585E-002
           4   1.8454822574950162E-004
           5   6.8015248987387103E-002
           6  0.19619354195622726     
           7   4.9830011608492956E-003
           8  -4.3159597176438682E-003
           9 -0.15426266067113137     
          10 -0.24765555361565419     
          11   1.2534954039662217E-002
          12   6.6264564480945122E-003
          13   9.1243856155170971E-002
          14 -0.17665053189016502     
          15   1.7247004359292630E-003
          16   1.6419827659538021E-003
          17  0.64787301306453005     
          18  0.60638979833135087     
          19  -7.0834115656202762E-002
          20  -1.0620181835710892E-002
Sym=    10a
Ene=  -0.43187047392563493     
Spin= Alpha
Occup=     1.99999479
           1  0.52440352388248834     
           2 -0.33360766428058780     
           3 -0.52244818030802465     
           4   1.9356513003077037E-002
           5  -8.6896863779436749E-003
           6   3.2402231003774935E-002
           7  0.37133478929688218     
           8  -9.8384446011127082E-003
           9  -5.5458241619684942E-004
          10  -8.2747610036553437E-003
          11 -0.11656508528677614     
          12   3.0430681837877180E-003
          13  -2.5426736908881076E-002
          14  0.28305969214775267     
          15  0.16986462417820405     
          16  -9.6274644312612269E-003
          17  -2.5410753294950075E-003
          18  -3.1470822550641570E-002
          19 -0.27298995169022500     
          20   7.4077252391457436E-003
Sym=    11a
Ene=  -0.40875541099890134     
Spin= Alpha
Occup=     1.00000521
           1  0.12081749742852856     
           2  0.29083945213805085     
           3 -0.35078273167919266     
           4   3.1194048215860705E-003
           5  -1.5214032107668956E-003
           6  -2.3847877468769117E-002
           7 -0.31303015100549503     
           8   8.2294045781917211E-003
           9   4.0038191064498182E-003
          10  -1.5451384692580167E-003
          11   5.4596454555379106E-002
          12  -1.3014837825975566E-003
          13  0.45923648383203869     
          14 -0.20410080946540471     
          15  0.62598976058496258     
          16  -1.1637908528903845E-002
          17   4.0180129079195482E-003
          18   2.8639355956721423E-002
          19  0.24322187110083143     
          20  -6.6184157462663429E-003
Sym=    12a
Ene=  -0.34305446413661278     
Spin= Alpha
Occup=     0.00000000
           1   1.6090906530192882E-005
           2   9.4268769125569613E-003
           3   1.2638817997081813E-002
           4  0.50765512270185387     
           5   6.0212148196075966E-004
           6  -1.0199520312597351E-002
           7  -1.3991619824476781E-002
           8 -0.56120084539014181     
           9  -5.7373241335509546E-004
          10  -4.1959128678866163E-003
          11  -4.9319405885623804E-003
          12 -0.19961818838152318     
          13   3.4339977462989981E-005
          14   4.9882516240018189E-003
          15   6.9137464589894204E-003
          16  0.27666119086578034     
          17  -1.3373157436142249E-004
          18   1.5434521733153924E-002
          19   1.6465683729813427E-002
          20  0.67130960170299625     
Sym=    13a
Ene=  -0.28806735480531975     
Spin= Alpha
Occup=     0.00000000
           1   3.4701207872219690E-006
           2   1.4964995551102624E-002
           3   1.9139333472392033E-002
           4  0.77184013925315154     
           5  -3.0406267234073540E-004
           6   4.8841534855940190E-004
           7   9.4798600807838654E-004
           8   3.6961746324519512E-002
           9   4.3364032452735611E-004
          10   3.0051596175972180E-003
          11   3.7132827595757361E-003
          12  0.14664092534988446     
          13   1.2976910810210865E-005
          14  -1.4305851555458948E-002
          15  -1.8689308674086056E-002
          16 -0.75255993633577234     
          17   6.3777863212266758E-005
          18  -4.8826296168474692E-003
          19  -5.6114154308064606E-003
          20 -0.22242332625747172     
Sym=    14a
Ene=  -0.27245323152071887     
Spin= Alpha
Occup=     0.00000000
           1  -1.5022857479187190E-002
           2 -0.34421485738779894     
           3   1.9628786979100709E-002
           4   6.1859184068119187E-003
           5   3.8184150338289015E-002
           6  -1.1360783149924591E-002
           7   1.2761449680195948E-002
           8   6.0789442479698000E-005
           9  -1.6852401989563465E-002
          10  -4.7863332008039508E-002
          11 -0.63462525915417944     
          12   1.6614555706130220E-002
          13  -1.4149699595169585E-002
          14  0.24300534349237710     
          15  -1.7336469104325947E-002
          16  -4.4469297183631030E-003
          17  -1.4371707137923269E-003
          18   6.9853914689015514E-002
          19  0.85071888779043436     
          20  -2.2408243374247586E-002
Sym=    15a
Ene=  -0.19899068195448366     
Spin= Alpha
Occup=     0.00000000
           1   1.3276220033274993E-004
           2   2.9297847779395153E-003
           3   2.9101728749578340E-003
           4  0.11755991492277947     
           5  -1.7323769184537489E-003
           6  -1.4192128739271630E-002
           7  -1.6935188361144989E-002
           8 -0.69265543192177370     
           9   2.7026307312420996E-003
          10   1.4098959867593117E-002
          11   1.7042044867014747E-002
          12  0.70006603507504250     
          13   1.4251321289660912E-004
          14   8.3243447300948153E-003
          15   9.6419604808477936E-003
          16  0.39628808832914125     
          17  -1.2248400561187142E-004
          18  -1.2061436835615334E-002
          19  -1.4777513519311633E-002
          20 -0.60672901474606777     
Sym=    16a
Ene=   -3.2382155282676260E-002
Spin= Alpha
Occup=     0.00000000
           1 -0.11932620363772695     
           2 -0.74639418997191809     
           3  0.22750359597172981     
           4   8.7742845587518523E-003
           5  0.52886344470903979     
           6  -5.7962038941093620E-002
           7 -0.69982847995044151     
           8   1.7754771298065564E-002
           9 -0.33760003276258055     
          10  0.18127616803260616     
          11  0.31488057181803703     
          12  -9.8508400687468932E-003
          13  -8.7985866092235340E-002
          14  0.27813746626615105     
          15  0.35848950468854451     
          16  -1.3955577906345634E-002
          17   6.0894267881656215E-002
          18 -0.20289508476070947     
          19 -0.15922747466989270     
          20   7.4446836965649191E-003
Sym=    17a
Ene=    3.6047632699625055E-002
Spin= Alpha
Occup=     0.00000000
           1 -0.16325306223698899     
           2   4.7528734991146335E-002
           3 -0.30792351640250093     
           4   6.9175006144121341E-003
           5  0.84079415244986033     
           6  0.24664755872333585     
           7  0.35370943159831358     
           8  -1.4565691275995397E-002
           9 -0.72887565892641615     
          10  0.25378722766876405     
          11 -0.15958819191043419     
          12   1.5773086785462651E-003
          13  -9.7294840876370220E-002
          14 -0.65607796558226761     
          15 -0.17630117272451898     
          16   1.7286061795898689E-002
          17  0.15363899294331437     
          18 -0.38523877679583357     
          19  0.10162461133240122     
          20   4.6459426546420169E-003
Sym=    18a
Ene=   0.29924878975508329     
Spin= Alpha
Occup=     0.00000000
           1  0.76822928866561146     
           2  0.37115858688737358     
           3  0.84249745628362882     
           4  -2.7961909325058754E-002
           5  -8.6198270211273728E-002
           6  0.50946121331239003     
           7  0.28844344801268401     
           8  -1.7215263104415138E-002
           9 -0.41706127742239446     
          10   3.0190118435351250E-002
          11 -0.10698309225589772     
          12   3.0912641644717000E-003
          13 -0.48070771153578012     
          14  0.12678958397508486     
          15  0.65893597279621030     
          16  -1.8694223560841380E-002
          17  0.13115140505267237     
          18 -0.22400984152672249     
          19   5.9029940268289123E-002
          20   3.2807842160781516E-003
Sym=    19a
Ene=   0.56321436373772482     
Spin= Alpha
Occup=     0.00000000
           1   7.2421044613806801E-002
           2 -0.15045029173638791     
           3  0.20113988457385698     
           4  -2.1811512284842980E-003
           5  0.55304122902622121     
           6 -0.84729009400691280     
           7  0.34269813582372027     
           8   8.2259133108674252E-003
           9  0.71841242886307755     
          10  0.24648289172267629     
          11 -0.10378094577485852     
          12  -4.1792432240683507E-003
          13 -0.74643622396364950     
          14 -0.58899343939242055     
          15  0.53533687791738893     
          16  -2.1238084259608920E-003
          17 -0.38619684533866405     
          18  0.53202781809924449     
          19  -2.7789231611412193E-002
          20  -1.1189296768010622E-002
Sym=    20a
Ene=    1.0706372460817393     
Spin= Alpha
Occup=     0.00000000
           1   8.1396902977836777E-002
           2  0.10841679813703117     
           3   1.4622816456227112E-002
           4  -2.5142749364466389E-003
           5  0.25566787677135794     
           6  0.93400364083873799     
           7 -0.13974588456105549     
           8  -1.3818521714632232E-002
           9  0.21229893380494053     
          10   1.3150323040580829     
          11 -0.10279383980403857     
          12  -2.5422319457335498E-002
          13  0.31979625766268677     
          14  0.24267978655986830     
          15 -0.19039792593356386     
          16  -4.5336536394497485E-005
          17 -0.77468348301576084     
          18  0.83810153563575152     
          19  -8.8016569870003697E-002
          20  -1.7499155972288852E-002
