 Entering Gaussian System
 *********************************************
 Gaussian 98:
 frequency output generated by the xtb code
 *********************************************
                         Standard orientation:
 --------------------------------------------------------------------
  Center     Atomic     Atomic              Coordinates (Angstroms)
  Number     Number      Type              X           Y           Z
 --------------------------------------------------------------------
    1          6             0       -1.309980    1.053838    0.090916
    2          6             0       -0.255630    0.068014    0.005804
    3          6             0        1.005625   -0.285340   -0.024711
    4          6             0       -1.671350   -0.220860   -0.019482
    5          6             0        2.231335   -0.615653   -0.052527
 --------------------------------------------------------------------
     1 basis functions        1 primitive gaussians
     1 alpha electrons        1 beta electrons

 Harmonic frequencies (cm**-1), IR intensities (KM/Mole),
 Raman scattering activities (A**4/amu), Raman depolarization ratios,
 reduced masses (AMU), force constants (mDyne/A) and normal coordinates:
                      1                      2                      3
                        a                      a                      a 
 Frequencies --    72.8208               167.2138               357.1864
 Red. masses --    12.0107                12.0107                12.0107
 Frc consts  --     0.0000                 0.0000                 0.0000
 IR Inten    --     0.4197                 0.3847                 0.0370
 Raman Activ --     0.0000                 0.0000                 0.0000
 Depolar     --     0.0000                 0.0000                 0.0000
 Atom AN      X      Y      Z        X      Y      Z        X      Y      Z
   1   6     0.27   0.09   0.01     0.00   0.02  -0.25    -0.35   0.04   0.00
   2   6    -0.08  -0.29  -0.02    -0.00  -0.04   0.48     0.18   0.62   0.05
   3   6    -0.17  -0.60  -0.05    -0.00  -0.05   0.58    -0.15  -0.54  -0.05
   4   6    -0.18   0.22   0.02    -0.00   0.02  -0.26     0.32  -0.16  -0.01
   5   6     0.15   0.58   0.05     0.00   0.05  -0.55     0.01   0.04   0.00
                      4                      5                      6
                        a                      a                      a 
 Frequencies --   490.6294               711.5069               803.5881
 Red. masses --    12.0107                12.0107                12.0107
 Frc consts  --     0.0000                 0.0000                 0.0000
 IR Inten    --     0.3093                 1.0553                 0.4095
 Raman Activ --     0.0000                 0.0000                 0.0000
 Depolar     --     0.0000                 0.0000                 0.0000
 Atom AN      X      Y      Z        X      Y      Z        X      Y      Z
   1   6    -0.00  -0.01   0.15    -0.53  -0.02  -0.00     0.44  -0.40  -0.03
   2   6    -0.00   0.06  -0.75     0.13  -0.04  -0.00     0.14   0.51   0.04
   3   6    -0.00  -0.05   0.60     0.29  -0.09  -0.01     0.01   0.01   0.00
   4   6     0.00  -0.01   0.15    -0.44   0.29   0.03    -0.59  -0.11  -0.01
   5   6     0.00   0.01  -0.16     0.55  -0.15  -0.01     0.00  -0.00  -0.00
                      7                      8                      9
                        a                      a                      a 
 Frequencies --  1275.0202              1666.4434              1899.2992
 Red. masses --    12.0107                12.0107                12.0107
 Frc consts  --     0.0000                 0.0000                 0.0000
 IR Inten    --     1.3755                 1.7212                 0.2171
 Raman Activ --     0.0000                 0.0000                 0.0000
 Depolar     --     0.0000                 0.0000                 0.0000
 Atom AN      X      Y      Z        X      Y      Z        X      Y      Z
   1   6    -0.15  -0.43  -0.04    -0.10   0.36   0.03    -0.03  -0.41  -0.04
   2   6     0.62  -0.17  -0.01     0.37  -0.10  -0.01    -0.46   0.13   0.01
   3   6    -0.25   0.07   0.01     0.52  -0.14  -0.01     0.57  -0.16  -0.01
   4   6     0.10   0.44   0.04    -0.27  -0.25  -0.02     0.19   0.37   0.03
   5   6    -0.31   0.09   0.01    -0.52   0.14   0.01    -0.27   0.07   0.01
