5
 energy: -10.243022219232 gnorm: 0.000618976387 xtb: 6.2.2 (9d81278992624c895f80dd42a50cac0aa55982e2)
C        -1.30997984934651    1.05383801712005    0.09091554234649
C        -0.25563045201243    0.06801442904340    0.00580370214260
C         1.00562536468782   -0.28533979708498   -0.02471053304713
C        -1.67134990605471   -0.22086012560023   -0.01948180248109
C         2.23133484272583   -0.61565252347824   -0.05252690896087
