5
 energy: -9.999056317338 gnorm: 0.312395052648 xtb: 6.2.2 (9d81278992624c895f80dd42a50cac0aa55982e2)
C        -0.58963800000000    1.46755900000000    0.19515000000000
C        -0.44282300000000    0.04963200000000   -0.32448600000000
C         0.71513300000000   -0.64724300000000    0.36773900000000
C        -1.72151500000000   -0.71312600000000   -0.04980700000000
C         2.03884300000000   -0.15682200000000   -0.18859600000000
5
 energy: -10.100723655961 gnorm: 0.189927964793 xtb: 6.2.2 (9d81278992624c895f80dd42a50cac0aa55982e2)
C        -0.60354588997645    1.40100622613278    0.16231699092420
C        -0.45647251170984    0.04062853771009   -0.23014204933936
C         0.76984436123250   -0.58442877279371    0.28366203664423
C        -1.66636061628363   -0.66072344140224   -0.06872703869849
C         1.95653465673741   -0.19648254964691   -0.14710993953057
5
 energy: -10.091024361931 gnorm: 0.520016951379 xtb: 6.2.2 (9d81278992624c895f80dd42a50cac0aa55982e2)
C        -0.64756124897920    1.33825487506684    0.12811922007986
C        -0.48370144511966    0.02766035476718   -0.13002438733827
C         0.86465180148962   -0.51000391393283    0.17212214997337
C        -1.61780125871767   -0.59444383122423   -0.08394302804144
C         1.88441215132691   -0.26146748467695   -0.08627395467351
5
 energy: -10.133649394080 gnorm: 0.106512011123 xtb: 6.2.2 (9d81278992624c895f80dd42a50cac0aa55982e2)
C        -0.68018256988244    1.35171697392700    0.12783869273184
C        -0.51479160354437    0.03553074954750   -0.12422961490423
C         0.81204772872961   -0.50514706532566    0.14302345170881
C        -1.64196198665566   -0.60539394060240   -0.06644812494220
C         2.02488843135286   -0.27670671754644   -0.08018440459422
5
 energy: -10.144558861984 gnorm: 0.083923035108 xtb: 6.2.2 (9d81278992624c895f80dd42a50cac0aa55982e2)
C        -0.75999175808476    1.36969651433815    0.10873859357299
C        -0.47481990638239    0.00201456167740   -0.02244958531285
C         0.88636513469579   -0.50978053519519    0.15814713724713
C        -1.72584296704197   -0.56464724102159   -0.12390131715443
C         2.07428949681332   -0.29728329979877   -0.12053482835283
5
 energy: -10.163881026563 gnorm: 0.148846277321 xtb: 6.2.2 (9d81278992624c895f80dd42a50cac0aa55982e2)
C        -0.92826439174438    1.28829936282579    0.09454269472699
C        -0.39715241862511   -0.05986920720612    0.01833719976436
C         0.96536897329760   -0.50006709951543    0.10250635526037
C        -1.79337683387171   -0.40159153564776   -0.11052618786476
C         2.15342467094360   -0.32677152045647   -0.10486006188696
5
 energy: -10.216085598041 gnorm: 0.212964091777 xtb: 6.2.2 (9d81278992624c895f80dd42a50cac0aa55982e2)
C        -1.12959860386570    1.13722553317506    0.09872318845448
C        -0.28527770183380   -0.12065017413001   -0.00216348313547
C         1.00105838811252   -0.44572061063309    0.02091196945061
C        -1.77997320976224   -0.18754288034771   -0.05238196024385
C         2.19379112734921   -0.38331186806425   -0.06508971452577
5
 energy: -9.963672519148 gnorm: 1.620223399273 xtb: 6.2.2 (9d81278992624c895f80dd42a50cac0aa55982e2)
C        -1.29434248367867    0.92143896748688    0.08970608156625
C        -0.21533108114740   -0.16485614519850   -0.01477376158397
C         0.99037395222194   -0.35448538989876   -0.11710411747225
C        -1.69487713181016    0.03886956621948    0.02860704268981
C         2.21417674441429   -0.44096699860910    0.01356475480017
5
 energy: -10.235750515736 gnorm: 0.085820286397 xtb: 6.2.2 (9d81278992624c895f80dd42a50cac0aa55982e2)
C        -1.20874541897957    1.08017476097969    0.10141979767298
C        -0.27060509564013   -0.13561739659653   -0.01709812463173
C         0.98532896203481   -0.36991032470970   -0.11177114508685
C        -1.74768555806984   -0.12836427085260    0.01203865210400
C         2.24170711065473   -0.44628276882087    0.01541081994160
5
 energy: -10.064241359807 gnorm: 0.881914148083 xtb: 6.2.2 (9d81278992624c895f80dd42a50cac0aa55982e2)
C        -0.98682556653455    1.00141221148613    0.08748443292675
C        -0.41808488168246   -0.05604264206816   -0.00056727951180
C         0.83280828238734   -0.28045886266145   -0.12986363581810
C        -1.52997060314955   -0.23276340965328    0.00379164043532
C         2.10207276897922   -0.43214729710325    0.03915484196783
5
 energy: -10.224102765501 gnorm: 0.158901300077 xtb: 6.2.2 (9d81278992624c895f80dd42a50cac0aa55982e2)
C        -1.09493115281062    1.04231314407966    0.09721263104451
C        -0.29405021189271   -0.10351324120707   -0.02055288511105
C         0.90654302032320   -0.34091563798569   -0.10663582462898
C        -1.67715882882903   -0.18101223128634    0.01204281674679
C         2.15959717320917   -0.41687203360056    0.01793326194873
5
 energy: -10.224410915508 gnorm: 0.119131557657 xtb: 6.2.2 (9d81278992624c895f80dd42a50cac0aa55982e2)
C        -1.20625570561751    1.09167219626068    0.07282550251434
C        -0.36528810937795   -0.10798711721288    0.03046290489466
C         1.05107173461487   -0.38336938163173   -0.16192222744999
C        -1.74177180237894   -0.13632603960139    0.00467148093693
C         2.26224388275953   -0.46398965781469    0.05396233910405
5
 energy: -10.237262547626 gnorm: 0.067834916033 xtb: 6.2.2 (9d81278992624c895f80dd42a50cac0aa55982e2)
C        -1.22985546941444    1.10293030120040    0.09521233168392
C        -0.32084348511307   -0.06910957364766    0.00322521254791
C         1.00809660288709   -0.36645147778839   -0.09264490787408
C        -1.68661470336509   -0.16549872642133   -0.00905123231505
C         2.22921705500550   -0.50187052334302    0.00325859595730
5
 energy: -10.239086784429 gnorm: 0.050687734579 xtb: 6.2.2 (9d81278992624c895f80dd42a50cac0aa55982e2)
C        -1.16668879657858    1.07222553118811    0.09795201363658
C        -0.28879491960442   -0.06968874791357   -0.05554258459981
C         0.95381478635107   -0.38916483041055   -0.10794110120169
C        -1.69324435567645   -0.17276458486039    0.03618985508609
C         2.19491328550838   -0.44060736800360    0.02934181707883
5
 energy: -10.240721591520 gnorm: 0.028226218432 xtb: 6.2.2 (9d81278992624c895f80dd42a50cac0aa55982e2)
C        -1.20902855960070    1.08757680022531    0.09959091861382
C        -0.29583466924577   -0.05645341029812   -0.04362600820782
C         0.97775306397368   -0.38094957673435   -0.10367254756443
C        -1.68937284202757   -0.17275074472701    0.02605915416237
C         2.21648300690035   -0.47742306846583    0.02164848299606
5
 energy: -10.241202212150 gnorm: 0.025202631055 xtb: 6.2.2 (9d81278992624c895f80dd42a50cac0aa55982e2)
C        -1.21581850053569    1.08406698290618    0.10115397616240
C        -0.29271693946469   -0.04813630685283   -0.05294979754054
C         0.98044704764132   -0.38097266549734   -0.10350154875103
C        -1.69453516538310   -0.17342862528556    0.03165721379844
C         2.22262355774216   -0.48152938527045    0.02364015633073
5
 energy: -10.242053475079 gnorm: 0.021571408430 xtb: 6.2.2 (9d81278992624c895f80dd42a50cac0aa55982e2)
C        -1.26125642296562    1.07354574947658    0.11004060607010
C        -0.27386074642988   -0.00285343658515   -0.07156613084508
C         0.98751728222700   -0.36107008901115   -0.08535659113767
C        -1.69967323156611   -0.18421023457283    0.03580607378977
C         2.24727311873462   -0.52541198930744    0.01107604212287
5
 energy: -10.242247859714 gnorm: 0.018682031033 xtb: 6.2.2 (9d81278992624c895f80dd42a50cac0aa55982e2)
C        -1.24404818515759    1.06036987725825    0.10128631237787
C        -0.27345408379173    0.00048181790390   -0.06479955871097
C         0.98919965654162   -0.37967912464071   -0.07738388534409
C        -1.71188756976484   -0.17969417426687    0.03311364218635
C         2.24019018217254   -0.50147839625457    0.00778348949084
5
 energy: -10.242615336664 gnorm: 0.009855262501 xtb: 6.2.2 (9d81278992624c895f80dd42a50cac0aa55982e2)
C        -1.25769953307585    1.06507420485264    0.10009943714388
C        -0.27010296901255    0.00955888702231   -0.04610349358731
C         0.98752988132317   -0.36966079904987   -0.06983501985086
C        -1.70075560009200   -0.18535742274525    0.02029778096024
C         2.24102822085722   -0.51961487007984   -0.00445870466596
5
 energy: -10.242858005610 gnorm: 0.014793190599 xtb: 6.2.2 (9d81278992624c895f80dd42a50cac0aa55982e2)
C        -1.28660001255969    1.06436676837531    0.10008007236742
C        -0.26284742624271    0.03604532139980   -0.00794864461913
C         0.98973607321467   -0.34004671500811   -0.03682846484770
C        -1.68744836126744   -0.19842510740326   -0.01409407200267
C         2.24715972685516   -0.56194026736373   -0.04120889089793
5
 energy: -10.242944577305 gnorm: 0.002745278854 xtb: 6.2.2 (9d81278992624c895f80dd42a50cac0aa55982e2)
C        -1.27784529146500    1.06354584607261    0.09422512490126
C        -0.26361687431561    0.03437386105834   -0.00018020370808
C         0.98786277384763   -0.35143433696194   -0.03949703259582
C        -1.68737714442784   -0.19671291406393   -0.01483562355379
C         2.24097653636081   -0.54977245610509   -0.03971226504356
5
 energy: -10.242766476076 gnorm: 0.006632918441 xtb: 6.2.2 (9d81278992624c895f80dd42a50cac0aa55982e2)
C        -1.27694967506470    1.06331980450853    0.09802101540362
C        -0.26401340142754    0.03618973941292   -0.02017853485047
C         0.98760571858190   -0.35646735623829   -0.01248391091186
C        -1.68827879844059   -0.19627752921270   -0.01412328546357
C         2.24163615635092   -0.54676465847046   -0.05123528417772
5
 energy: -10.242956213898 gnorm: 0.001439161686 xtb: 6.2.2 (9d81278992624c895f80dd42a50cac0aa55982e2)
C        -1.27814859186073    1.06333645728602    0.09237336143487
C        -0.26364420565784    0.03541436526708    0.00411376838623
C         0.98848481062190   -0.35182377318407   -0.02942805680378
C        -1.68778787114608   -0.19693038615694   -0.01911334767590
C         2.24109585804275   -0.54999666321209   -0.04794572534142
5
 energy: -10.242962271296 gnorm: 0.000936043245 xtb: 6.2.2 (9d81278992624c895f80dd42a50cac0aa55982e2)
C        -1.27899351295721    1.06267524875428    0.09339263483248
C        -0.26335245055605    0.03765793244661    0.00124679131113
C         0.98915079620814   -0.34922124607749   -0.03334686547714
C        -1.68739831996966   -0.19836374415879   -0.01692503089749
C         2.24059348727477   -0.55274819096460   -0.04436752976898
5
 energy: -10.242974842279 gnorm: 0.001819555839 xtb: 6.2.2 (9d81278992624c895f80dd42a50cac0aa55982e2)
C        -1.28231601923417    1.06090093876808    0.09283554242337
C        -0.26228721884686    0.04468361672418    0.00269335255220
C         0.99108264902056   -0.34203998956831   -0.03209428004865
C        -1.68605156825061   -0.20255699383365   -0.01765393479430
C         2.23957215731108   -0.56098757209030   -0.04578068013262
5
 energy: -10.242981930096 gnorm: 0.001936400539 xtb: 6.2.2 (9d81278992624c895f80dd42a50cac0aa55982e2)
C        -1.28593399779481    1.05976116469034    0.09278423166383
C        -0.26094699136351    0.04978402682429    0.00249989985124
C         0.99224159720803   -0.33619215220864   -0.03120620385095
C        -1.68400296662290   -0.20560938624829   -0.01767109156059
C         2.23864235857318   -0.56774365305770   -0.04640683610353
5
 energy: -10.242993489842 gnorm: 0.002070714980 xtb: 6.2.2 (9d81278992624c895f80dd42a50cac0aa55982e2)
C        -1.29505697298474    1.05782217065227    0.09203232538721
C        -0.25809761138615    0.05943211115642    0.00442741390749
C         0.99521887757606   -0.32358845428257   -0.02914033114521
C        -1.67937625238465   -0.21128749693158   -0.01863257846044
C         2.23731195917949   -0.58237833059453   -0.04868682968905
5
 energy: -10.242998972442 gnorm: 0.001729255708 xtb: 6.2.2 (9d81278992624c895f80dd42a50cac0aa55982e2)
C        -1.29894222636779    1.05711592642660    0.09182399880677
C        -0.25691414061697    0.06247894292399    0.00471432999868
C         0.99657178051208   -0.31812984764300   -0.02786398763969
C        -1.67716579352062   -0.21318602959932   -0.01892955578555
C         2.23645037999328   -0.58827899210827   -0.04974478538020
5
 energy: -10.243006696633 gnorm: 0.002202417080 xtb: 6.2.2 (9d81278992624c895f80dd42a50cac0aa55982e2)
C        -1.30858706603166    1.05546675544388    0.09115410088544
C        -0.25446780239928    0.06889774615468    0.00605087459005
C         1.00056776659353   -0.30299143785306   -0.02533129137678
C        -1.67190155786277   -0.21770789107645   -0.01971887539738
C         2.23438865970018   -0.60366517266905   -0.05215480870132
5
 energy: -10.243010568035 gnorm: 0.001648764468 xtb: 6.2.2 (9d81278992624c895f80dd42a50cac0aa55982e2)
C        -1.30776712673212    1.05552623986738    0.09113431193740
C        -0.25490050674290    0.06753274561004    0.00605409614278
C         1.00084307257397   -0.30253055617805   -0.02537213799982
C        -1.67229839134814   -0.21728853961417   -0.01971127721122
C         2.23412295224919   -0.60323988968520   -0.05210499286913
5
 energy: -10.243020441572 gnorm: 0.001382505222 xtb: 6.2.2 (9d81278992624c895f80dd42a50cac0aa55982e2)
C        -1.30757007042382    1.05468093195021    0.09104713982286
C        -0.25655609987214    0.06485494052570    0.00573266359880
C         1.00467460678913   -0.29026836188331   -0.02569993055492
C        -1.67276492558671   -0.21872187653138   -0.01931100793892
C         2.23221648909354   -0.61054563406123   -0.05176886492781
5
 energy: -10.243022219234 gnorm: 0.000618985569 xtb: 6.2.2 (9d81278992624c895f80dd42a50cac0aa55982e2)
C        -1.30998568455863    1.05383099939598    0.09091280891658
C        -0.25563082838883    0.06801308043664    0.00580292852794
C         1.00562694495962   -0.28533448851665   -0.02470752074970
C        -1.67134868159638   -0.22086884275217   -0.01948802207757
C         2.23133824958422   -0.61564074856379   -0.05252019461724
