[Molden Format]
[Title]
[Atoms] AU
C      1     6 -0.24755029143666E+01  0.19914650473077E+01  0.17180545956659E+00
C      2     6 -0.48307149859846E+00  0.12852863148995E+00  0.10967406540867E-01
C      3     6  0.19003563469220E+01 -0.53921401891870E+00 -0.46696135520136E-01
C      4     6 -0.31583932878271E+01 -0.41736511051180E+00 -0.36815267687590E-01
C      5     6  0.42166113538700E+01 -0.11634145493671E+01 -0.99261462899727E-01
[GTO]
           1 0
 s           4   1.0000000000000000     
   51.049363095579913      -0.16312063210127389     
   8.7911227406887544      -0.19911024581000730     
  0.70640422258929825       0.31882047753655751     
  0.26922813413411617       0.12706504184240380     
 p           4   1.0000000000000000     
   5.8263656140800002       0.73716451545209605     
   1.5106896018720002       0.68216371614850257     
  0.53256483288000001       0.35783053929253711     
  0.21202323690600003        5.3983030275847881E-002

           2 0
 s           4   1.0000000000000000     
   51.049363095579913      -0.16312063210127389     
   8.7911227406887544      -0.19911024581000730     
  0.70640422258929825       0.31882047753655751     
  0.26922813413411617       0.12706504184240380     
 p           4   1.0000000000000000     
   5.8263656140800002       0.73716451545209605     
   1.5106896018720002       0.68216371614850257     
  0.53256483288000001       0.35783053929253711     
  0.21202323690600003        5.3983030275847881E-002

           3 0
 s           4   1.0000000000000000     
   51.049363095579913      -0.16312063210127389     
   8.7911227406887544      -0.19911024581000730     
  0.70640422258929825       0.31882047753655751     
  0.26922813413411617       0.12706504184240380     
 p           4   1.0000000000000000     
   5.8263656140800002       0.73716451545209605     
   1.5106896018720002       0.68216371614850257     
  0.53256483288000001       0.35783053929253711     
  0.21202323690600003        5.3983030275847881E-002

           4 0
 s           4   1.0000000000000000     
   51.049363095579913      -0.16312063210127389     
   8.7911227406887544      -0.19911024581000730     
  0.70640422258929825       0.31882047753655751     
  0.26922813413411617       0.12706504184240380     
 p           4   1.0000000000000000     
   5.8263656140800002       0.73716451545209605     
   1.5106896018720002       0.68216371614850257     
  0.53256483288000001       0.35783053929253711     
  0.21202323690600003        5.3983030275847881E-002

           5 0
 s           4   1.0000000000000000     
   51.049363095579913      -0.16312063210127389     
   8.7911227406887544      -0.19911024581000730     
  0.70640422258929825       0.31882047753655751     
  0.26922813413411617       0.12706504184240380     
 p           4   1.0000000000000000     
   5.8263656140800002       0.73716451545209605     
   1.5106896018720002       0.68216371614850257     
  0.53256483288000001       0.35783053929253711     
  0.21202323690600003        5.3983030275847881E-002

[MO]
Sym=     1a
Ene=  -0.73078043377972324     
Spin= Alpha
Occup=     2.00000000
           1  0.36973283680952101     
           2   4.9919661355718375E-002
           3 -0.17095475317090736     
           4  -1.4788479982646220E-002
           5  0.37365232646685426     
           6 -0.15039659397086663     
           7   4.2376561564312229E-002
           8   3.6301954392136486E-003
           9   6.1501945737169120E-002
          10  -5.9906426707571667E-002
          11   1.6839987183146044E-002
          12   1.4526051111064656E-003
          13  0.36989303937143714     
          14  0.13242314275063460     
          15  0.11952619061409983     
          16   1.0369122394848860E-002
          17  -2.6968108583363131E-003
          18  -5.6548006901242839E-003
          19   1.5730515036425693E-003
          20   1.3482665849496716E-004
Sym=     2a
Ene=  -0.67290399771143405     
Spin= Alpha
Occup=     2.00000000
           1  0.12012964518785274     
           2  -7.2473391343821303E-002
           3  -2.8975580360868503E-002
           4  -2.5201445053447172E-003
           5 -0.31830175365966262     
           6 -0.27042110419922311     
           7   7.5515112454185004E-002
           8   6.4967236611955083E-003
           9 -0.52226739519795207     
          10   4.2130840906878020E-002
          11  -1.3054927111901142E-002
          12  -1.1969109158362495E-003
          13  0.12046071493674958     
          14  -4.6441884895880282E-002
          15   6.2278813740807258E-002
          16   5.3831239166293558E-003
          17 -0.28732744047594067     
          18  0.12410172560603946     
          19  -3.3774809041139178E-002
          20  -2.8603058996330018E-003
Sym=     3a
Ene=  -0.63343875307903164     
Spin= Alpha
Occup=     2.00000000
           1  0.15225049799414089     
           2 -0.12410680312637783     
           3  -3.4319698699538402E-002
           4  -2.9799549058226464E-003
           5 -0.29647992114253552     
           6 -0.14869194131371621     
           7   4.3151752017985143E-002
           8   3.7597586145157805E-003
           9  0.11055197369045748     
          10  0.37814946884108558     
          11 -0.10321066811564313     
          12  -8.7791215452943817E-003
          13  0.15092991730632457     
          14  -8.8164915724065457E-002
          15   9.4694210304686610E-002
          16   8.1933969464916250E-003
          17  0.52080154870379514     
          18  -9.7670936760640412E-002
          19   2.6166674824741110E-002
          20   2.1881543316757479E-003
Sym=     4a
Ene=  -0.58885406597697509     
Spin= Alpha
Occup=     2.00000000
           1 -0.42895760096872987     
           2 -0.17754501751426308     
           3 -0.18544073065464761     
           4  -1.6084090790152335E-002
           5  -1.7229051137991289E-005
           6 -0.12928882930036859     
           7 -0.45424183284222192     
           8  -3.9339957176944829E-002
           9   1.1211664808724582E-003
          10  -4.2675064037665730E-002
          11 -0.15779829047683877     
          12  -1.3665408680973299E-002
          13  0.42907080452379326     
          14   5.3963805868033211E-002
          15 -0.25105537213266321     
          16  -2.1718861744404988E-002
          17   1.8377941354205311E-003
          18  -1.1680741934284833E-002
          19  -4.1898168652833523E-002
          20  -3.6286823296821373E-003
Sym=     5a
Ene=  -0.55313983001618861     
Spin= Alpha
Occup=     2.00000000
           1  -2.9391907624100121E-004
           2   4.9141744865367071E-004
           3  -3.5599110436676372E-002
           4  0.41129018872480877     
           5   2.3191033231832227E-004
           6  -4.5077793817247007E-004
           7  -4.5765961963119633E-002
           8  0.52992289654314118     
           9  -3.1173628864022838E-004
          10   1.1947952000141008E-004
          11  -2.2120413290611644E-002
          12  0.25504900407089287     
          13  -2.9480235754235151E-004
          14   4.0751126742072293E-004
          15  -3.5914133661055836E-002
          16  0.41149857526974665     
          17   2.4826511751710543E-004
          18   2.3681129277124327E-005
          19  -7.7653372944438866E-003
          20   8.9592258519971352E-002
Sym=     6a
Ene=  -0.54917198329520611     
Spin= Alpha
Occup=     2.00000000
           1 -0.22736791864512387     
           2  0.45537800899875147     
           3  -3.7669080238969307E-003
           4  -7.7828463248981504E-004
           5  0.13974458765357303     
           6 -0.30628134672283736     
           7   8.6962272835472379E-002
           8   6.8154544686379291E-003
           9 -0.18331518722395032     
          10  0.17298655158388127     
          11  -4.6299353076353550E-002
          12  -4.2719862008558087E-003
          13 -0.22731946491477745     
          14  0.38995095582050654     
          15 -0.23398011317297274     
          16  -2.0716603111277383E-002
          17  0.22646446955568350     
          18   5.4086594874750295E-002
          19  -1.4501619989835249E-002
          20  -1.3597913726825497E-003
Sym=     7a
Ene=  -0.48217168592623139     
Spin= Alpha
Occup=     2.00000000
           1 -0.33569717071194916     
           2  0.10565030609554614     
           3 -0.26504942957435623     
           4  -2.2920245187091591E-002
           5   1.4644112934107309E-004
           6   8.4765196658038208E-002
           7  0.29599450217255968     
           8   2.5635294786136548E-002
           9  -2.9684990148920423E-003
          10  0.13794136504133542     
          11  0.50214485761510341     
          12   4.3488632494050397E-002
          13  0.33557888754992837     
          14 -0.23133365664345065     
          15 -0.16944205252721437     
          16  -1.4710155626385472E-002
          17   1.0636801821661014E-003
          18   8.9337790221257943E-002
          19  0.32369796973721321     
          20   2.8034512566542193E-002
Sym=     8a
Ene=  -0.46425216372309180     
Spin= Alpha
Occup=     2.00000000
           1  -1.1772499444761907E-005
           2  -1.2037304822013470E-006
           3  -3.0061255085350538E-002
           4  0.34717931833025978     
           5  -6.5595677664343583E-005
           6  -5.6907371214671641E-005
           7   1.2280007312041768E-002
           8 -0.14158365782512300     
           9   2.7342270188641542E-004
          10   2.8753421658686329E-004
          11   5.0691876863898498E-002
          12 -0.58623391676437742     
          13  -9.1192017722072071E-006
          14  -7.0743137015991714E-006
          15  -3.0066596558228360E-002
          16  0.34708871131079988     
          17  -2.9035347317663392E-004
          18   9.9423952941360750E-006
          19   3.9636139654979606E-002
          20 -0.45770532875066866     
Sym=     9a
Ene=  -0.43404320055560397     
Spin= Alpha
Occup=     1.96541059
           1  -4.9374658396161581E-003
           2 -0.10826182034529598     
           3  -5.8402917267512391E-003
           4  -3.2439387990723965E-004
           5  0.13694518948379991     
           6  0.14471399363736029     
           7  -4.6618213816889180E-002
           8  -4.1799696677734810E-003
           9 -0.20671917562487996     
          10 -0.21718171403621067     
          11   6.2422066388702013E-002
          12   5.0695335219128604E-003
          13  -1.1297505852474549E-002
          14  -7.9722987132626766E-002
          15   6.3745198384149881E-002
          16   5.7037640461656694E-003
          17  0.61667606558690824     
          18  0.64494540141223367     
          19 -0.16962223183275413     
          20  -1.4498743975446333E-002
Sym=    10a
Ene=  -0.42771780592105396     
Spin= Alpha
Occup=     1.03458941
           1 -0.39653234205760740     
           2 -0.13861380876837825     
           3 -0.58150409147727355     
           4  -5.0369318723487655E-002
           5  -1.0083199074077202E-002
           6   2.6620742187090818E-004
           7   1.8591262830448963E-003
           8   1.7295486421835095E-004
           9   8.9871054896901764E-004
          10   1.7667384448657682E-002
          11  -7.0252826902993948E-003
          12  -5.9160812911856879E-004
          13 -0.39447667602708086     
          14  0.18406566112723141     
          15  0.56710072934772637     
          16   4.9106909300718218E-002
          17  -3.1022696989531341E-002
          18  -3.0086778201873929E-002
          19   5.3323462548731451E-003
          20   4.5005892239969171E-004
Sym=    11a
Ene=  -0.41119459890369131     
Spin= Alpha
Occup=     1.00000000
           1 -0.18691530284436317     
           2  0.30569590971100491     
           3 -0.24391192126314018     
           4  -2.1046762225433568E-002
           5   1.6249381811330125E-003
           6  0.11377079543362709     
           7  0.39481141520325330     
           8   3.4191535532665712E-002
           9  -4.4280700374945206E-004
          10  -9.3827817872189787E-002
          11 -0.32913320554735354     
          12  -2.8507199729615070E-002
          13  0.19060889398550268     
          14 -0.39134316450216655     
          15  -5.3059826166185355E-002
          16  -4.6696744862329189E-003
          17   6.2460096417968720E-003
          18 -0.13604116368197447     
          19 -0.53336291255451429     
          20  -4.6186312428840894E-002
Sym=    12a
Ene=  -0.34324547079319945     
Spin= Alpha
Occup=     0.00000000
           1  -3.1782478024037140E-006
           2  -2.2956350570517923E-005
           3  -2.9171098479647758E-002
           4  0.33687496211605333     
           5  -1.3274357220483633E-004
           6   3.2343897704325567E-005
           7   5.7876317892663613E-002
           8 -0.66837519450828942     
           9   5.3593425840309833E-005
          10   1.7065453962220885E-006
          11   3.3597235674349695E-003
          12  -3.8797923110326316E-002
          13  -3.3259322360494178E-006
          14  -2.0683303437272869E-005
          15  -2.8960746488151123E-002
          16  0.33448659807400216     
          17   3.6255035781839568E-006
          18  -4.5806999020367423E-004
          19  -5.7141966759381178E-002
          20  0.66126333083872368     
Sym=    13a
Ene=  -0.28896349809304905     
Spin= Alpha
Occup=     0.00000000
           1  -3.2879799684650971E-007
           2   1.5507109059081277E-004
           3   6.8820552088937489E-002
           4 -0.79514447155652979     
           5  -2.6799756603741490E-007
           6  -1.4169887777919176E-007
           7   7.7150296660298301E-005
           8  -8.9631562117392758E-004
           9   2.8308621198473085E-007
          10   1.8198908870040272E-006
          11   6.5899748789232618E-005
          12  -6.9089576528148257E-004
          13   3.3377957847284203E-007
          14  -1.5520654488519235E-004
          15  -6.8885961215684480E-002
          16  0.79589365795554989     
          17   7.0190119327821209E-008
          18  -3.7202780964379431E-006
          19  -1.3347430925616933E-004
          20   1.4176003097757458E-003
Sym=    14a
Ene=  -0.22954316242723846     
Spin= Alpha
Occup=     0.00000000
           1  -2.4402802391445811E-002
           2 -0.36757907627943243     
           3   7.5260006852317887E-002
           4   6.4524053961689748E-003
           5   3.7181712081351126E-003
           6   2.1358023571879194E-002
           7   7.1624439307778009E-002
           8   6.1990785505490016E-003
           9  -5.0328671653053604E-003
          10  0.18177794223084495     
          11  0.65310340146688950     
          12   5.6566321128513147E-002
          13   2.3151300744205645E-002
          14  0.34894663813613230     
          15 -0.12691277232271087     
          16  -1.0923829017605384E-002
          17  -5.7411790377411844E-004
          18 -0.20179968517256350     
          19 -0.73313290230292227     
          20  -6.3496379589752253E-002
Sym=    15a
Ene=  -0.15372946614504504     
Spin= Alpha
Occup=     0.00000000
           1   2.5661799290707091E-005
           2   9.2172042354836284E-005
           3   1.4224489794222842E-002
           4 -0.16467749970136245     
           5  -1.7424051837866374E-004
           6  -1.6252852731778151E-004
           7  -5.1513545709514913E-002
           8  0.59536839043956802     
           9   3.9903883604798502E-004
          10   2.3479600612012012E-004
          11   7.2561526523215153E-002
          12 -0.83852997107046867     
          13   2.6751173213937366E-005
          14   1.0791409766643573E-004
          15   1.4343887520950708E-002
          16 -0.16586520083260803     
          17  -1.8194996759690393E-005
          18  -1.3962727576703298E-004
          19  -5.4833464446039974E-002
          20  0.63354091181573746     
Sym=    16a
Ene=   -4.0173572340490953E-003
Spin= Alpha
Occup=     0.00000000
           1   2.9759756302126256E-002
           2  0.67116802654309782     
           3  0.11009275858078474     
           4   9.6633789462806582E-003
           5   1.3220770207005504E-002
           6 -0.22236387530985424     
           7 -0.78669567821735475     
           8  -6.8129839397122458E-002
           9  -1.2726376818401636E-002
          10  0.13096976673055566     
          11  0.46230069532036883     
          12   4.0028449596741893E-002
          13  -3.4908247682331577E-002
          14 -0.52435373389224083     
          15  0.44508873189652537     
          16   3.8415557168323254E-002
          17   2.9026695201064515E-003
          18  -7.1875039477463556E-002
          19 -0.23373487850636443     
          20  -2.0241085807852763E-002
Sym=    17a
Ene=    4.9801797383809111E-002
Spin= Alpha
Occup=     0.00000000
           1  0.25082934550062558     
           2  0.41596045735903464     
           3 -0.22568318096248102     
           4  -1.9439202268556756E-002
           5  -1.0437480567924777     
           6  0.17001595918864745     
           7  -5.9901012271468573E-002
           8  -5.2027770570022289E-003
           9  0.64410087652862058     
          10 -0.22569005825407082     
          11   7.5513759482611686E-002
          12   6.8627646692817632E-003
          13  0.25092293306007402     
          14  0.46262945103743564     
          15  -1.3626901124582515E-002
          16  -1.0764219961508497E-003
          17 -0.15131229497927412     
          18  0.35895471554306629     
          19 -0.10367258868440915     
          20  -8.9711787034895685E-003
Sym=    18a
Ene=   0.46846935860719924     
Spin= Alpha
Occup=     0.00000000
           1 -0.34009304097357956     
           2 -0.28360365760592976     
           3  0.28046710850912332     
           4   2.4228824319085924E-002
           5  0.22271880956325496     
           6 -0.93616971037387142     
           7  0.28271928078206116     
           8   2.4212124845789378E-002
           9   1.0148052839217712     
          10  0.15622727755789359     
          11  -4.4013116378987263E-002
          12  -3.3505623715609986E-003
          13 -0.22252219916784968     
          14 -0.33750094883147314     
          15   3.3129703977159752E-002
          16   2.8110441342385031E-003
          17 -0.45843355333218355     
          18  0.62892570471043097     
          19 -0.16872585278167326     
          20  -1.4315351148475947E-002
Sym=    19a
Ene=   0.48282973556406289     
Spin= Alpha
Occup=     0.00000000
           1 -0.80248256264244178     
           2  0.13721261618492642     
           3  0.89897714095567138     
           4   7.7832845103876683E-002
           5  -1.6135221096736815E-002
           6  0.15342383793015693     
           7  0.28164122554718135     
           8   2.4411648091094518E-002
           9  -7.3402776590493185E-002
          10  -4.1243887752301291E-002
          11 -0.10378042907382107     
          12  -9.0211307260994640E-003
          13  0.84321709839191217     
          14  0.40742825472699068     
          15  0.84169696076296052     
          16   7.2929807620147655E-002
          17   3.3411897809241982E-002
          18  -3.6193369160902863E-002
          19   4.6286238701431323E-002
          20   3.9868182006082501E-003
Sym=    20a
Ene=    1.1289014343514614     
Spin= Alpha
Occup=     0.00000000
           1 -0.16534519635637074     
           2 -0.12482241363149309     
           3  0.11014358025645363     
           4   9.4817601271084163E-003
           5 -0.48691789984255185     
           6 -0.92511707729556958     
           7  0.26116448361365174     
           8   2.2616827119731363E-002
           9  -4.8427599254157860E-004
          10  -1.3872557178052294     
          11  0.38115566100234244     
          12   3.2519716935405861E-002
          13 -0.16586231537923934     
          14 -0.16443743823955198     
          15  -2.9157191574511600E-002
          16  -2.5827156356997625E-003
          17  0.75099544792487583     
          18 -0.72180834462044452     
          19  0.19272062115464925     
          20   1.6126169485144646E-002
