      -----------------------------------------------------------      
     |                   =====================                   |     
     |                           x T B                           |     
     |                   =====================                   |     
     |                         S. Grimme                         |     
     |          Mulliken Center for Theoretical Chemistry        |     
     |                    University of Bonn                     |     
      -----------------------------------------------------------      

   * xtb version 6.2.2 (9d81278992624c895f80dd42a50cac0aa55982e2) compiled by '@Darwin' on 04/03/2020

   xtb is free software: you can redistribute it and/or modify it under
   the terms of the GNU Lesser General Public License as published by
   the Free Software Foundation, either version 3 of the License, or
   (at your option) any later version.
   
   xtb is distributed in the hope that it will be useful,
   but WITHOUT ANY WARRANTY; without even the implied warranty of
   MERCHANTABILITY or FITNESS FOR A PARTICULAR PURPOSE.  See the
   GNU Lesser General Public License for more details.
   
   Cite this work as:
   * S. Grimme, C. Bannwarth, P. Shushkov, J. Chem. Theory Comput., 2017,
     13, 1989-2009. DOI: 10.1021/acs.jctc.7b00118
   * C. Bannwarth, S. Ehlert and S. Grimme., J. Chem. Theory Comput., 2019,
     15, 1652-1671. DOI: 10.1021/acs.jctc.8b01176
   * P. Pracht, E. Caldeweyher, S. Ehlert, S. Grimme, ChemRxiv, 2019, preprint.
     DOI: 10.26434/chemrxiv.8326202.v1
   
   for DFT-D4:
   * E. Caldeweyher, C. Bannwarth and S. Grimme, J. Chem. Phys., 2017,
     147, 034112. DOI: 10.1063/1.4993215
   * E. Caldeweyher, S. Ehlert, A. Hansen, H. Neugebauer, S. Spicher,
     C. Bannwarth and S. Grimme, J. Chem. Phys., 2019, 150, 154122.
     DOI: 10.1063/1.5090222
   
   for sTDA-xTB:
   * S. Grimme and C. Bannwarth, J. Chem. Phys., 2016, 145, 054103.
     DOI: 10.1063/1.4959605
   
   in the mass-spec context:
   * V. Asgeirsson, C. Bauer and S. Grimme, Chem. Sci., 2017, 8, 4879.
     DOI: 10.1039/c7sc00601b
   
   for metadynamics refer to:
   * S. Grimme, J. Chem. Theory Comput., 2019, 155, 2847-2862
     DOI: 10.1021/acs.jctc.9b00143
   
   with help from (in alphabetical order)
   C. Bannwarth, F. Bohle, G. Brandenburg, E. Caldeweyher, M. Checinski,
   S. Dohm, S. Ehlert, S. Ehrlich, F. März, H. Neugebauer, J. Pisarek,
   P. Pracht, P. Shushkov, and S. Spicher.
   
 * started run on 2020/05/12 at 11:44:31.262     

           -------------------------------------------------
          |                Calculation Setup                |
           -------------------------------------------------

          program call               : xtb --input C5_1_S_2.input C5_1_S_2.xyz --ohess --molden --namespace C5_1_S_2 output.out
          calculation namespace      : C5_1_S_2
          coordinate file            : C5_1_S_2.xyz
          number of atoms            :                     5
          number of electrons        :                    20
          charge                     :                     0
          spin                       :                   1.0
          first test random number   :      0.29590011012281

   ID    Z sym.   atoms
    1    6 C      1-5

           -------------------------------------------------
          |                 G F N 2 - x T B                 |
           -------------------------------------------------

        Reference                      10.1021/acs.jctc.8b01176
      * Hamiltonian:
        H0-scaling (s, p, d)           1.850000    2.230000    2.230000
        zeta-weighting                 0.500000
      * Dispersion:
        s8                             2.700000
        a1                             0.520000
        a2                             5.000000
        s9                             5.000000
      * Repulsion:
        kExp                           1.500000    1.000000
        rExp                           1.000000
      * Coulomb:
        alpha                          2.000000
        third order                    shell-resolved
        anisotropic                    true
        a3                             3.000000
        a5                             4.000000
        cn-shift                       1.200000
        cn-exp                         4.000000
        max-rad                        5.000000


          ...................................................
          :                      SETUP                      :
          :.................................................:
          :  # basis functions                  20          :
          :  # atomic orbitals                  20          :
          :  # shells                           10          :
          :  # electrons                        20          :
          :  max. iterations                   250          :
          :  Hamiltonian                  GFN2-xTB          :
          :  restarted?                      false          :
          :  GBSA solvation                  false          :
          :  PC potential                    false          :
          :  electronic temp.          300.0000000     K    :
          :  accuracy                    1.0000000          :
          :  -> integral cutoff          0.2500000E+02      :
          :  -> integral neglect         0.1000000E-07      :
          :  -> SCF convergence          0.1000000E-05 Eh   :
          :  -> wf. convergence          0.1000000E-03 e    :
          :  Broyden damping             0.4000000          :
          ...................................................

 iter      E             dE          RMSdq      gap      omega  full diag
   1     -9.9345977 -0.993460E+01  0.134E+01    0.19       0.0  T
   2     -8.2453866  0.168921E+01  0.143E+01    0.29       1.0  T
   3     -6.4562402  0.178915E+01  0.164E+01    0.48       1.0  T
   4     -8.8678224 -0.241158E+01  0.111E+01    0.22       1.0  T
   5     -9.6466662 -0.778844E+00  0.743E+00    0.26       1.0  T
   6     -9.3516727  0.294994E+00  0.895E+00    0.97       1.0  T
   7     -9.9205657 -0.568893E+00  0.490E+00    0.38       1.0  T
   8     -9.9551379 -0.345723E-01  0.441E+00    0.32       1.0  T
   9     -9.9988725 -0.437346E-01  0.343E+00    0.20       1.0  T
  10    -10.0257620 -0.268895E-01  0.244E+00    0.13       1.0  T
  11     -9.9878443  0.379177E-01  0.360E+00    0.08       1.0  T
  12     -9.9933172 -0.547286E-02  0.348E+00    0.08       1.0  T
  13     -9.9358625  0.574546E-01  0.462E+00    0.15       1.0  T
  14     -9.9795232 -0.436606E-01  0.370E+00    0.09       1.0  T
  15    -10.0465590 -0.670358E-01  0.137E+00    0.01       1.0  T
  16    -10.0195365  0.270225E-01  0.253E+00    0.18       1.0  T
  17    -10.0356524 -0.161159E-01  0.195E+00    0.13       1.0  T
  18    -10.0341797  0.147266E-02  0.201E+00    0.13       1.0  T
  19    -10.0529685 -0.187888E-01  0.930E-01    0.07       1.0  T
  20    -10.0574691 -0.450054E-02  0.256E-01    0.03       1.0  T
  21    -10.0577092 -0.240112E-03  0.137E-01    0.04       1.0  T
  22    -10.0577439 -0.347356E-04  0.564E-02    0.04       1.0  T
  23    -10.0576574  0.864969E-04  0.133E-01    0.04       1.0  T
  24    -10.0577565 -0.990913E-04  0.175E-02    0.04       2.6  T
  25    -10.0577466  0.991703E-05  0.431E-02    0.04       1.0  T
  26    -10.0577567 -0.101099E-04  0.103E-02    0.04       4.3  T
  27    -10.0577573 -0.626700E-06  0.244E-03    0.04      18.3  T
  28    -10.0577574 -0.205057E-07  0.158E-03    0.04      28.3  T
  29    -10.0577574 -0.691574E-08  0.107E-03    0.04      41.7  T
  30    -10.0577574 -0.679668E-08  0.862E-05    0.04     519.0  T
  31    -10.0577574  0.824230E-12  0.713E-05    0.04     627.4  T

   *** convergence criteria satisfied after 31 iterations ***

         #    Occupation            Energy/Eh            Energy/eV
      -------------------------------------------------------------
         1        2.0000           -0.7172679             -19.5179
       ...           ...                  ...                  ...
         5        2.0000           -0.5509975             -14.9934
         6        2.0000           -0.5190901             -14.1252
         7        2.0000           -0.5150638             -14.0156
         8        2.0000           -0.5078243             -13.8186
         9        1.9949           -0.4606780             -12.5357
        10        1.0051           -0.4506660             -12.2632
        11        0.6849           -0.4203544             -11.4384 (HOMO)
        12        0.3151           -0.4188788             -11.3983 (LUMO)
        13                         -0.3985047             -10.8439
        14                         -0.3812137             -10.3734
        15                         -0.3454103              -9.3991
        16                         -0.3106558              -8.4534
       ...                                ...                  ...
        20                          0.1067591               2.9051
      -------------------------------------------------------------
                  HL-Gap            0.0014756 Eh            0.0402 eV
             Fermi-level           -0.4376443 Eh          -11.9089 eV

 transition dipole moment (au) for excitation:          10          11
     X       Y       Z   
  -0.0130  -0.1416  -0.1414  total (au/Debye):    0.201   0.510
 dE (eV)             :    0.825
 oscillator strength :  0.11496E-02

 SCC (total)                   0 d,  0 h,  0 min,  0.008 sec
 SCC setup                      ...        0 min,  0.000 sec (  1.125%)
 Dispersion                     ...        0 min,  0.000 sec (  0.277%)
 integral evaluation            ...        0 min,  0.001 sec ( 17.989%)
 zeroth order Hamiltonian       ...        0 min,  0.000 sec (  0.261%)
 iterations                     ...        0 min,  0.003 sec ( 45.424%)
 molecular gradient             ...        0 min,  0.001 sec ( 17.831%)
 printout                       ...        0 min,  0.001 sec ( 16.932%)

         :::::::::::::::::::::::::::::::::::::::::::::::::::::
         ::                     SUMMARY                     ::
         :::::::::::::::::::::::::::::::::::::::::::::::::::::
         :: total energy              -9.999056317261 Eh    ::
         :: gradient norm              0.312395050951 Eh/a0 ::
         :: HOMO-LUMO gap              0.040152220665 eV    ::
         ::.................................................::
         :: SCC energy               -10.057757365816 Eh    ::
         :: -> isotropic ES           -0.042938822059 Eh    ::
         :: -> anisotropic ES         -0.001137332641 Eh    ::
         :: -> anisotropic XC          0.010535805513 Eh    ::
         :: -> dispersion             -0.003170454692 Eh    ::
         :: repulsion energy           0.058700789507 Eh    ::
         :: add. restraining           0.000000000000 Eh    ::
         :::::::::::::::::::::::::::::::::::::::::::::::::::::

      ----------------------------------------------------------- 
     |                   =====================                   |
     |                        A N C O P T                        |
     |                   =====================                   |
     |               Approximate Normal Coordinate               |
     |                Rational Function Optimizer                |
      ----------------------------------------------------------- 

          ...................................................
          :                      SETUP                      :
          :.................................................:
          :   optimization level            normal          :
          :   max. optcycles                   200          :
          :   ANC micro-cycles                  20          :
          :   degrees of freedom                 9          :
          :.................................................:
          :   RF solver                   davidson          :
          :   write xtbopt.log                true          :
          :   linear?                        false          :
          :   energy convergence         0.5000000E-05 Eh   :
          :   grad. convergence          0.1000000E-02 Eh/α :
          :   maximium RF displ.         1.0000000          :
          :   Hlow (freq-cutoff)         0.1000000E-01      :
          :   Hmax (freq-cutoff)         5.0000000          :
          :   S6 in model hess.         20.0000000          :
          ...................................................

generating ANC from model Hessian ...
Using Lindh-Hessian (1995)
 Shifting diagonal of input Hessian by    2.5827863742181618E-003
 Lowest  eigenvalues of input Hessian
   -0.000000   -0.000000    0.000000    0.000000    0.000000    0.000000
    0.010000    0.034797    0.061368    0.068542    0.091528    0.563036
    0.797012    0.979350    1.034095
 Highest eigenvalues
    0.068542    0.091528    0.563036    0.797012    0.979350    1.034095


........................................................................
.............................. CYCLE    1 ..............................
........................................................................
   1    -10.0577574 -0.100578E+02  0.258E-05    0.04       0.0  T
   2    -10.0577574  0.133731E-08  0.403E-04    0.04     111.1  T
   3    -10.0577574 -0.128788E-08  0.824E-05    0.04     542.9  T
     SCC iter.                  ...        0 min,  0.000 sec
     gradient                   ...        0 min,  0.001 sec
 * total energy  :    -9.9990563 Eh     change       -0.7634249E-10 Eh
   gradient norm :     0.3123951 Eh/α   predicted     0.0000000E+00 (-100.00%)
   displ. norm   :     0.4012786 α      lambda       -0.1217194E+00
   maximum displ.:     0.3392756 α      in ANC's #6, #7, #9, ...

........................................................................
.............................. CYCLE    2 ..............................
........................................................................
   1    -10.2204708 -0.102205E+02  0.235E+00    0.05       0.0  T
   2    -10.1705197  0.499510E-01  0.325E+00    0.12       1.0  T
   3    -10.1008306  0.696891E-01  0.424E+00    0.17       1.0  T
   4    -10.1814918 -0.806612E-01  0.258E+00    0.20       1.0  T
   5    -10.1876152 -0.612340E-02  0.250E+00    0.08       1.0  T
   6    -10.2175839 -0.299687E-01  0.137E+00    0.06       1.0  T
   7    -10.2278561 -0.102722E-01  0.731E-01    0.07       1.0  T
   8    -10.2263692  0.148686E-02  0.864E-01    0.08       1.0  T
   9    -10.2287467 -0.237749E-02  0.467E-01    0.06       1.0  T
  10    -10.2294959 -0.749148E-03  0.431E-01    0.03       1.0  T
  11    -10.2294305  0.653747E-04  0.452E-01    0.03       1.0  T
  12    -10.2303333 -0.902759E-03  0.730E-02    0.04       1.0  T
  13    -10.2303019  0.313749E-04  0.105E-01    0.04       1.0  T
  14    -10.2303443 -0.424601E-04  0.101E-02    0.04       4.4  T
  15    -10.2303447 -0.365346E-06  0.354E-03    0.04      12.7  T
  16    -10.2303447 -0.190763E-07  0.147E-03    0.04      30.4  T
  17    -10.2303447 -0.764822E-08  0.483E-04    0.04      92.7  T
  18    -10.2303447 -0.101856E-08  0.883E-05    0.04     506.2  T
     SCC iter.                  ...        0 min,  0.002 sec
     gradient                   ...        0 min,  0.001 sec
 * total energy  :   -10.1007237 Eh     change       -0.1016673E+00 Eh
   gradient norm :     0.1899127 Eh/α   predicted    -0.7065959E-01 ( -30.50%)
   displ. norm   :     0.4819898 α      lambda       -0.8691334E-01
   maximum displ.:     0.3579974 α      in ANC's #6, #7, #9, ...

........................................................................
.............................. CYCLE    3 ..............................
........................................................................
   1    -10.4248902 -0.104249E+02  0.357E+00    0.17       0.0  T
   2    -10.0802135  0.344677E+00  0.654E+00    0.41       1.0  T
   3    -10.3084122 -0.228199E+00  0.405E+00    0.31       1.0  T
   4    -10.4191986 -0.110786E+00  0.234E+00    0.20       1.0  T
   5    -10.3460796  0.731190E-01  0.394E+00    0.11       1.0  T
   6    -10.4405388 -0.944592E-01  0.979E-01    0.07       1.0  T
   7    -10.4390034  0.153540E-02  0.119E+00    0.12       1.0  T
   8    -10.4437338 -0.473041E-02  0.815E-01    0.09       1.0  T
   9    -10.4443942 -0.660452E-03  0.664E-01    0.09       1.0  T
  10    -10.4450983 -0.704048E-03  0.597E-01    0.05       1.0  T
  11    -10.4451706 -0.723319E-04  0.540E-01    0.05       1.0  T
  12    -10.4456415 -0.470858E-03  0.747E-02    0.06       1.0  T
  13    -10.4456189  0.225886E-04  0.147E-01    0.06       1.0  T
  14    -10.4456512 -0.323758E-04  0.295E-02    0.06       1.5  T
  15    -10.4456525 -0.128033E-05  0.948E-03    0.06       4.7  T
  16    -10.4456526 -0.118465E-06  0.253E-03    0.06      17.7  T
  17    -10.4456527 -0.712393E-08  0.152E-04    0.06     293.6  T
  18    -10.4456527  0.195685E-09  0.401E-04    0.06     111.4  T
     SCC iter.                  ...        0 min,  0.002 sec
     gradient                   ...        0 min,  0.001 sec
 * total energy  :   -10.0910244 Eh     change        0.9699294E-02 Eh
   gradient norm :     0.5187325 Eh/α   predicted    -0.5355224E-01 (-652.13%)
   displ. norm   :     0.3102704 α      lambda       -0.1231497E+00
   maximum displ.:     0.1799513 α      in ANC's #2, #7, #5, ...

........................................................................
.............................. CYCLE    4 ..............................
........................................................................
   1    -10.3002752 -0.103003E+02  0.402E+00    0.23       0.0  T
   2     -9.6306065  0.669669E+00  0.799E+00    0.92       1.0  T
   3    -10.1924446 -0.561838E+00  0.407E+00    0.25       1.0  T
   4    -10.3133294 -0.120885E+00  0.231E+00    0.10       1.0  T
   5    -10.3209445 -0.761511E-02  0.219E+00    0.11       1.0  T
   6    -10.3380517 -0.171072E-01  0.149E+00    0.05       1.0  T
   7    -10.3383094 -0.257701E-03  0.152E+00    0.04       1.0  T
   8    -10.3383088  0.594256E-06  0.152E+00    0.04       1.0  T
   9    -10.3384513 -0.142512E-03  0.460E-01    0.04       1.0  T
  10    -10.3389848 -0.533449E-03  0.170E-01    0.04       1.0  T
  11    -10.3390000 -0.152093E-04  0.226E-01    0.04       1.0  T
  12    -10.3390323 -0.323474E-04  0.534E-02    0.04       1.0  T
  13    -10.3390387 -0.632308E-05  0.859E-02    0.04       1.0  T
  14    -10.3390442 -0.553739E-05  0.151E-02    0.04       3.0  T
  15    -10.3390446 -0.398607E-06  0.624E-03    0.04       7.2  T
  16    -10.3390446 -0.670070E-08  0.526E-03    0.04       8.5  T
  17    -10.3390446 -0.965751E-08  0.166E-03    0.04      27.0  T
  18    -10.3390446 -0.975133E-09  0.801E-05    0.04     558.4  T
  19    -10.3390446  0.304468E-11  0.933E-05    0.04     479.2  T
     SCC iter.                  ...        0 min,  0.002 sec
     gradient                   ...        0 min,  0.001 sec
 * total energy  :   -10.1336494 Eh     change       -0.4262503E-01 Eh
   gradient norm :     0.1064494 Eh/α   predicted    -0.6750251E-01 (  58.36%)
   displ. norm   :     0.3891198 α      lambda       -0.1719117E-01
   maximum displ.:     0.3474658 α      in ANC's #3, #1, #2, ...

........................................................................
.............................. CYCLE    5 ..............................
........................................................................
   1    -10.3167208 -0.103167E+02  0.245E+00    0.46       0.0  T
   2    -10.3037115  0.130093E-01  0.177E+00    0.16       1.0  T
   3    -10.2343227  0.693888E-01  0.310E+00    0.56       1.0  T
   4    -10.2729504 -0.386277E-01  0.211E+00    0.52       1.0  T
   5    -10.3143210 -0.413706E-01  0.872E-01    0.27       1.0  T
   6    -10.3203070 -0.598600E-02  0.303E-01    0.34       1.0  T
   7    -10.3204497 -0.142720E-03  0.205E-01    0.33       1.0  T
   8    -10.3204665 -0.167167E-04  0.176E-01    0.33       1.0  T
   9    -10.3204973 -0.308201E-04  0.164E-02    0.32       2.7  T
  10    -10.3204977 -0.388375E-06  0.137E-02    0.32       3.3  T
  11    -10.3204979 -0.191232E-06  0.270E-03    0.32      16.5  T
  12    -10.3204979 -0.500324E-08  0.160E-03    0.32      28.0  T
  13    -10.3204979 -0.455035E-08  0.168E-04    0.32     266.1  T
  14    -10.3204979 -0.196732E-10  0.294E-05    0.32    1522.0  T
     SCC iter.                  ...        0 min,  0.002 sec
     gradient                   ...        0 min,  0.001 sec
 * total energy  :   -10.1445589 Eh     change       -0.1090947E-01 Eh
   gradient norm :     0.0838764 Eh/α   predicted    -0.9897076E-02 (  -9.28%)
   displ. norm   :     0.5818529 α      lambda       -0.2492190E-01
   maximum displ.:     0.4038365 α      in ANC's #3, #4, #5, ...

........................................................................
.............................. CYCLE    6 ..............................
........................................................................
   1    -10.3284666 -0.103285E+02  0.263E+00    1.30       0.0  T
   2    -10.2200032  0.108463E+00  0.328E+00    1.80       1.0  T
   3    -10.2244092 -0.440601E-02  0.356E+00    0.83       1.0  T
   4    -10.2975467 -0.731375E-01  0.209E+00    1.16       1.0  T
   5    -10.3155526 -0.180059E-01  0.159E+00    1.46       1.0  T
   6    -10.3359228 -0.203702E-01  0.734E-01    1.45       1.0  T
   7    -10.3358931  0.297482E-04  0.765E-01    1.45       1.0  T
   8    -10.3358089  0.841439E-04  0.570E-01    1.45       1.0  T
   9    -10.3359286 -0.119615E-03  0.176E-01    1.44       1.0  T
  10    -10.3359619 -0.333037E-04  0.113E-01    1.45       1.0  T
  11    -10.3359705 -0.866473E-05  0.160E-02    1.45       2.8  T
  12    -10.3359710 -0.496832E-06  0.432E-03    1.45      10.4  T
  13    -10.3359711 -0.237874E-07  0.729E-04    1.45      61.3  T
  14    -10.3359711 -0.270285E-09  0.520E-04    1.45      86.1  T
     SCC iter.                  ...        0 min,  0.001 sec
     gradient                   ...        0 min,  0.001 sec
 * total energy  :   -10.1638810 Eh     change       -0.1932216E-01 Eh
   gradient norm :     0.1487916 Eh/α   predicted    -0.1667963E-01 ( -13.68%)
   displ. norm   :     0.7237352 α      lambda       -0.4836040E-01
   maximum displ.:     0.4237852 α      in ANC's #4, #5, #2, ...

........................................................................
.............................. CYCLE    7 ..............................
........................................................................
   1    -10.4079829 -0.104080E+02  0.484E+00    2.17       0.0  T
   2     -9.9327200  0.475263E+00  0.679E+00    1.53       1.0  T
   3    -10.2541947 -0.321475E+00  0.437E+00    1.98       1.0  T
   4    -10.2681745 -0.139797E-01  0.451E+00    1.94       1.0  T
   5    -10.3912650 -0.123091E+00  0.209E+00    2.15       1.0  T
   6    -10.4266055 -0.353405E-01  0.988E-01    2.10       1.0  T
   7    -10.4247143  0.189124E-02  0.891E-01    2.12       1.0  T
   8    -10.4288520 -0.413776E-02  0.357E-01    2.11       1.0  T
   9    -10.4180988  0.107532E-01  0.112E+00    2.10       1.0  T
  10    -10.4131266  0.497221E-02  0.135E+00    2.10       1.0  T
  11    -10.4224267 -0.930005E-02  0.868E-01    2.10       1.0  T
  12    -10.4280192 -0.559248E-02  0.365E-01    2.10       1.0  T
  13    -10.4284543 -0.435114E-03  0.283E-01    2.10       1.0  T
  14    -10.4290992 -0.644976E-03  0.605E-02    2.10       1.0  T
  15    -10.4291295 -0.302547E-04  0.140E-02    2.10       3.2  T
  16    -10.4291276  0.185697E-05  0.190E-02    2.10       2.4  T
  17    -10.4291308 -0.313765E-05  0.241E-03    2.10      18.5  T
  18    -10.4291308 -0.264057E-07  0.788E-04    2.10      56.7  T
  19    -10.4291308 -0.516648E-09  0.325E-04    2.10     137.8  T
     SCC iter.                  ...        0 min,  0.002 sec
     gradient                   ...        0 min,  0.001 sec
 * total energy  :   -10.2160856 Eh     change       -0.5220457E-01 Eh
   gradient norm :     0.2126727 Eh/α   predicted    -0.3684562E-01 ( -29.42%)
   displ. norm   :     0.8089865 α      lambda       -0.8019134E-01
   maximum displ.:     0.4638931 α      in ANC's #6, #4, #2, ...

........................................................................
.............................. CYCLE    8 ..............................
........................................................................
   1    -10.3985541 -0.103986E+02  0.790E+00    0.75       0.0  T
   2     -8.9490396  0.144951E+01  0.120E+01    0.78       1.0  T
   3    -10.4833204 -0.153428E+01  0.446E+00    0.04       1.0  T
   4    -10.5196658 -0.363453E-01  0.437E+00    0.34       1.0  T
   5    -10.5788596 -0.591938E-01  0.296E+00    0.21       1.0  T
   6    -10.4787811  0.100078E+00  0.519E+00    0.38       1.0  T
   7    -10.6049759 -0.126195E+00  0.168E+00    0.15       1.0  T
   8    -10.6176279 -0.126520E-01  0.419E-01    0.03       1.0  T
   9    -10.6100285  0.759947E-02  0.126E+00    0.01       1.0  T
  10    -10.6175220 -0.749357E-02  0.429E-01    0.03       1.0  T
  11    -10.6184269 -0.904884E-03  0.291E-02    0.05       1.5  T
  12    -10.6183058  0.121127E-03  0.151E-01    0.05       1.0  T
  13    -10.6184061 -0.100326E-03  0.676E-02    0.05       1.0  T
  14    -10.6184314 -0.252636E-04  0.890E-03    0.05       5.0  T
  15    -10.6184313  0.490318E-07  0.924E-03    0.05       4.8  T
  16    -10.6184318 -0.454934E-06  0.959E-04    0.05      46.6  T
  17    -10.6184318 -0.527931E-09  0.930E-04    0.05      48.1  T
     SCC iter.                  ...        0 min,  0.002 sec
     gradient                   ...        0 min,  0.001 sec
 * total energy  :    -9.9636725 Eh     change        0.2524131E+00 Eh
   gradient norm :     1.6187785 Eh/α   predicted    -0.6633665E-01 (-126.28%)
   displ. norm   :     0.4952685 α      lambda       -0.7764209E+00
   maximum displ.:     0.2956293 α      in ANC's #5, #4, #6, ...

........................................................................
.............................. CYCLE    9 ..............................
........................................................................
   1    -10.0626630 -0.100627E+02  0.638E+00    1.58       0.0  T
   2     -7.5245682  0.253809E+01  0.168E+01    1.45       1.0  T
   3    -10.1726502 -0.264808E+01  0.551E+00    0.57       1.0  T
   4    -10.4366665 -0.264016E+00  0.270E+00    1.27       1.0  T
   5    -10.4316303  0.503618E-02  0.222E+00    1.43       1.0  T
   6    -10.4544465 -0.228162E-01  0.114E+00    1.38       1.0  T
   7    -10.4575661 -0.311966E-02  0.462E-01    1.46       1.0  T
   8    -10.4592261 -0.165999E-02  0.251E-01    1.45       1.0  T
   9    -10.4594525 -0.226368E-03  0.176E-01    1.45       1.0  T
  10    -10.4595262 -0.737290E-04  0.879E-02    1.46       1.0  T
  11    -10.4595532 -0.269442E-04  0.371E-02    1.46       1.2  T
  12    -10.4595545 -0.134805E-05  0.284E-02    1.46       1.6  T
  13    -10.4595561 -0.155050E-05  0.548E-03    1.46       8.2  T
  14    -10.4595561 -0.378520E-07  0.107E-03    1.46      42.0  T
  15    -10.4595561 -0.125380E-08  0.190E-04    1.46     235.8  T
  16    -10.4595561 -0.730385E-10  0.658E-05    1.46     679.5  T
     SCC iter.                  ...        0 min,  0.002 sec
     gradient                   ...        0 min,  0.001 sec
 * total energy  :   -10.2357505 Eh     change       -0.2720780E+00 Eh
   gradient norm :     0.0850718 Eh/α   predicted    -0.4834349E+00 (  77.68%)
   displ. norm   :     0.8328133 α      lambda       -0.3163866E-01
   maximum displ.:     0.6082965 α      in ANC's #3, #6, #4, ...

........................................................................
.............................. CYCLE   10 ..............................
........................................................................
   1    -10.4487189 -0.104487E+02  0.635E+00    2.82       0.0  T
   2     -9.8762536  0.572465E+00  0.791E+00    1.51       1.0  T
   3    -10.1908824 -0.314629E+00  0.590E+00    2.48       1.0  T
   4    -10.5042985 -0.313416E+00  0.179E+00    2.77       1.0  T
   5    -10.4980603  0.623815E-02  0.173E+00    2.97       1.0  T
   6    -10.4752869  0.227735E-01  0.240E+00    2.88       1.0  T
   7    -10.4507015  0.245853E-01  0.291E+00    2.88       1.0  T
   8    -10.4461768  0.452476E-02  0.300E+00    2.87       1.0  T
   9    -10.5213013 -0.751245E-01  0.573E-01    2.89       1.0  T
  10    -10.5219194 -0.618084E-03  0.550E-01    2.90       1.0  T
  11    -10.5213244  0.594994E-03  0.615E-01    2.90       1.0  T
  12    -10.5233659 -0.204154E-02  0.325E-01    2.90       1.0  T
  13    -10.5241007 -0.734755E-03  0.125E-01    2.90       1.0  T
  14    -10.5242138 -0.113142E-03  0.329E-02    2.90       1.4  T
  15    -10.5242202 -0.642744E-05  0.126E-02    2.90       3.5  T
  16    -10.5242214 -0.117402E-05  0.115E-03    2.90      38.8  T
  17    -10.5242214 -0.645623E-08  0.104E-04    2.90     430.6  T
  18    -10.5242214  0.241283E-08  0.541E-04    2.90      82.7  T
     SCC iter.                  ...        0 min,  0.002 sec
     gradient                   ...        0 min,  0.001 sec
 * total energy  :   -10.0642414 Eh     change        0.1715092E+00 Eh
   gradient norm :     0.8809782 Eh/α   predicted    -0.2679136E-01 (-115.62%)
   displ. norm   :     0.4982809 α      lambda       -0.3580666E+00
   maximum displ.:     0.3143766 α      in ANC's #3, #6, #9, ...

........................................................................
.............................. CYCLE   11 ..............................
........................................................................
   1    -10.4795723 -0.104796E+02  0.428E+00    1.91       0.0  T
   2     -9.8812155  0.598357E+00  0.641E+00    2.02       1.0  T
   3    -10.2022935 -0.321078E+00  0.519E+00    1.31       1.0  T
   4    -10.4276771 -0.225384E+00  0.298E+00    1.85       1.0  T
   5    -10.4716838 -0.440067E-01  0.200E+00    1.95       1.0  T
   6    -10.4837831 -0.120993E-01  0.163E+00    1.98       1.0  T
   7    -10.4870096 -0.322646E-02  0.141E+00    1.98       1.0  T
   8    -10.4946608 -0.765122E-02  0.966E-01    2.01       1.0  T
   9    -10.4957619 -0.110115E-02  0.746E-01    2.02       1.0  T
  10    -10.4971917 -0.142980E-02  0.738E-01    2.01       1.0  T
  11    -10.5000918 -0.290008E-02  0.415E-01    2.01       1.0  T
  12    -10.5014240 -0.133219E-02  0.122E-01    2.01       1.0  T
  13    -10.5015306 -0.106591E-03  0.524E-02    2.01       1.0  T
  14    -10.5015535 -0.229360E-04  0.968E-03    2.02       4.6  T
  15    -10.5015539 -0.367934E-06  0.759E-03    2.02       5.9  T
  16    -10.5015545 -0.541153E-06  0.399E-04    2.02     112.1  T
  17    -10.5015545 -0.491820E-10  0.376E-04    2.02     119.0  T
     SCC iter.                  ...        0 min,  0.002 sec
     gradient                   ...        0 min,  0.001 sec
 * total energy  :   -10.2241028 Eh     change       -0.1598614E+00 Eh
   gradient norm :     0.1555897 Eh/α   predicted    -0.2234843E+00 (  39.80%)
   displ. norm   :     0.4969285 α      lambda       -0.6418291E-01
   maximum displ.:     0.4091706 α      in ANC's #3, #2, #9, ...

........................................................................
.............................. CYCLE   12 ..............................
........................................................................
   1    -10.4325858 -0.104326E+02  0.236E+00    2.04       0.0  T
   2    -10.2883320  0.144254E+00  0.359E+00    2.05       1.0  T
   3    -10.1466644  0.141668E+00  0.497E+00    1.95       1.0  T
   4    -10.3831851 -0.236521E+00  0.308E+00    1.96       1.0  T
   5    -10.4289416 -0.457564E-01  0.122E+00    2.04       1.0  T
   6    -10.3995089  0.294327E-01  0.230E+00    2.02       1.0  T
   7    -10.4193125 -0.198036E-01  0.165E+00    2.06       1.0  T
   8    -10.4253803 -0.606784E-02  0.138E+00    2.06       1.0  T
   9    -10.4301120 -0.473172E-02  0.113E+00    2.06       1.0  T
  10    -10.4384878 -0.837576E-02  0.674E-01    2.07       1.0  T
  11    -10.4397605 -0.127273E-02  0.447E-01    2.07       1.0  T
  12    -10.4399494 -0.188853E-03  0.203E-01    2.08       1.0  T
  13    -10.4402925 -0.343084E-03  0.112E-01    2.08       1.0  T
  14    -10.4403132 -0.207527E-04  0.296E-02    2.09       1.5  T
  15    -10.4402366  0.766496E-04  0.119E-01    2.09       1.0  T
  16    -10.4403166 -0.800304E-04  0.173E-02    2.09       2.6  T
  17    -10.4403180 -0.140963E-05  0.668E-03    2.09       6.7  T
  18    -10.4403181 -0.126702E-06  0.407E-03    2.09      11.0  T
  19    -10.4403182 -0.108931E-06  0.196E-04    2.09     228.1  T
  20    -10.4403182 -0.164261E-09  0.406E-05    2.09    1101.3  T
     SCC iter.                  ...        0 min,  0.002 sec
     gradient                   ...        0 min,  0.001 sec
 * total energy  :   -10.2244109 Eh     change       -0.3081500E-03 Eh
   gradient norm :     0.1165921 Eh/α   predicted    -0.4001608E-01 (*******%)
   displ. norm   :     0.2772443 α      lambda       -0.1830032E-01
   maximum displ.:     0.1925699 α      in ANC's #1, #3, #5, ...

........................................................................
.............................. CYCLE   13 ..............................
........................................................................
   1    -10.4665643 -0.104666E+02  0.942E-01    1.96       0.0  T
   2    -10.4596038  0.696050E-02  0.119E+00    1.84       1.0  T
   3    -10.3790898  0.805140E-01  0.293E+00    1.92       1.0  T
   4    -10.4158406 -0.367508E-01  0.242E+00    1.94       1.0  T
   5    -10.4643030 -0.484624E-01  0.683E-01    1.93       1.0  T
   6    -10.4642782  0.248257E-04  0.614E-01    1.91       1.0  T
   7    -10.4662352 -0.195707E-02  0.375E-01    1.92       1.0  T
   8    -10.4670677 -0.832504E-03  0.187E-01    1.92       1.0  T
   9    -10.4670655  0.225830E-05  0.190E-01    1.92       1.0  T
  10    -10.4671428 -0.773427E-04  0.123E-01    1.92       1.0  T
  11    -10.4671506 -0.778828E-05  0.113E-01    1.92       1.0  T
  12    -10.4672169 -0.662757E-04  0.603E-02    1.92       1.0  T
  13    -10.4672396 -0.227498E-04  0.847E-03    1.92       5.3  T
  14    -10.4672398 -0.189113E-06  0.480E-03    1.92       9.3  T
  15    -10.4672400 -0.177307E-06  0.238E-04    1.92     188.2  T
  16    -10.4672400 -0.103949E-09  0.185E-04    1.92     242.0  T
     SCC iter.                  ...        0 min,  0.001 sec
     gradient                   ...        0 min,  0.001 sec
 * total energy  :   -10.2372625 Eh     change       -0.1285163E-01 Eh
   gradient norm :     0.0656966 Eh/α   predicted    -0.9853481E-02 ( -23.33%)
   displ. norm   :     0.2730086 α      lambda       -0.8187669E-02
   maximum displ.:     0.1950845 α      in ANC's #1, #3, #9, ...

........................................................................
.............................. CYCLE   14 ..............................
........................................................................
   1    -10.4757039 -0.104757E+02  0.164E+00    1.93       0.0  T
   2    -10.0068764  0.468827E+00  0.589E+00    1.91       1.0  T
   3    -10.4483088 -0.441432E+00  0.174E+00    1.87       1.0  T
   4    -10.4737403 -0.254315E-01  0.118E+00    1.93       1.0  T
   5    -10.4750968 -0.135651E-02  0.900E-01    1.93       1.0  T
   6    -10.4755148 -0.417976E-03  0.855E-01    1.94       1.0  T
   7    -10.4772649 -0.175010E-02  0.751E-01    1.93       1.0  T
   8    -10.4799271 -0.266225E-02  0.500E-01    1.94       1.0  T
   9    -10.4806217 -0.694565E-03  0.406E-01    1.94       1.0  T
  10    -10.4807205 -0.987700E-04  0.391E-01    1.94       1.0  T
  11    -10.4818370 -0.111653E-02  0.972E-02    1.95       1.0  T
  12    -10.4819230 -0.860287E-04  0.206E-02    1.95       2.2  T
  13    -10.4818943  0.287380E-04  0.603E-02    1.95       1.0  T
  14    -10.4819232 -0.289182E-04  0.222E-02    1.95       2.0  T
  15    -10.4819263 -0.305390E-05  0.118E-02    1.95       3.8  T
  16    -10.4819275 -0.123583E-05  0.258E-04    1.95     173.2  T
  17    -10.4819275 -0.440165E-09  0.951E-05    1.95     470.4  T
  18    -10.4819275 -0.790035E-10  0.111E-05    1.95    4012.8  T
     SCC iter.                  ...        0 min,  0.002 sec
     gradient                   ...        0 min,  0.001 sec
 * total energy  :   -10.2390868 Eh     change       -0.1824237E-02 Eh
   gradient norm :     0.0500394 Eh/α   predicted    -0.4398961E-02 ( 141.14%)
   displ. norm   :     0.1343427 α      lambda       -0.3192541E-02
   maximum displ.:     0.0995258 α      in ANC's #1, #3, #2, ...

........................................................................
.............................. CYCLE   15 ..............................
........................................................................
   1    -10.4717682 -0.104718E+02  0.426E-01    1.92       0.0  T
   2    -10.4674172  0.435106E-02  0.636E-01    1.92       1.0  T
   3    -10.3859282  0.814890E-01  0.292E+00    1.93       1.0  T
   4    -10.4580667 -0.721385E-01  0.118E+00    1.91       1.0  T
   5    -10.4681829 -0.101162E-01  0.556E-01    1.93       1.0  T
   6    -10.4718176 -0.363472E-02  0.626E-02    1.92       1.0  T
   7    -10.4717485  0.690930E-04  0.111E-01    1.92       1.0  T
   8    -10.4716825  0.660191E-04  0.131E-01    1.92       1.0  T
   9    -10.4717554 -0.729104E-04  0.932E-02    1.92       1.0  T
  10    -10.4717989 -0.435469E-04  0.645E-02    1.92       1.0  T
  11    -10.4718123 -0.133232E-04  0.510E-02    1.92       1.0  T
  12    -10.4718333 -0.209955E-04  0.142E-02    1.92       3.2  T
  13    -10.4718350 -0.174166E-05  0.220E-03    1.92      20.3  T
  14    -10.4718351 -0.441631E-07  0.164E-04    1.92     272.5  T
  15    -10.4718351  0.474234E-10  0.167E-04    1.92     267.3  T
     SCC iter.                  ...        0 min,  0.002 sec
     gradient                   ...        0 min,  0.001 sec
 * total energy  :   -10.2407216 Eh     change       -0.1634807E-02 Eh
   gradient norm :     0.0272470 Eh/α   predicted    -0.1625078E-02 (  -0.60%)
   displ. norm   :     0.0354021 α      lambda       -0.5499576E-03
   maximum displ.:     0.0225908 α      in ANC's #2, #8, #6, ...

........................................................................
.............................. CYCLE   16 ..............................
........................................................................
   1    -10.4685552 -0.104686E+02  0.350E-01    1.91       0.0  T
   2    -10.2130468  0.255508E+00  0.481E+00    1.92       1.0  T
   3    -10.4666324 -0.253586E+00  0.502E-01    1.90       1.0  T
   4    -10.4688179 -0.218542E-02  0.244E-01    1.91       1.0  T
   5    -10.4681041  0.713737E-03  0.326E-01    1.91       1.0  T
   6    -10.4682980 -0.193902E-03  0.299E-01    1.91       1.0  T
   7    -10.4685546 -0.256599E-03  0.254E-01    1.91       1.0  T
   8    -10.4688866 -0.331990E-03  0.174E-01    1.91       1.0  T
   9    -10.4689576 -0.709798E-04  0.149E-01    1.91       1.0  T
  10    -10.4689322  0.254232E-04  0.158E-01    1.91       1.0  T
  11    -10.4691183 -0.186084E-03  0.622E-02    1.91       1.0  T
  12    -10.4691522 -0.339917E-04  0.167E-03    1.91      26.8  T
  13    -10.4691520  0.219363E-06  0.497E-03    1.91       9.0  T
  14    -10.4691522 -0.170758E-06  0.282E-03    1.91      15.9  T
  15    -10.4691523 -0.676295E-07  0.502E-04    1.91      89.1  T
  16    -10.4691523 -0.214255E-08  0.555E-06    1.91    8063.6  T
     SCC iter.                  ...        0 min,  0.002 sec
     gradient                   ...        0 min,  0.001 sec
 * total energy  :   -10.2412022 Eh     change       -0.4806206E-03 Eh
   gradient norm :     0.0243493 Eh/α   predicted    -0.2753239E-03 ( -42.71%)
   displ. norm   :     0.1755847 α      lambda       -0.1769804E-02
   maximum displ.:     0.1231943 α      in ANC's #1, #2, #8, ...

........................................................................
.............................. CYCLE   17 ..............................
........................................................................
   1    -10.4593330 -0.104593E+02  0.866E-01    1.76       0.0  T
   2    -10.2999506  0.159382E+00  0.364E+00    1.78       1.0  T
   3    -10.4519575 -0.152007E+00  0.872E-01    1.75       1.0  T
   4    -10.4592010 -0.724354E-02  0.577E-01    1.76       1.0  T
   5    -10.4584359  0.765186E-03  0.429E-01    1.76       1.0  T
   6    -10.4583399  0.959254E-04  0.425E-01    1.76       1.0  T
   7    -10.4586078 -0.267901E-03  0.394E-01    1.76       1.0  T
   8    -10.4588104 -0.202611E-03  0.362E-01    1.76       1.0  T
   9    -10.4590662 -0.255714E-03  0.315E-01    1.77       1.0  T
  10    -10.4591247 -0.585625E-04  0.305E-01    1.77       1.0  T
  11    -10.4597891 -0.664386E-03  0.129E-01    1.77       1.0  T
  12    -10.4599275 -0.138383E-03  0.336E-02    1.77       1.3  T
  13    -10.4599372 -0.971217E-05  0.473E-03    1.77       9.5  T
  14    -10.4599367  0.468852E-06  0.875E-03    1.77       5.1  T
  15    -10.4599373 -0.597115E-06  0.347E-03    1.77      12.9  T
  16    -10.4599374 -0.106420E-06  0.474E-04    1.77      94.4  T
  17    -10.4599374 -0.162999E-08  0.204E-04    1.77     218.9  T
     SCC iter.                  ...        0 min,  0.002 sec
     gradient                   ...        0 min,  0.001 sec
 * total energy  :   -10.2420535 Eh     change       -0.8512629E-03 Eh
   gradient norm :     0.0212826 Eh/α   predicted    -0.9121834E-03 (   7.16%)
   displ. norm   :     0.0807687 α      lambda       -0.7559137E-03
   maximum displ.:     0.0531014 α      in ANC's #2, #1, #8, ...

........................................................................
.............................. CYCLE   18 ..............................
........................................................................
   1    -10.4679104 -0.104679E+02  0.436E-01    1.83       0.0  T
   2    -10.4440561  0.238543E-01  0.143E+00    1.83       1.0  T
   3    -10.4680112 -0.239551E-01  0.282E-01    1.82       1.0  T
   4    -10.4676596  0.351603E-03  0.263E-01    1.83       1.0  T
   5    -10.4680369 -0.377303E-03  0.889E-02    1.83       1.0  T
   6    -10.4681113 -0.744450E-04  0.287E-02    1.83       1.6  T
   7    -10.4681089  0.242347E-05  0.273E-02    1.83       1.6  T
   8    -10.4681150 -0.605308E-05  0.106E-02    1.83       4.2  T
   9    -10.4681149  0.894308E-07  0.880E-03    1.83       5.1  T
  10    -10.4681149 -0.666553E-07  0.824E-03    1.83       5.4  T
  11    -10.4681153 -0.341425E-06  0.524E-03    1.83       8.5  T
  12    -10.4681155 -0.200209E-06  0.236E-03    1.83      18.9  T
  13    -10.4681155 -0.445213E-07  0.862E-04    1.83      51.9  T
  14    -10.4681155 -0.693562E-08  0.804E-05    1.83     556.6  T
     SCC iter.                  ...        0 min,  0.001 sec
     gradient                   ...        0 min,  0.001 sec
 * total energy  :   -10.2422479 Eh     change       -0.1943846E-03 Eh
   gradient norm :     0.0184812 Eh/α   predicted    -0.3804228E-03 (  95.71%)
   displ. norm   :     0.0758943 α      lambda       -0.4725766E-03
   maximum displ.:     0.0674877 α      in ANC's #1, #4, #6, ...

........................................................................
.............................. CYCLE   19 ..............................
........................................................................
   1    -10.4677239 -0.104677E+02  0.275E-01    1.82       0.0  T
   2    -10.4676300  0.938883E-04  0.195E-01    1.82       1.0  T
   3    -10.4159548  0.516753E-01  0.206E+00    1.83       1.0  T
   4    -10.4676467 -0.516919E-01  0.103E-01    1.82       1.0  T
   5    -10.4677173 -0.705691E-04  0.408E-02    1.82       1.1  T
   6    -10.4677109  0.640658E-05  0.450E-02    1.82       1.0  T
   7    -10.4677145 -0.358935E-05  0.412E-02    1.82       1.1  T
   8    -10.4677200 -0.551466E-05  0.327E-02    1.82       1.4  T
   9    -10.4677225 -0.251826E-05  0.286E-02    1.82       1.6  T
  10    -10.4677220  0.464741E-06  0.297E-02    1.82       1.5  T
  11    -10.4677279 -0.586255E-05  0.157E-02    1.82       2.8  T
  12    -10.4677294 -0.152734E-05  0.902E-03    1.82       5.0  T
  13    -10.4677302 -0.751158E-06  0.214E-04    1.82     209.0  T
  14    -10.4677302 -0.464262E-09  0.174E-05    1.82    2569.7  T
     SCC iter.                  ...        0 min,  0.001 sec
     gradient                   ...        0 min,  0.001 sec
 * total energy  :   -10.2426153 Eh     change       -0.3674770E-03 Eh
   gradient norm :     0.0097326 Eh/α   predicted    -0.2376492E-03 ( -35.33%)
   displ. norm   :     0.1863777 α      lambda       -0.5596103E-03
   maximum displ.:     0.1737058 α      in ANC's #1, #6, #8, ...

........................................................................
.............................. CYCLE   20 ..............................
........................................................................
   1    -10.4638651 -0.104639E+02  0.642E-01    1.80       0.0  T
   2    -10.4636167  0.248453E-03  0.422E-01    1.80       1.0  T
   3    -10.1456138  0.318003E+00  0.517E+00    1.81       1.0  T
   4    -10.4630309 -0.317417E+00  0.325E-01    1.80       1.0  T
   5    -10.4638684 -0.837523E-03  0.760E-02    1.80       1.0  T
   6    -10.4638452  0.232385E-04  0.774E-02    1.80       1.0  T
   7    -10.4638542 -0.901134E-05  0.719E-02    1.80       1.0  T
   8    -10.4638685 -0.142487E-04  0.610E-02    1.80       1.0  T
   9    -10.4638683  0.131389E-06  0.592E-02    1.80       1.0  T
  10    -10.4638733 -0.500506E-05  0.555E-02    1.80       1.0  T
  11    -10.4638810 -0.764807E-05  0.470E-02    1.80       1.0  T
  12    -10.4638850 -0.402245E-05  0.420E-02    1.80       1.1  T
  13    -10.4638970 -0.119860E-04  0.213E-02    1.80       2.1  T
  14    -10.4639008 -0.382544E-05  0.620E-03    1.80       7.2  T
  15    -10.4639012 -0.355521E-06  0.429E-04    1.80     104.3  T
  16    -10.4639012 -0.148372E-08  0.157E-04    1.80     284.7  T
     SCC iter.                  ...        0 min,  0.002 sec
     gradient                   ...        0 min,  0.001 sec
 * total energy  :   -10.2428580 Eh     change       -0.2426689E-03 Eh
   gradient norm :     0.0145609 Eh/α   predicted    -0.2895240E-03 (  19.31%)
   displ. norm   :     0.0425779 α      lambda       -0.1876429E-03
   maximum displ.:     0.0296647 α      in ANC's #1, #2, #4, ...
 * RMSD in coord.:     1.0685876 α      energy gain  -0.2438017E+00 Eh

generating ANC from model Hessian ...
Using Lindh-Hessian (1995)
 Shifting diagonal of input Hessian by    9.6961778611483543E-003
 Lowest  eigenvalues of input Hessian
   -0.000000   -0.000000   -0.000000   -0.000000   -0.000000    0.000000
    0.010000    0.010224    0.126886    0.339871    0.562089    1.169380
    1.318703    1.706197    2.568230
 Highest eigenvalues
    0.339871    0.562089    1.169380    1.318703    1.706197    2.568230


........................................................................
.............................. CYCLE   21 ..............................
........................................................................
   1    -10.4681435 -0.104681E+02  0.198E-01    1.84       0.0  T
   2    -10.4666356  0.150791E-02  0.358E-01    1.84       1.0  T
   3    -10.4679323 -0.129669E-02  0.162E-01    1.83       1.0  T
   4    -10.4681167 -0.184366E-03  0.100E-01    1.84       1.0  T
   5    -10.4681686 -0.519348E-04  0.379E-02    1.84       1.2  T
   6    -10.4681750 -0.635517E-05  0.268E-02    1.84       1.7  T
   7    -10.4681770 -0.200461E-05  0.221E-02    1.84       2.0  T
   8    -10.4681805 -0.353594E-05  0.113E-02    1.84       4.0  T
   9    -10.4681821 -0.153491E-05  0.248E-03    1.84      18.1  T
  10    -10.4681821 -0.524189E-07  0.748E-04    1.84      59.8  T
  11    -10.4681821 -0.520105E-08  0.703E-05    1.84     636.2  T
     SCC iter.                  ...        0 min,  0.001 sec
     gradient                   ...        0 min,  0.001 sec
 * total energy  :   -10.2429446 Eh     change       -0.8657169E-04 Eh
   gradient norm :     0.0027453 Eh/α   predicted     0.0000000E+00 (-100.00%)
   displ. norm   :     0.0685928 α      lambda       -0.5523547E-04
   maximum displ.:     0.0659750 α      in ANC's #1, #2, #3, ...

........................................................................
.............................. CYCLE   22 ..............................
........................................................................
   1    -10.4672486 -0.104672E+02  0.186E-01    1.83       0.0  T
   2    -10.4672307  0.178956E-04  0.119E-01    1.83       1.0  T
   3    -10.4574813  0.974935E-02  0.862E-01    1.84       1.0  T
   4    -10.4672290 -0.974767E-02  0.438E-02    1.83       1.0  T
   5    -10.4672492 -0.201834E-04  0.112E-02    1.83       4.0  T
   6    -10.4672482  0.997980E-06  0.131E-02    1.83       3.4  T
   7    -10.4672488 -0.658021E-06  0.106E-02    1.83       4.2  T
   8    -10.4672496 -0.783964E-06  0.573E-03    1.83       7.8  T
   9    -10.4672496 -0.203070E-08  0.519E-03    1.83       8.6  T
  10    -10.4672496 -0.129289E-07  0.505E-03    1.83       8.8  T
  11    -10.4672498 -0.217852E-06  0.136E-03    1.83      32.8  T
  12    -10.4672499 -0.170812E-07  0.747E-05    1.83     598.5  T
  13    -10.4672499 -0.383249E-10  0.336E-05    1.83    1329.3  T
     SCC iter.                  ...        0 min,  0.001 sec
     gradient                   ...        0 min,  0.001 sec
 * total energy  :   -10.2427665 Eh     change        0.1781012E-03 Eh
   gradient norm :     0.0066329 Eh/α   predicted    -0.2774907E-04 (-115.58%)
   displ. norm   :     0.0591805 α      lambda       -0.3774891E-03
   maximum displ.:     0.0586650 α      in ANC's #1, #2, #3, ...

........................................................................
.............................. CYCLE   23 ..............................
........................................................................
   1    -10.4680362 -0.104680E+02  0.167E-01    1.84       0.0  T
   2    -10.4679642  0.720040E-04  0.122E-01    1.84       1.0  T
   3    -10.4664103  0.155386E-02  0.333E-01    1.84       1.0  T
   4    -10.4680063 -0.159592E-02  0.520E-02    1.84       1.0  T
   5    -10.4680346 -0.283366E-04  0.203E-02    1.84       2.2  T
   6    -10.4680357 -0.107142E-05  0.175E-02    1.84       2.6  T
   7    -10.4680378 -0.216172E-05  0.880E-03    1.84       5.1  T
   8    -10.4680385 -0.636508E-06  0.112E-03    1.84      39.8  T
   9    -10.4680385 -0.837784E-08  0.525E-04    1.84      85.2  T
  10    -10.4680385 -0.810390E-09  0.907E-05    1.84     493.3  T
     SCC iter.                  ...        0 min,  0.001 sec
     gradient                   ...        0 min,  0.001 sec
 * total energy  :   -10.2429562 Eh     change       -0.1897378E-03 Eh
   gradient norm :     0.0014391 Eh/α   predicted    -0.1894072E-03 (  -0.17%)
   displ. norm   :     0.0153200 α      lambda       -0.5308741E-05
   maximum displ.:     0.0134697 α      in ANC's #2, #3, #5, ...

........................................................................
.............................. CYCLE   24 ..............................
........................................................................
   1    -10.4681349 -0.104681E+02  0.523E-02    1.85       0.0  T
   2    -10.4681316  0.331020E-05  0.348E-02    1.85       1.3  T
   3    -10.4678969  0.234648E-03  0.126E-01    1.84       1.0  T
   4    -10.4681342 -0.237207E-03  0.112E-02    1.85       4.0  T
   5    -10.4681351 -0.902944E-06  0.287E-03    1.85      15.6  T
   6    -10.4681351 -0.699518E-07  0.130E-03    1.85      34.3  T
   7    -10.4681351  0.882000E-09  0.850E-04    1.85      52.6  T
   8    -10.4681351 -0.740342E-08  0.169E-04    1.85     264.0  T
     SCC iter.                  ...        0 min,  0.001 sec
     gradient                   ...        0 min,  0.001 sec
 * total energy  :   -10.2429623 Eh     change       -0.6057398E-05 Eh
   gradient norm :     0.0009360 Eh/α   predicted    -0.2655196E-05 ( -56.17%)
   displ. norm   :     0.0276967 α      lambda       -0.1320690E-04
   maximum displ.:     0.0253982 α      in ANC's #3, #5, #1, ...

........................................................................
.............................. CYCLE   25 ..............................
........................................................................
   1    -10.4679901 -0.104680E+02  0.103E-01    1.86       0.0  T
   2    -10.4679897  0.323500E-06  0.629E-02    1.86       1.0  T
   3    -10.4678900  0.997509E-04  0.852E-02    1.86       1.0  T
   4    -10.4679184 -0.284098E-04  0.733E-02    1.86       1.0  T
   5    -10.4679906 -0.722467E-04  0.381E-03    1.86      11.7  T
   6    -10.4679907 -0.354121E-07  0.286E-03    1.86      15.6  T
   7    -10.4679907 -0.269613E-08  0.217E-03    1.86      20.6  T
   8    -10.4679907 -0.225354E-07  0.105E-03    1.86      42.6  T
   9    -10.4679907 -0.121049E-07  0.758E-05    1.86     590.2  T
  10    -10.4679907 -0.490274E-12  0.168E-05    1.86    2666.7  T
     SCC iter.                  ...        0 min,  0.001 sec
     gradient                   ...        0 min,  0.001 sec
 * total energy  :   -10.2429748 Eh     change       -0.1257098E-04 Eh
   gradient norm :     0.0018196 Eh/α   predicted    -0.6605993E-05 ( -47.45%)
   displ. norm   :     0.0222782 α      lambda       -0.5959589E-05
   maximum displ.:     0.0212145 α      in ANC's #3, #5, #2, ...

........................................................................
.............................. CYCLE   26 ..............................
........................................................................
   1    -10.4680442 -0.104680E+02  0.801E-02    1.86       0.0  T
   2    -10.4680440  0.187602E-06  0.494E-02    1.86       1.0  T
   3    -10.4679676  0.764000E-04  0.722E-02    1.86       1.0  T
   4    -10.4680395 -0.718731E-04  0.203E-02    1.86       2.2  T
   5    -10.4680443 -0.485826E-05  0.296E-03    1.86      15.1  T
   6    -10.4680444 -0.445143E-07  0.175E-03    1.86      25.6  T
   7    -10.4680444 -0.143614E-08  0.128E-03    1.86      35.0  T
   8    -10.4680444 -0.840509E-08  0.445E-04    1.86     100.6  T
   9    -10.4680444 -0.226554E-08  0.715E-05    1.86     625.4  T
     SCC iter.                  ...        0 min,  0.001 sec
     gradient                   ...        0 min,  0.001 sec
 * total energy  :   -10.2429819 Eh     change       -0.7087817E-05 Eh
   gradient norm :     0.0019364 Eh/α   predicted    -0.2979247E-05 ( -57.97%)
   displ. norm   :     0.0478132 α      lambda       -0.1158556E-04
   maximum displ.:     0.0456400 α      in ANC's #3, #5, #1, ...

........................................................................
.............................. CYCLE   27 ..............................
........................................................................
   1    -10.4677451 -0.104677E+02  0.177E-01    1.85       0.0  T
   2    -10.4677100  0.350645E-04  0.117E-01    1.85       1.0  T
   3    -10.4656851  0.202487E-02  0.370E-01    1.85       1.0  T
   4    -10.4677218 -0.203666E-02  0.488E-02    1.85       1.0  T
   5    -10.4677412 -0.194056E-04  0.229E-02    1.85       2.0  T
   6    -10.4677432 -0.198300E-05  0.187E-02    1.85       2.4  T
   7    -10.4677446 -0.146491E-05  0.140E-02    1.85       3.2  T
   8    -10.4677463 -0.168416E-05  0.102E-03    1.85      43.9  T
   9    -10.4677463  0.349198E-08  0.112E-03    1.85      40.0  T
  10    -10.4677463 -0.112351E-07  0.141E-04    1.85     317.9  T
  11    -10.4677463  0.298483E-09  0.227E-04    1.85     196.9  T
     SCC iter.                  ...        0 min,  0.001 sec
     gradient                   ...        0 min,  0.001 sec
 * total energy  :   -10.2429935 Eh     change       -0.1155975E-04 Eh
   gradient norm :     0.0020707 Eh/α   predicted    -0.5796354E-05 ( -49.86%)
   displ. norm   :     0.0193563 α      lambda       -0.6803841E-05
   maximum displ.:     0.0182584 α      in ANC's #3, #5, #6, ...

........................................................................
.............................. CYCLE   28 ..............................
........................................................................
   1    -10.4678795 -0.104679E+02  0.769E-02    1.85       0.0  T
   2    -10.4678469  0.326734E-04  0.653E-02    1.85       1.0  T
   3    -10.4674134  0.433425E-03  0.180E-01    1.85       1.0  T
   4    -10.4678783 -0.464893E-03  0.166E-02    1.85       2.7  T
   5    -10.4678791 -0.774634E-06  0.114E-02    1.85       3.9  T
   6    -10.4678795 -0.347402E-06  0.938E-03    1.85       4.8  T
   7    -10.4678798 -0.379662E-06  0.724E-03    1.85       6.2  T
   8    -10.4678803 -0.467671E-06  0.500E-04    1.85      89.5  T
   9    -10.4678803  0.934858E-09  0.505E-04    1.85      88.5  T
     SCC iter.                  ...        0 min,  0.001 sec
     gradient                   ...        0 min,  0.001 sec
 * total energy  :   -10.2429990 Eh     change       -0.5482599E-05 Eh
   gradient norm :     0.0017292 Eh/α   predicted    -0.3405240E-05 ( -37.89%)
   displ. norm   :     0.0497215 α      lambda       -0.1060114E-04
   maximum displ.:     0.0454722 α      in ANC's #3, #5, #6, ...

........................................................................
.............................. CYCLE   29 ..............................
........................................................................
   1    -10.4678314 -0.104678E+02  0.205E-01    1.84       0.0  T
   2    -10.4676833  0.148066E-03  0.160E-01    1.84       1.0  T
   3    -10.4656344  0.204887E-02  0.387E-01    1.83       1.0  T
   4    -10.4677623 -0.212791E-02  0.887E-02    1.84       1.0  T
   5    -10.4678094 -0.470407E-04  0.497E-02    1.84       1.0  T
   6    -10.4678217 -0.123320E-04  0.377E-02    1.84       1.2  T
   7    -10.4678253 -0.364111E-05  0.326E-02    1.84       1.4  T
   8    -10.4678345 -0.914757E-05  0.968E-03    1.84       4.6  T
   9    -10.4678352 -0.687146E-06  0.127E-03    1.84      35.3  T
  10    -10.4678352 -0.118538E-07  0.181E-04    1.84     246.7  T
  11    -10.4678352  0.104127E-08  0.358E-04    1.84     125.0  T
     SCC iter.                  ...        0 min,  0.001 sec
     gradient                   ...        0 min,  0.001 sec
 * total energy  :   -10.2430067 Eh     change       -0.7724192E-05 Eh
   gradient norm :     0.0022023 Eh/α   predicted    -0.5305956E-05 ( -31.31%)
   displ. norm   :     0.0035875 α      lambda       -0.4520120E-05
   maximum displ.:     0.0025608 α      in ANC's #3, #5, #6, ...

........................................................................
.............................. CYCLE   30 ..............................
........................................................................
   1    -10.4680703 -0.104681E+02  0.117E-02    1.84       0.0  T
   2    -10.4680642  0.611443E-05  0.217E-02    1.84       2.1  T
   3    -10.4680677 -0.349114E-05  0.149E-02    1.84       3.0  T
   4    -10.4680703 -0.261586E-05  0.649E-03    1.84       6.9  T
   5    -10.4680705 -0.199823E-06  0.129E-03    1.84      34.7  T
   6    -10.4680705 -0.834280E-08  0.731E-04    1.84      61.2  T
   7    -10.4680705 -0.100213E-08  0.470E-04    1.84      95.1  T
     SCC iter.                  ...        0 min,  0.001 sec
     gradient                   ...        0 min,  0.001 sec
 * total energy  :   -10.2430106 Eh     change       -0.3871401E-05 Eh
   gradient norm :     0.0016487 Eh/α   predicted    -0.2258808E-05 ( -41.65%)
   displ. norm   :     0.0289985 α      lambda       -0.1511889E-04
   maximum displ.:     0.0216243 α      in ANC's #5, #3, #6, ...

........................................................................
.............................. CYCLE   31 ..............................
........................................................................
   1    -10.4680426 -0.104680E+02  0.137E-01    1.85       0.0  T
   2    -10.4680208  0.217639E-04  0.934E-02    1.85       1.0  T
   3    -10.4666124  0.140844E-02  0.307E-01    1.85       1.0  T
   4    -10.4680398 -0.142737E-02  0.226E-02    1.85       2.0  T
   5    -10.4680393  0.457787E-06  0.201E-02    1.85       2.2  T
   6    -10.4680426 -0.324961E-05  0.106E-02    1.85       4.2  T
   7    -10.4680428 -0.202104E-06  0.962E-03    1.85       4.6  T
   8    -10.4680437 -0.933459E-06  0.117E-03    1.85      38.1  T
   9    -10.4680437 -0.476030E-08  0.819E-04    1.85      54.6  T
  10    -10.4680437 -0.697058E-08  0.345E-05    1.85    1297.0  T
     SCC iter.                  ...        0 min,  0.001 sec
     gradient                   ...        0 min,  0.001 sec
 * total energy  :   -10.2430204 Eh     change       -0.9873537E-05 Eh
   gradient norm :     0.0013824 Eh/α   predicted    -0.7560460E-05 ( -23.43%)
   displ. norm   :     0.0166455 α      lambda       -0.2130578E-05
   maximum displ.:     0.0154172 α      in ANC's #3, #5, #1, ...

........................................................................
.............................. CYCLE   32 ..............................
........................................................................
   1    -10.4677302 -0.104677E+02  0.669E-02    1.85       0.0  T
   2    -10.4677116  0.185908E-04  0.542E-02    1.85       1.0  T
   3    -10.4668030  0.908579E-03  0.260E-01    1.85       1.0  T
   4    -10.4677283 -0.925313E-03  0.193E-02    1.85       2.3  T
   5    -10.4677305 -0.217546E-05  0.617E-03    1.85       7.2  T
   6    -10.4677302  0.282521E-06  0.753E-03    1.85       5.9  T
   7    -10.4677305 -0.259136E-06  0.566E-03    1.85       7.9  T
   8    -10.4677307 -0.250652E-06  0.222E-03    1.85      20.1  T
   9    -10.4677308 -0.215907E-07  0.131E-03    1.85      34.1  T
  10    -10.4677308 -0.108426E-07  0.706E-04    1.85      63.4  T
  11    -10.4677308 -0.447462E-08  0.198E-05    1.85    2258.7  T
     SCC iter.                  ...        0 min,  0.001 sec
     gradient                   ...        0 min,  0.001 sec
 * total energy  :   -10.2430222 Eh     change       -0.1777663E-05 Eh
   gradient norm :     0.0006188 Eh/α   predicted    -0.1063698E-05 ( -40.16%)
   displ. norm   :     0.0039927 α      lambda       -0.4217114E-06
   maximum displ.:     0.0033299 α      in ANC's #3, #5, #4, ...

   *** GEOMETRY OPTIMIZATION CONVERGED AFTER 32 ITERATIONS ***

------------------------------------------------------------------------
 total energy gain   :        -0.2439659 Eh     -153.0909 kcal/mol
 total RMSD          :         1.1102354 a0        0.5875 Å
 total power (kW/mol):       -20.0166371 (step)-4676.3438 (real)
------------------------------------------------------------------------

 ANCopt (total)                0 d,  0 h,  0 min,  0.137 sec
 optimizer setup                ...        0 min,  0.000 sec (  0.064%)
 model hessian                  ...        0 min,  0.000 sec (  0.085%)
 ANC generation                 ...        0 min,  0.000 sec (  0.072%)
 coordinate transformation      ...        0 min,  0.000 sec (  0.045%)
 single point calculation       ...        0 min,  0.134 sec ( 98.037%)
 optimization log               ...        0 min,  0.001 sec (  0.570%)
 hessian update                 ...        0 min,  0.000 sec (  0.047%)
 rational function              ...        0 min,  0.001 sec (  0.503%)

================
 final structure:
================
5
 xtb: 6.2.2 (9d81278992624c895f80dd42a50cac0aa55982e2)
C        -1.30998568455863    1.05383099939598    0.09091280891658
C        -0.25563082838883    0.06801308043664    0.00580292852794
C         1.00562694495962   -0.28533448851665   -0.02470752074970
C        -1.67134868159638   -0.22086884275217   -0.01948802207757
C         2.23133824958422   -0.61564074856379   -0.05252019461724

 Bond Distances (Angstroems)
 ---------------------------
C1-C2=1.4459         C1-C4=1.3295         C2-C1=1.4459         C2-C3=1.3102         C2-C4=1.4451         C3-C2=1.3102         
C3-C5=1.2697         C4-C1=1.3295         C4-C2=1.4451         C5-C3=1.2697         
 C  C  Rav=1.3601 sigma=0.0724  Rmin=1.2697  Rmax=1.4459     5

 selected bond angles (degree)
 --------------------
C4-C1-C2= 62.59                C3-C2-C1=152.52                C4-C2-C1= 54.76                C4-C2-C3=152.72                
C5-C3-C2=179.43                C2-C4-C1= 62.65                

 selected dihedral angles (degree)
 ---------------------------------
C3-C2-C1-C4=179.98            C5-C3-C2-C1=  3.18            C5-C3-C2-C4=183.15            C1-C4-C2-C3=180.02            
           -------------------------------------------------
          |                Final Singlepoint                |
           -------------------------------------------------

          ...................................................
          :                      SETUP                      :
          :.................................................:
          :  # basis functions                  20          :
          :  # atomic orbitals                  20          :
          :  # shells                           10          :
          :  # electrons                        20          :
          :  max. iterations                   250          :
          :  Hamiltonian                  GFN2-xTB          :
          :  restarted?                      false          :
          :  GBSA solvation                  false          :
          :  PC potential                    false          :
          :  electronic temp.          300.0000000     K    :
          :  accuracy                    1.0000000          :
          :  -> integral cutoff          0.2500000E+02      :
          :  -> integral neglect         0.1000000E-07      :
          :  -> SCF convergence          0.1000000E-05 Eh   :
          :  -> wf. convergence          0.1000000E-03 e    :
          :  Broyden damping             0.4000000          :
          ...................................................

 iter      E             dE          RMSdq      gap      omega  full diag
   1    -10.4677308 -0.104677E+02  0.670E-06    1.85       0.0  T
   2    -10.4677308  0.213163E-13  0.488E-06    1.85    9163.2  T
   3    -10.4677308  0.646061E-11  0.208E-05    1.85    2148.8  T

   *** convergence criteria satisfied after 3 iterations ***

         #    Occupation            Energy/Eh            Energy/eV
      -------------------------------------------------------------
         1        2.0000           -0.7307798             -19.8855
       ...           ...                  ...                  ...
         5        2.0000           -0.5531393             -15.0517
         6        2.0000           -0.5491714             -14.9437
         7        2.0000           -0.4821717             -13.1206
         8        2.0000           -0.4642525             -12.6330
         9        1.9654           -0.4340443             -11.8109
        10        1.0346           -0.4277169             -11.6388
        11        1.0000           -0.4111947             -11.1892 (HOMO)
        12                         -0.3432457              -9.3402 (LUMO)
        13                         -0.2889626              -7.8631
        14                         -0.2295438              -6.2462
        15                         -0.1537300              -4.1832
        16                         -0.0040169              -0.1093
       ...                                ...                  ...
        20                          1.1289010              30.7190
      -------------------------------------------------------------
                  HL-Gap            0.0679490 Eh            1.8490 eV
             Fermi-level           -0.4040504 Eh          -10.9948 eV

 transition dipole moment (au) for excitation:          10          11
     X       Y       Z   
  -0.1731  -0.5593  -0.0484  total (au/Debye):    0.587   1.493
 dE (eV)             :    0.450
 oscillator strength :  0.53757E-02

 SCC (total)                   0 d,  0 h,  0 min,  0.004 sec
 SCC setup                      ...        0 min,  0.000 sec (  1.553%)
 Dispersion                     ...        0 min,  0.000 sec (  0.229%)
 integral evaluation            ...        0 min,  0.001 sec ( 33.443%)
 zeroth order Hamiltonian       ...        0 min,  0.000 sec (  0.393%)
 iterations                     ...        0 min,  0.000 sec (  8.951%)
 molecular gradient             ...        0 min,  0.001 sec ( 32.147%)
 printout                       ...        0 min,  0.001 sec ( 23.114%)

         :::::::::::::::::::::::::::::::::::::::::::::::::::::
         ::                     SUMMARY                     ::
         :::::::::::::::::::::::::::::::::::::::::::::::::::::
         :: total energy             -10.243022219232 Eh    ::
         :: gradient norm              0.000618976387 Eh/a0 ::
         :: HOMO-LUMO gap              1.848986663504 eV    ::
         ::.................................................::
         :: SCC energy               -10.467730774570 Eh    ::
         :: -> isotropic ES           -0.009892988840 Eh    ::
         :: -> anisotropic ES          0.000210957615 Eh    ::
         :: -> anisotropic XC          0.011231529619 Eh    ::
         :: -> dispersion             -0.002862830463 Eh    ::
         :: repulsion energy           0.224708682314 Eh    ::
         :: add. restraining           0.000000000000 Eh    ::
         :::::::::::::::::::::::::::::::::::::::::::::::::::::

           ------------------------------------------------- 
          |                Numerical Hessian                |
           ------------------------------------------------- 
step length          :   0.00500
SCC accuracy         :   0.30000
Hessian scale factor :   1.00000
frozen atoms in %    :   0.00000    0
RMS gradient         :   0.00062
estimated CPU  time      0.00 min
estimated wall time      0.00 min

writing file <hessian>.

 projected vibrational frequencies (cm-1)
eigval :       -0.00     0.00     0.00     0.00     0.00     0.00
eigval :       72.82   167.21   357.19   490.63   711.51   803.59
eigval :     1275.02  1666.44  1899.30
           -------------------------------------------------
          |                Property Printout                |
           -------------------------------------------------

    * Orbital Energies and Occupations

         #    Occupation            Energy/Eh            Energy/eV
      -------------------------------------------------------------
         1        2.0000           -0.7307804             -19.8855
         2        2.0000           -0.6729040             -18.3106
         3        2.0000           -0.6334388             -17.2367
         4        2.0000           -0.5888541             -16.0235
         5        2.0000           -0.5531398             -15.0517
         6        2.0000           -0.5491720             -14.9437
         7        2.0000           -0.4821717             -13.1206
         8        2.0000           -0.4642522             -12.6329
         9        1.9654           -0.4340432             -11.8109
        10        1.0346           -0.4277178             -11.6388
        11        1.0000           -0.4111946             -11.1892 (HOMO)
        12                         -0.3432455              -9.3402 (LUMO)
        13                         -0.2889635              -7.8631
        14                         -0.2295432              -6.2462
        15                         -0.1537295              -4.1832
        16                         -0.0040174              -0.1093
        17                          0.0498018               1.3552
        18                          0.4684694              12.7477
        19                          0.4828297              13.1385
        20                          1.1289014              30.7190
      -------------------------------------------------------------
                  HL-Gap            0.0679491 Eh            1.8490 eV
             Fermi-level           -0.4040503 Eh          -10.9948 eV

     #   Z        covCN         q      C6AA      α(0)
     1   6 C      1.960    -0.012    31.378     9.046
     2   6 C      2.940     0.132    25.120     8.220
     3   6 C      1.962     0.022    30.492     8.917
     4   6 C      1.960    -0.011    31.376     9.046
     5   6 C      0.982    -0.131    40.165    10.645

 Mol. C6AA /au·bohr⁶  :        788.047012
 Mol. C8AA /au·bohr⁸  :      22791.689036
 Mol. α(0) /au        :         45.874546


Wiberg/Mayer (AO) data.
largest (>0.10) Wiberg bond orders for each atom
          total WBO             WBO to atom ...
     1  C   2.848        C    4 1.645    C    2 1.021
     2  C   3.748        C    3 1.575    C    4 1.022    C    1 1.021    C    5 0.129
     3  C   3.824        C    5 2.078    C    2 1.575
     4  C   2.847        C    1 1.645    C    2 1.022
     5  C   2.395        C    3 2.078    C    2 0.129

MOs/occ written to file <molden.input>


molecular dipole:
                 x           y           z       tot (Debye)
 q only:       -0.509       0.139       0.012
   full:       -0.806       0.217       0.018       2.123
molecular quadrupole (traceless):
                xx          xy          yy          xz          yz          zz
 q only:       -2.296       0.981       0.987       0.084      -0.028       1.309
  q+dip:       -4.704       2.125       2.454       0.181       0.019       2.250
   full:       -7.556       2.967       2.501       0.252      -0.222       5.055

           -------------------------------------------------
          |                Geometry Summary                 |
           -------------------------------------------------

      molecular mass/u    :       60.0536795
   center of mass at/Å    :       -0.0000000       0.0000000       0.0000000
  moments of inertia/u·Å² :        0.1061599E+02   0.1359320E+03   0.1465480E+03
rotational constants/cm⁻¹ :        0.1587947E+01   0.1240152E+00   0.1150315E+00
Molecule has the following symmetry elements: (C2) 2*(sigma) 
It seems to be the C2v point group

 * 1 selected distances

     #   Z        #   Z                                     value/Å
     2   6 C      3   6 C                                 1.3101742 (max)

 * 1 distinct bonds (by element types)

   Z      Z             #   av. dist./Å        max./Å        min./Å
   6 C    6 C           1     1.3101742     1.3101742     1.3101742

           -------------------------------------------------
          |               Frequency Printout                |
           -------------------------------------------------
 projected vibrational frequencies (cm-1)
eigval :       -0.00     0.00     0.00     0.00     0.00     0.00
eigval :       72.82   167.21   357.19   490.63   711.51   803.59
eigval :     1275.02  1666.44  1899.30
 reduced masses (amu)
   1: 12.01   2: 12.01   3: 12.01   4: 12.01   5: 12.01   6: 12.01   7: 12.01   8: 12.01
   9: 12.01  10: 12.01  11: 12.01  12: 12.01  13: 12.01  14: 12.01  15: 12.01
 IR intensities (amu)
   1:  0.07   2:  0.05   3:  0.10   4:  0.04   5:  0.08   6:  0.11   7:  0.42   8:  0.38
   9:  0.04  10:  0.31  11:  1.06  12:  0.41  13:  1.38  14:  1.72  15:  0.22
 Raman intensities (amu)
   1:  0.00   2:  0.00   3:  0.00   4:  0.00   5:  0.00   6:  0.00   7:  0.00   8:  0.00
   9:  0.00  10:  0.00  11:  0.00  12:  0.00  13:  0.00  14:  0.00  15:  0.00
 output can be read by thermo (or use thermo option).
 writing <g98.out> molden fake output.
 recommended (thermochemical) frequency scaling factor: 1.0
           -------------------------------------------------
          |             Thermodynamic Functions             |
           -------------------------------------------------

c2v symmetry found (for desy threshold:  0.10E+00) used in thermo

          ...................................................
          :                      SETUP                      :
          :.................................................:
          :  # frequencies                           9      :
          :  # imaginary freq.                       0      :
          :  linear?                             false      :
          :  only rotor calc.                    false      :
          :  symmetry                              c2v      :
          :  rotational number                       2      :
          :  scaling factor                  1.0000000      :
          :  rotor cutoff                   50.0000000 cm⁻¹ :
          :  imag. cutoff                  -20.0000000 cm⁻¹ :
          :.................................................:

    mode    ω/cm⁻¹     T·S(HO)/kcal·mol⁻¹    T·S(FR)/kcal·mol⁻¹   T·S(vib)
   ------------------------------------------------------------------------
       1     72.82    -0.00001 ( 81.82%)     0.00206 ( 18.18%)     0.00037
       2    167.21    -0.00000 ( 99.21%)     0.01030 (  0.79%)     0.00008
   ------------------------------------------------------------------------

   temp. (K)  partition function   enthalpy   heat capacity  entropy
                                   cal/mol     cal/K/mol   cal/K/mol   J/K/mol
 298.15  VIB   8.66                 1372.823      8.353      8.728
         ROT  0.176E+05              888.752      2.981     22.404
         INT  0.152E+06             2261.575     11.334     31.132
         TR   0.450E+27             1481.254      4.968     38.181
         TOT                        3742.8293    16.3020    69.3126   290.0040

   temp. (K)  partition function   enthalpy   heat capacity  entropy
                                   cal/mol     cal/K/mol   cal/K/mol   J/K/mol
 120.00  VIB   2.02                  242.510      4.053      3.411
         ROT  0.448E+04              357.707      2.981     19.691
         INT  0.905E+04              600.217      7.034     23.102
         TR   0.115E+27              596.178      4.968     33.661
         TOT                        1196.3945    12.0023    56.7631   237.4966

   temp. (K)  partition function   enthalpy   heat capacity  entropy
                                   cal/mol     cal/K/mol   cal/K/mol   J/K/mol
 100.00  VIB   1.70                  167.195      3.475      2.755
         ROT  0.341E+04              298.089      2.981     19.147
         INT  0.582E+04              465.284      6.456     21.902
         TR   0.875E+26              496.815      4.968     32.756
         TOT                         962.0986    11.4240    54.6578   228.6883

   temp. (K)  partition function   enthalpy   heat capacity  entropy
                                   cal/mol     cal/K/mol   cal/K/mol   J/K/mol
  80.00  VIB   1.44                  103.707      2.866      2.080
         ROT  0.244E+04              238.471      2.981     18.482
         INT  0.352E+04              342.178      5.847     20.563
         TR   0.626E+26              397.452      4.968     31.648
         TOT                         739.6300    10.8155    52.2105   218.4488

   temp. (K)  partition function   enthalpy   heat capacity  entropy
                                   cal/mol     cal/K/mol   cal/K/mol   J/K/mol
  60.00  VIB   1.23                   53.031      2.182      1.390
         ROT  0.159E+04              178.853      2.981     17.625
         INT  0.196E+04              231.884      5.163     19.014
         TR   0.406E+26              298.089      4.968     30.219
         TOT                         529.9729    10.1310    49.2337   205.9936

   temp. (K)  partition function   enthalpy   heat capacity  entropy
                                   cal/mol     cal/K/mol   cal/K/mol   J/K/mol
  40.00  VIB   1.08                   17.534      1.333      0.707
         ROT   863.                  119.236      2.981     16.416
         INT   933.                  136.770      4.314     17.123
         TR   0.221E+26              198.726      4.968     28.206
         TOT                         335.4956     9.2819    45.3290   189.6565

   temp. (K)  partition function   enthalpy   heat capacity  entropy
                                   cal/mol     cal/K/mol   cal/K/mol   J/K/mol
  20.00  VIB   1.01                    1.114      0.294      0.139
         ROT   305.                   59.618      2.981     14.350
         INT   307.                   60.732      3.275     14.488
         TR   0.782E+25               99.363      4.968     24.764
         TOT                         160.0946     8.2433    39.2524   164.2322

   temp. (K)  partition function   enthalpy   heat capacity  entropy
                                   cal/mol     cal/K/mol   cal/K/mol   J/K/mol
  10.00  VIB   1.00                    0.006      0.006     -0.046
         ROT   108.                   29.809      2.981     12.284
         INT   108.                   29.815      2.987     12.237
         TR   0.277E+25               49.681      4.968     21.322
         TOT                          79.4963     7.9552    33.5595   140.4128

       T/K    H(0)-H(T)+PV         H(T)/Eh          T*S/Eh         G(T)/Eh
   ------------------------------------------------------------------------
    298.15    0.596458E-02    0.229226E-01    0.329327E-01   -0.100101E-01
    120.00    0.190658E-02    0.188646E-01    0.108549E-01    0.800967E-02
    100.00    0.153320E-02    0.184912E-01    0.871028E-02    0.978094E-02
     80.00    0.117868E-02    0.181367E-01    0.665622E-02    0.114805E-01
     60.00    0.844566E-03    0.178026E-01    0.470753E-02    0.130951E-01
     40.00    0.534646E-03    0.174927E-01    0.288945E-02    0.146032E-01
     20.00    0.255127E-03    0.172131E-01    0.125105E-02    0.159621E-01
     10.00    0.126685E-03    0.170847E-01    0.534804E-03    0.165499E-01 (used)
   ------------------------------------------------------------------------

         :::::::::::::::::::::::::::::::::::::::::::::::::::::
         ::                  THERMODYNAMIC                  ::
         :::::::::::::::::::::::::::::::::::::::::::::::::::::
         :: total free energy         -10.226472322372 Eh   ::
         ::.................................................::
         :: total energy              -10.243022218556 Eh   ::
         :: zero point energy           0.016958014991 Eh   ::
         :: G(RRHO) w/o ZPVE           -0.000408118808 Eh   ::
         :: G(RRHO) contrib.            0.016549896184 Eh   ::
         :::::::::::::::::::::::::::::::::::::::::::::::::::::

optimized geometry written to: xtbopt.xyz


           -------------------------------------------------
          | TOTAL ENERGY              -10.243022218556 Eh   |
          | TOTAL ENTHALPY            -10.225937518202 Eh   |
          | TOTAL FREE ENERGY         -10.226472322372 Eh   |
          | GRADIENT NORM               0.000618272952 Eh/α |
          | HOMO-LUMO GAP               1.848989888826 eV   |
           -------------------------------------------------

------------------------------------------------------------------------
 * finished run on 2020/05/12 at 11:44:31.535     
------------------------------------------------------------------------
 total:
 * wall-time:     0 d,  0 h,  0 min,  0.272 sec
 *  cpu-time:     0 d,  0 h,  0 min,  0.272 sec
 * ratio c/w:     0.997 speedup
 SCF:
 * wall-time:     0 d,  0 h,  0 min,  0.008 sec
 *  cpu-time:     0 d,  0 h,  0 min,  0.008 sec
 * ratio c/w:     1.000 speedup
 ANC optimizer:
 * wall-time:     0 d,  0 h,  0 min,  0.142 sec
 *  cpu-time:     0 d,  0 h,  0 min,  0.141 sec
 * ratio c/w:     0.999 speedup
 numerical hessian:
 * wall-time:     0 d,  0 h,  0 min,  0.106 sec
 *  cpu-time:     0 d,  0 h,  0 min,  0.106 sec
 * ratio c/w:     0.995 speedup

