[Molden Format]
[Title]
[Atoms] AU
C      1     6  0.33814886777037E+01 -0.65809278875457E+00 -0.74594079164666E+00
C      2     6  0.11229393251054E+01 -0.29245750685110E+00  0.43761251744630E-01
C      3     6 -0.13958496558090E+01 -0.11775500294621E+01 -0.73444822903182E+00
N      4     7 -0.69153076891826E+00  0.90842298052142E+00  0.16093548488736E+01
C      5     6 -0.24170494677978E+01  0.12196792342822E+01 -0.17272707993644E+00
[GTO]
           1 0
 s           4   1.0000000000000000     
   51.049363095579913      -0.16312063210127389     
   8.7911227406887544      -0.19911024581000730     
  0.70640422258929825       0.31882047753655751     
  0.26922813413411617       0.12706504184240380     
 p           4   1.0000000000000000     
   5.8263656140800002       0.73716451545209605     
   1.5106896018720002       0.68216371614850257     
  0.53256483288000001       0.35783053929253711     
  0.21202323690600003        5.3983030275847881E-002

           2 0
 s           4   1.0000000000000000     
   51.049363095579913      -0.16312063210127389     
   8.7911227406887544      -0.19911024581000730     
  0.70640422258929825       0.31882047753655751     
  0.26922813413411617       0.12706504184240380     
 p           4   1.0000000000000000     
   5.8263656140800002       0.73716451545209605     
   1.5106896018720002       0.68216371614850257     
  0.53256483288000001       0.35783053929253711     
  0.21202323690600003        5.3983030275847881E-002

           3 0
 s           4   1.0000000000000000     
   51.049363095579913      -0.16312063210127389     
   8.7911227406887544      -0.19911024581000730     
  0.70640422258929825       0.31882047753655751     
  0.26922813413411617       0.12706504184240380     
 p           4   1.0000000000000000     
   5.8263656140800002       0.73716451545209605     
   1.5106896018720002       0.68216371614850257     
  0.53256483288000001       0.35783053929253711     
  0.21202323690600003        5.3983030275847881E-002

           4 0
 s           4   1.0000000000000000     
   63.594024466941008      -0.19234388414721629     
   10.951417231523665      -0.23478107924953728     
  0.87999310257376984       0.37593753901700888     
  0.33538715296521110       0.14982889271862770     
 p           4   1.0000000000000000     
   7.2965040481495080       0.97658666315667420     
   1.8918745450712575       0.90372226730345739     
  0.66694432110824120       0.47404958461536373     
  0.26552202674130870        7.1516067715011844E-002

           5 0
 s           4   1.0000000000000000     
   51.049363095579913      -0.16312063210127389     
   8.7911227406887544      -0.19911024581000730     
  0.70640422258929825       0.31882047753655751     
  0.26922813413411617       0.12706504184240380     
 p           4   1.0000000000000000     
   5.8263656140800002       0.73716451545209605     
   1.5106896018720002       0.68216371614850257     
  0.53256483288000001       0.35783053929253711     
  0.21202323690600003        5.3983030275847881E-002

[MO]
Sym=     1a
Ene=  -0.77236609302713166     
Spin= Alpha
Occup=     2.00000000
           1   3.5517523526700207E-002
           2  -3.2179205502835845E-002
           3   5.0163529325384535E-003
           4   7.3453387120412227E-003
           5  0.24996407330249162     
           6 -0.14250172922684107     
           7   2.9549827905455992E-002
           8   1.5494853105625615E-002
           9  0.30134481617355002     
          10   4.4982952938662724E-002
          11  0.11828010621406995     
          12   8.2982177307238003E-002
          13  0.34153121240858303     
          14  -2.4821426942504811E-002
          15 -0.10733940311708025     
          16 -0.21712527145366611     
          17  0.27748098662208365     
          18  0.12589001874507719     
          19  -9.2008460103815831E-002
          20   4.2536996670669423E-002
Sym=     2a
Ene=  -0.69888129779975561     
Spin= Alpha
Occup=     2.00000000
           1  0.46072344801042603     
           2 -0.15193188210124622     
           3   2.0720487457868756E-002
           4   5.2530187444541097E-002
           5  0.45449762978592906     
           6  0.18090933046275970     
           7  -4.2633045474984643E-002
           8  -4.9647249104558609E-002
           9  -5.5104485946172316E-003
          10  0.14417588157109923     
          11  -5.1051547942263735E-002
          12  -2.1441202028426417E-002
          13  -8.2507767091680298E-002
          14  0.20548358325225649     
          15  -5.1868932212033474E-002
          16   1.1948583877630706E-002
          17 -0.21440820026165414     
          18  -7.5468779088922640E-003
          19   2.5948901919396555E-002
          20  -6.2376895656827962E-002
Sym=     3a
Ene=  -0.64921400193432022     
Spin= Alpha
Occup=     2.00000000
           1 -0.18060885010436992     
           2   3.3373754625157008E-002
           3   3.6921931611017651E-002
           4   4.4937395641228665E-002
           5   8.3107161612246808E-002
           6  -7.9005771901608735E-002
           7  0.19065134321308039     
           8  0.26687470239195976     
           9 -0.38303887815741072     
          10  0.10515601321242868     
          11  -4.8263239393362342E-002
          12   8.2064189536297114E-002
          13  0.45635304992674103     
          14  0.28269989934142808     
          15   4.5027532373898761E-002
          16   1.9192332748474046E-002
          17 -0.24081811879676110     
          18   9.1005090357074228E-002
          19  0.16740793722579891     
          20  0.12316299938236107     
Sym=     4a
Ene=  -0.64484648811261747     
Spin= Alpha
Occup=     2.00000000
           1  0.34185437470556013     
           2  -1.8233064451956320E-002
           3   4.0255183563283357E-002
           4   1.6338996817729216E-002
           5  -6.0176136130242426E-002
           6  0.29021209222692029     
           7  0.10450453800378565     
           8  -6.9379300945588529E-002
           9 -0.29749759848360058     
          10 -0.13493199094082153     
          11   8.9702976405922133E-002
          12  -1.5037887031581262E-002
          13  0.22088357955042817     
          14 -0.25458373405638784     
          15  0.30021185796648742     
          16  -2.8250462837681591E-002
          17  0.33740110938209783     
          18   3.6174714185095429E-002
          19  0.13587956697680140     
          20  0.17849548421948452     
Sym=     5a
Ene=  -0.59481515719673361     
Spin= Alpha
Occup=     2.00000000
           1  0.14088691991190605     
           2   1.9189497750248058E-002
           3  -9.8744331103698860E-002
           4   6.1432923561286788E-002
           5  -3.9299560821742296E-002
           6   8.3635189641892690E-002
           7 -0.28884010710207414     
           8  0.16627800630847997     
           9   2.9355231732229783E-002
          10  -5.5691357713215497E-002
          11 -0.17304902317938028     
          12  0.27337449065911917     
          13  0.23553445612623691     
          14 -0.27757536930881038     
          15 -0.32837867741600590     
          16  0.28977205147751950     
          17 -0.12099499687116778     
          18 -0.15068839706902001     
          19 -0.15030358562891605     
          20  0.29192054978236148     
Sym=     6a
Ene=  -0.56445587028580169     
Spin= Alpha
Occup=     2.00000000
           1  0.10841193305530382     
           2   9.5122074240635415E-002
           3  0.11524678657705111     
           4  0.15116657139233694     
           5  -2.1124279809174321E-002
           6  0.18389044504423260     
           7  0.23355580558269640     
           8  0.32168194364046282     
           9   5.4061725515938304E-003
          10 -0.41201925737001754     
          11  0.15254561806566763     
          12   3.1637492855387118E-002
          13  -2.8456235392859346E-002
          14  0.25424992337637842     
          15 -0.19590979929172689     
          16   4.6504667533193288E-002
          17  0.14666720712052170     
          18 -0.17197454177134147     
          19 -0.24495700704019838     
          20 -0.23231907752052017     
Sym=     7a
Ene=  -0.50786879655417805     
Spin= Alpha
Occup=     2.00000000
           1   8.4168275375639964E-002
           2   3.7885536748168205E-002
           3   1.2681329640214343E-002
           4  -8.0211574379439821E-002
           5  -7.7540368637933746E-002
           6   4.9838008643376258E-003
           7   3.7383161460505229E-002
           8  -7.4337234295276930E-002
           9  0.48764073146047693     
          10 -0.13419786706851750     
          11 -0.23646101793254623     
          12 -0.34222166794608816     
          13  0.45784196001873090     
          14  0.14575396243531885     
          15  0.34623253278060900     
          16  0.42656453222803065     
          17 -0.10964362192099093     
          18   1.4226102161048897E-002
          19  -7.8811781589672558E-002
          20  -5.4180810124383569E-002
Sym=     8a
Ene=  -0.49300585651715695     
Spin= Alpha
Occup=     2.00000000
           1  0.32922675947983493     
           2  0.25067800073733637     
           3  0.22792557989383003     
           4 -0.30063070026957417     
           5 -0.18255734894371145     
           6  -5.4214312694496683E-002
           7  0.30947316461766089     
           8 -0.23393789338331136     
           9  -2.8531404120082055E-002
          10  -3.6519077644276560E-002
          11   6.5722659584370124E-002
          12   9.1189373051878853E-002
          13   4.1621055843291815E-003
          14  -8.9116759481957186E-002
          15 -0.15830188762044353     
          16 -0.10421387556016125     
          17 -0.45442358037094266     
          18  0.25697313365591379     
          19 -0.29476724842917496     
          20  0.14263594526376555     
Sym=     9a
Ene=  -0.47143139194442957     
Spin= Alpha
Occup=     2.00000000
           1  0.49611313042808036     
           2  0.52562464159661282     
           3 -0.36316426526481715     
           4   1.0191754660011111E-002
           5 -0.18539795615544413     
           6 -0.13576204488651927     
           7 -0.22513139595695583     
           8  0.22551018768147107     
           9   3.0824179159178993E-002
          10   8.1003529997647900E-002
          11  -2.1581494150312120E-002
          12  -9.1308025826653538E-003
          13  -1.8398896320531904E-002
          14  0.14365402486362616     
          15   6.5039412764054158E-002
          16 -0.15562702797755296     
          17   7.8675233716699322E-002
          18  0.13831001959924352     
          19  0.17636783434161477     
          20 -0.16004063443633712     
Sym=    10a
Ene=  -0.45561919593227918     
Spin= Alpha
Occup=     1.99999957
           1  -9.0830161669902598E-002
           2   1.7144516040215031E-002
           3  0.10264290956517362     
           4  0.34973571979127338     
           5   2.4976696400240204E-003
           6  0.13897738738526610     
           7   4.6271326192982312E-002
           8  0.17848003394616535     
           9  0.32961396933553799     
          10 -0.18890283402825581     
          11 -0.43407725721439050     
          12   8.8882098816244939E-002
          13 -0.24444756982071295     
          14  -3.6931062647792369E-002
          15  0.27065259636567224     
          16 -0.44727658832502376     
          17 -0.18553188271920873     
          18  0.20046580836999903     
          19  -2.6512494841434520E-002
          20  0.25134811708078525     
Sym=    11a
Ene=  -0.42776866983379036     
Spin= Alpha
Occup=     1.00000043
           1 -0.13678186325939878     
           2 -0.17306763374490855     
           3 -0.35326798444392637     
           4  0.28496475973611846     
           5  -6.5890822050749753E-002
           6  0.15699718954547123     
           7 -0.17988542588445411     
           8   3.7514461656017552E-002
           9 -0.14698162253989275     
          10  -6.7455962166168698E-002
          11  0.38714177655857646     
          12 -0.19264939102514514     
          13   8.7900369447719007E-002
          14 -0.12316049657800669     
          15   9.0016551904033834E-002
          16   5.2317605667668854E-002
          17 -0.32557442019150690     
          18  0.48216820284284595     
          19 -0.32063817935616407     
          20  -9.3327272034078618E-002
Sym=    12a
Ene=  -0.38732234950589328     
Spin= Alpha
Occup=     0.00000000
           1   7.0757989519992202E-003
           2  0.31821228716941680     
           3  0.50201501774942203     
           4  0.52207796205119661     
           5  -7.3021430932385329E-003
           6  -1.4556365721181267E-002
           7   6.9802055308782905E-004
           8   1.7508791667480327E-002
           9   7.2330716461648237E-002
          10  0.32836825211082177     
          11  0.10205192209354398     
          12 -0.28272253029136724     
          13  -9.9740837329769464E-003
          14 -0.30070488151997660     
          15 -0.21890458798259516     
          16  0.22959646388643995     
          17   2.8863952952194901E-002
          18  0.10545972899447123     
          19  0.15509618467498490     
          20  -7.7419835923955155E-002
Sym=    13a
Ene=  -0.32242897955725686     
Spin= Alpha
Occup=     0.00000000
           1  -2.3358151476658345E-002
           2 -0.22400937472390103     
           3  0.17528454415693168     
           4 -0.24768321462264559     
           5 -0.13674533866336630     
           6  0.17270032934358290     
           7 -0.10449253670793410     
           8  0.10060312990774679     
           9   6.8878025231847384E-002
          10 -0.21792806012878382     
          11 -0.24975353781214282     
          12  0.24326696488730157     
          13   8.3168137989176646E-002
          14 -0.13791790454124569     
          15 -0.28858276681350253     
          16  0.10587291480155112     
          17   6.5741207066853435E-002
          18  0.57360743439711470     
          19  0.40316761528340983     
          20 -0.48328767842720438     
Sym=    14a
Ene=  -0.29339672019885477     
Spin= Alpha
Occup=     0.00000000
           1   7.1908091016144723E-003
           2 -0.10373676363064230     
           3 -0.28050056560975212     
           4 -0.15828120295675477     
           5   1.3961509413431172E-002
           6   7.2966492178535888E-002
           7  0.22882787676252439     
           8  0.15583791214012607     
           9  -3.6381762134973408E-003
          10 -0.10579458859717358     
          11 -0.17140812021443871     
          12 -0.74207766704674583     
          13   4.9692689042189153E-002
          14 -0.13812978526259012     
          15 -0.57624429907287178     
          16 -0.25565735849822147     
          17   5.8220347165739549E-003
          18  -1.6684993857289422E-002
          19  0.17754448937525516     
          20  0.24314768172517595     
Sym=    15a
Ene=  -0.22701452131693509     
Spin= Alpha
Occup=     0.00000000
           1   7.8225130389491786E-003
           2   4.1444453603574863E-002
           3 -0.51751950395275792     
           4  0.47539902356029179     
           5  -3.2581921381760630E-002
           6  -7.0037233166444668E-002
           7  0.59713902819085596     
           8 -0.54969509697904995     
           9   6.5217168254288790E-002
          10  -5.6906645286832709E-002
          11 -0.19004147848348033     
          12  0.30757900333560551     
          13   6.4894788762922970E-002
          14  -4.0452645293025238E-002
          15 -0.20481195679507846     
          16  0.16377610120197922     
          17   1.6302906893855061E-003
          18  -2.2257813225753591E-002
          19  0.18235619263785766     
          20 -0.14998335212791988     
Sym=    16a
Ene=    6.5945310440859110E-003
Spin= Alpha
Occup=     0.00000000
           1  -9.5964914599447282E-002
           2  0.11428205037300243     
           3 -0.27232077727829668     
           4 -0.32117027236972856     
           5  0.46431033015883100     
           6   9.4622837721495004E-002
           7  0.54598940941659391     
           8  0.59156130881561031     
           9  0.31047528472619007     
          10  0.22234185273504184     
          11  0.17403580816542516     
          12  0.12932984528394678     
          13 -0.55990458540786148     
          14 -0.43773580264378237     
          15  0.26151364788529152     
          16  0.47238321291481511     
          17  -1.0572383465061041E-002
          18  0.13255628924298013     
          19   7.5532586094998092E-002
          20   7.9290323824616996E-002
Sym=    17a
Ene=    7.9838435608174024E-002
Spin= Alpha
Occup=     0.00000000
           1   9.9478810589393885E-003
           2 -0.10694519260209913     
           3  -7.7351665918137025E-002
           4  -6.9197520732280471E-002
           5 -0.27182257171953317     
           6  0.26116924576567213     
           7  0.24340128702696848     
           8  0.21882181394628911     
           9 -0.21588291445789190     
          10  0.68970600105021806     
          11 -0.50224284535146302     
          12  -1.1887568950151710E-002
          13  0.33651094519563302     
          14 -0.34101233674209230     
          15  0.10435757308733468     
          16 -0.30273599477291541     
          17  0.13411377381348666     
          18 -0.20119394358040280     
          19 -0.60324371441801650     
          20 -0.59302047214179865     
Sym=    18a
Ene=   0.13952488151129960     
Spin= Alpha
Occup=     0.00000000
           1  0.13284407764532025     
           2 -0.34246598839425291     
           3  -2.3920849841490170E-002
           4   3.1857334349996880E-002
           5 -0.88035513766640006     
           6  0.42365107374862238     
           7  0.15833718327853816     
           8  0.11192180535077299     
           9  0.48050501931132705     
          10  0.57589860680576732     
          11  0.25714123646581605     
          12  0.13976890973712552     
          13 -0.16307910110566917     
          14  0.55546097296521468     
          15 -0.17082279293958980     
          16  0.12342122658421301     
          17  0.25245495049826416     
          18  0.14739330952550175     
          19   7.3646991459036970E-002
          20  0.41896890989232111     
Sym=    19a
Ene=   0.37719002199543283     
Spin= Alpha
Occup=     0.00000000
           1  0.22720751942738843     
           2 -0.31216026251885737     
           3   2.6344390268830238E-002
           4   4.6797675687023893E-002
           5 -0.35243612343419040     
           6  -7.6088916949880972E-002
           7   7.6216865268505199E-002
           8  0.22071563361120469     
           9  0.53040737049674114     
          10  -6.8247324077540916E-002
          11  0.57112849617797401     
          12  0.13535914984233433     
          13  0.40378357121598435     
          14 -0.42455710985696576     
          15  0.13185884361097816     
          16 -0.41030102452639050     
          17 -0.83850160528875706     
          18 -0.62595047873159870     
          19  0.55090929238264053     
          20 -0.30191051637177752     
Sym=    20a
Ene=   0.78064252836302062     
Spin= Alpha
Occup=     0.00000000
           1  0.81805253526006205     
           2 -0.83217039635921886     
           3  0.13302930651416792     
           4  0.29798637182230958     
           5 -0.40558106713529540     
           6  -1.2064635482923354     
           7  0.19716827311054419     
           8  0.38737901844435124     
           9 -0.33225205882895453     
          10 -0.13915730264200843     
          11 -0.22596910493313915     
          12 -0.13655616137312940     
          13 -0.37507507593984624     
          14 -0.13033636770834542     
          15  0.14597599888105145     
          16  0.26911560255851441     
          17  0.17264848355183013     
          18  0.14110242267417811     
          19 -0.16241224644769894     
          20   4.3982061248980450E-002
