$hessian                                                                        
        0.9492016826   0.0389180425   0.0181735681  -0.8853702171  -0.0308107480
       -0.0155068789  -0.0536751794  -0.0138575189  -0.0037651127  -0.0049457336
        0.0060350610   0.0012703759  -0.0052105525  -0.0002848366  -0.0001719524
        0.0389180425   0.0102461685   0.0016239495  -0.0409699011  -0.0168874485
       -0.0024953375   0.0043787942   0.0051716585   0.0009056600  -0.0008528243
        0.0003001495  -0.0003488122  -0.0014741113   0.0011694720   0.0003145402
        0.0181735681   0.0016239495   0.0054957829  -0.0179016728  -0.0024269064
       -0.0087987977   0.0004478508   0.0007361147   0.0019565640  -0.0003046353
       -0.0002976478   0.0016096681  -0.0004151108   0.0003644900  -0.0002632174
       -0.8853702171  -0.0409699011  -0.0179016728   1.1579482255  -0.0360400123
        0.0029518110  -0.1889289275   0.0899478125   0.0193087310  -0.0725166612
       -0.0271039736  -0.0076210031  -0.0111324198   0.0141660745   0.0032621340
       -0.0308107480  -0.0168874485  -0.0024269064  -0.0360400123   0.0730986713
        0.0118864031   0.0603984792  -0.0467207016  -0.0030060207  -0.0150484443
        0.0053347001  -0.0008360400   0.0215007255  -0.0148252213  -0.0056174359
       -0.0155068789  -0.0024953375  -0.0087987977   0.0029518110   0.0118864031
        0.0244107863   0.0123717544  -0.0028091279  -0.0311055690  -0.0047506396
       -0.0008367467   0.0073329198   0.0049339531  -0.0057451910   0.0081606605
       -0.0536751794   0.0043787942   0.0004478508  -0.1889289275   0.0603984792
        0.0123717544   0.7711357754   0.1974825509   0.0588669087  -0.5141902864
       -0.2996627456  -0.0808932104  -0.0143413822   0.0374029214   0.0092066965
       -0.0138575189   0.0051716585   0.0007361147   0.0899478125  -0.0467207016
       -0.0028091279   0.1974825509   0.4569731260   0.0925323350  -0.3036784853
       -0.2264560815  -0.0518972102   0.0301056408  -0.1889680014  -0.0385621116
       -0.0037651127   0.0009056600   0.0019565640   0.0193087310  -0.0030060207
       -0.0311055690   0.0588669087   0.0925323350   0.1155016020  -0.0820485574
       -0.0520254167  -0.0475272841   0.0076380305  -0.0384065577  -0.0388253129
       -0.0049457336  -0.0008528243  -0.0003046353  -0.0725166612  -0.0150484443
       -0.0047506396  -0.5141902864  -0.3036784853  -0.0820485574   0.6031905390
        0.3499338959   0.0947539905  -0.0115378579  -0.0303541419  -0.0076501583
        0.0060350610   0.0003001495  -0.0002976478  -0.0271039736   0.0053347001
       -0.0008367467  -0.2996627456  -0.2264560815  -0.0520254167   0.3499338959
        0.2570638784   0.0650786303  -0.0292022376  -0.0362426465  -0.0119188191
        0.0012703759  -0.0003488122   0.0016096681  -0.0076210031  -0.0008360400
        0.0073329198  -0.0808932104  -0.0518972102  -0.0475272841   0.0947539905
        0.0650786303   0.0307346613  -0.0075101530  -0.0119965678   0.0078500348
       -0.0052105525  -0.0014741113  -0.0004151108  -0.0111324198   0.0215007255
        0.0049339531  -0.0143413822   0.0301056408   0.0076380305  -0.0115378579
       -0.0292022376  -0.0075101530   0.0422222125  -0.0209300174  -0.0046467198
       -0.0002848366   0.0011694720   0.0003644900   0.0141660745  -0.0148252213
       -0.0057451910   0.0374029214  -0.1889680014  -0.0384065577  -0.0303541419
       -0.0362426465  -0.0119965678  -0.0209300174   0.2388663971   0.0557838265
       -0.0001719524   0.0003145402  -0.0002632174   0.0032621340  -0.0056174359
        0.0081606605   0.0092066965  -0.0385621116  -0.0388253129  -0.0076501583
       -0.0119188191   0.0078500348  -0.0046467198   0.0557838265   0.0230778350
