5
 energy: -9.378415461904 gnorm: 0.318097238803 xtb: 6.2.2 (9d81278992624c895f80dd42a50cac0aa55982e2)
C         1.67692100000000   -0.18111100000000   -0.58227300000000
C         0.80260400000000   -0.42856400000000    0.63494100000000
C        -0.60510800000000    0.10598300000000    0.41823800000000
N        -1.29109200000000   -0.67392900000000   -0.59774100000000
H        -0.58332500000000    1.17762100000000    0.12683500000000
5
 energy: -9.483158606332 gnorm: 0.206529104739 xtb: 6.2.2 (9d81278992624c895f80dd42a50cac0aa55982e2)
C         1.65441896013804   -0.22460988285774   -0.48335242187411
C         0.81002724435120   -0.38389828048641    0.53093393153235
C        -0.54588418368601    0.07619292177120    0.30588050351080
N        -1.28393359244575   -0.64241614203003   -0.52697399183433
H        -0.63462842835748    1.17473138360298    0.17351197866528
5
 energy: -9.454472188781 gnorm: 0.629672634917 xtb: 6.2.2 (9d81278992624c895f80dd42a50cac0aa55982e2)
C         1.59381214586781   -0.27580555451280   -0.36554740457747
C         0.84765397740617   -0.32308227029791    0.40494553784573
C        -0.53163839303342    0.04209824285108    0.18794011377602
N        -1.24871096406552   -0.60301841799737   -0.45138201660931
H        -0.66111676617504    1.15980799995701    0.22404376956503
5
 energy: -9.518124038374 gnorm: 0.097553152646 xtb: 6.2.2 (9d81278992624c895f80dd42a50cac0aa55982e2)
C         1.73528069610714   -0.29424329557652   -0.42262572528811
C         0.80617420114142   -0.30834872297872    0.43574436512426
C        -0.54225211640066    0.05871738557194    0.18563196293161
N        -1.30936752466341   -0.63085987862566   -0.45949286810607
H        -0.68983525618449    1.17473451160895    0.26074226533831
5
 energy: -9.520740959888 gnorm: 0.138531914011 xtb: 6.2.2 (9d81278992624c895f80dd42a50cac0aa55982e2)
C         1.90446296931900   -0.26591463791261   -0.32286231558498
C         0.84283721561660   -0.33147311141244    0.34249899502346
C        -0.51764255321576    0.06082468663977    0.08962592136045
N        -1.50353754828585   -0.64844609064430   -0.38626643769079
H        -0.72612008343399    1.18500915332959    0.27700383689187
5
 energy: -9.530086203877 gnorm: 0.086242561798 xtb: 6.2.2 (9d81278992624c895f80dd42a50cac0aa55982e2)
C         1.92613723593184   -0.32580607867214   -0.32701632093640
C         0.84051587013404   -0.26986529590156    0.30152613795421
C        -0.56053752978490    0.05698307661965    0.11338716969057
N        -1.45286159561576   -0.61498799904286   -0.38757328969278
H        -0.75325398066522    1.15367629699692    0.29967630298439
5
 energy: -9.531272526088 gnorm: 0.038198552388 xtb: 6.2.2 (9d81278992624c895f80dd42a50cac0aa55982e2)
C         1.86964958154752   -0.24921393065747   -0.30661360124322
C         0.82071709778849   -0.31242948204720    0.30205861608284
C        -0.55996261681114    0.06020513164432    0.12228452180851
N        -1.45487204407343   -0.61160051673982   -0.36632462344515
H        -0.67553201845146    1.11303879780017    0.24859508679700
5
 energy: -9.535354526986 gnorm: 0.017624690057 xtb: 6.2.2 (9d81278992624c895f80dd42a50cac0aa55982e2)
C         1.92819259190769   -0.28058502800212   -0.27348555770296
C         0.82930243042986   -0.29677985018796    0.25250000819417
C        -0.55205766912664    0.06169254392131    0.07339878417356
N        -1.48539238620689   -0.61718755604324   -0.33807956663741
H        -0.72004496700403    1.13285989031202    0.28566633197264
5
 energy: -9.533681353283 gnorm: 0.115774226060 xtb: 6.2.2 (9d81278992624c895f80dd42a50cac0aa55982e2)
C         2.03850492311543   -0.25745854410108   -0.19214201855507
C         0.81257478174659   -0.30984311789571    0.13719726455581
C        -0.56028481960875    0.06181038053714    0.02756335399509
N        -1.56363322570401   -0.61224517120130   -0.25686331467189
H        -0.72716165954926    1.11773645266095    0.28424471467605
5
 energy: -9.537691852668 gnorm: 0.020167184299 xtb: 6.2.2 (9d81278992624c895f80dd42a50cac0aa55982e2)
C         1.99103410648067   -0.30420011425429   -0.21134815245803
C         0.83616664269296   -0.27196825796602    0.16684104017189
C        -0.54935867639358    0.05859710987819    0.01895600690067
N        -1.52593242688837   -0.60967232688100   -0.29028511032076
H        -0.75190964589170    1.12724358922312    0.31583621570623
5
 energy: -9.538484287414 gnorm: 0.015405532300 xtb: 6.2.2 (9d81278992624c895f80dd42a50cac0aa55982e2)
C         1.98763786674432   -0.27811032105142   -0.20021513094926
C         0.82366221655733   -0.29045972987224    0.15243332479749
C        -0.55470768758047    0.05921060712191    0.02950927173415
N        -1.52830060661284   -0.61177455596433   -0.27791736797320
H        -0.72829178910834    1.12113399976607    0.29618990239081
5
 energy: -9.539612948178 gnorm: 0.036290344753 xtb: 6.2.2 (9d81278992624c895f80dd42a50cac0aa55982e2)
C         2.01619737603353   -0.25148268193980   -0.14515861053712
C         0.81247467140577   -0.30299603044693    0.08044240715822
C        -0.56094451923278    0.05581734370555    0.01799822752893
N        -1.55860777478700   -0.61047314368525   -0.23452519976624
H        -0.70911975341954    1.10913451236643    0.28124317561619
5
 energy: -9.540390648656 gnorm: 0.026183637724 xtb: 6.2.2 (9d81278992624c895f80dd42a50cac0aa55982e2)
C         2.02153856270344   -0.24266502921238   -0.11161808015013
C         0.81132664276993   -0.30509556068672    0.03810899512610
C        -0.56318606339094    0.05126168017492    0.01178894915330
N        -1.56931467448447   -0.61004035815274   -0.21398167128306
H        -0.70036446759796    1.10653926787693    0.27570180715379
5
 energy: -9.541038057689 gnorm: 0.005356590641 xtb: 6.2.2 (9d81278992624c895f80dd42a50cac0aa55982e2)
C         2.02022609132931   -0.23903194788420   -0.07710372946562
C         0.81280221022717   -0.30397332006177   -0.00614210157763
C        -0.56519051398212    0.04422535566096    0.00786709784553
N        -1.57436784764277   -0.61144934599614   -0.19701317620986
H        -0.69346993993161    1.11022925828115    0.27239190940758
5
 energy: -9.540856470971 gnorm: 0.034774800327 xtb: 6.2.2 (9d81278992624c895f80dd42a50cac0aa55982e2)
C         2.03298438094394   -0.22389496967614   -0.02166365797267
C         0.80950101379940   -0.30928135469666   -0.07700746295918
C        -0.56850312339198    0.03561180004699   -0.00263199369684
N        -1.59407018727934   -0.61279534899042   -0.16206330297744
H        -0.67991208407203    1.11035987331623    0.26336641760612
5
 energy: -9.541230258526 gnorm: 0.004181321787 xtb: 6.2.2 (9d81278992624c895f80dd42a50cac0aa55982e2)
C         2.02070515744878   -0.22869721735832   -0.04779837935454
C         0.81244472466370   -0.30642576230227   -0.04065240412973
C        -0.56541752797951    0.03703166549577    0.00492263137681
N        -1.58526970830012   -0.61178146058506   -0.18124402234379
H        -0.68246264583285    1.10987277474988    0.26477217445124
5
 energy: -9.541256094968 gnorm: 0.001800174202 xtb: 6.2.2 (9d81278992624c895f80dd42a50cac0aa55982e2)
C         2.02118869343267   -0.22786945064161   -0.04040755187012
C         0.81158993808870   -0.30733424593524   -0.05136417722897
C        -0.56620053478412    0.03627951508979    0.00491050052552
N        -1.58479329779027   -0.61184462379750   -0.17670840101584
H        -0.68178479894698    1.11076880528456    0.26356962958940
5
 energy: -9.541258793004 gnorm: 0.003768314915 xtb: 6.2.2 (9d81278992624c895f80dd42a50cac0aa55982e2)
C         2.02101180086797   -0.22308170540294   -0.02595647996437
C         0.81123409866893   -0.30816677514852   -0.06812430216660
C        -0.56566989508836    0.03337026705512    0.00219222948790
N        -1.58986706908384   -0.61171259349421   -0.16862911549196
H        -0.67670893536471    1.10959080699055    0.26051766813502
5
 energy: -9.541265581684 gnorm: 0.001291112385 xtb: 6.2.2 (9d81278992624c895f80dd42a50cac0aa55982e2)
C         2.02059471637267   -0.22476825354692   -0.02937891572208
C         0.81141951293899   -0.30757901442389   -0.06424125500327
C        -0.56568560335327    0.03430827017859    0.00261549854036
N        -1.58807651125646   -0.61169602624027   -0.17067941526704
H        -0.67825211470193    1.10973502403250    0.26168408745202
5
 energy: -9.541266931804 gnorm: 0.000622201788 xtb: 6.2.2 (9d81278992624c895f80dd42a50cac0aa55982e2)
C         2.02046263711163   -0.22642401850368   -0.03152040799812
C         0.81150909541012   -0.30685048638357   -0.06204344466288
C        -0.56572572176792    0.03548684257129    0.00223604364679
N        -1.58658473830254   -0.61180184542430   -0.17185580091829
H        -0.67966127245130    1.10958950774026    0.26318360993250
