5
 energy: -8.890718868029 gnorm: 0.000455613036 xtb: 6.2.2 (9d81278992624c895f80dd42a50cac0aa55982e2)
N         0.98083725691131   -0.03186943483522    0.64902705489344
C        -0.29720967897933    0.00383299654915   -0.01238417064957
N         1.03191735899279    0.00591210946879   -0.56515971767173
H        -0.86845659791530   -0.91165925684405   -0.06490282973383
H        -0.84708733900948    0.93378358565609   -0.00658033684181
