4
 energy: -5.752088115349 gnorm: 0.086180542070 xtb: 6.2.2 (9d81278992624c895f80dd42a50cac0aa55982e2)
C         0.65116800000000    0.44822900000000   -0.24474700000000
N        -0.73067500000000    0.40192100000000    0.19908300000000
H         1.22687600000000   -0.37393000000000    0.23031200000000
H        -1.14736900000000   -0.47622000000000   -0.18464800000000
4
 energy: -5.758358100408 gnorm: 0.048294485625 xtb: 6.2.2 (9d81278992624c895f80dd42a50cac0aa55982e2)
C         0.61111510411039    0.37823382762079   -0.30158169126890
N        -0.66704655218481    0.32942465858355    0.26179595958566
H         1.28187613911492   -0.29787569587121    0.28326920777547
H        -1.22594469104049   -0.40978279033313   -0.24348347609223
4
 energy: -5.757940679854 gnorm: 0.070750681187 xtb: 6.2.2 (9d81278992624c895f80dd42a50cac0aa55982e2)
C         0.59567785137937    0.40840969409696   -0.23870861352461
N        -0.63669567096697    0.33084151805808    0.18915208112126
H         1.23594054276612   -0.31774734392070    0.24565877332471
H        -1.19492272317852   -0.42150386823433   -0.19610224092136
4
 energy: -5.760749725197 gnorm: 0.007369483019 xtb: 6.2.2 (9d81278992624c895f80dd42a50cac0aa55982e2)
C         0.61738221331348    0.40961974122057   -0.25532261695099
N        -0.66170340333175    0.33390199725994    0.20625084943484
H         1.26320309513288   -0.31882501315173    0.25541689089513
H        -1.21888190511461   -0.42469672532878   -0.20634512337898
4
 energy: -5.760823191406 gnorm: 0.002506861636 xtb: 6.2.2 (9d81278992624c895f80dd42a50cac0aa55982e2)
C         0.61425336097269    0.40517005097116   -0.26183634915810
N        -0.65597133212539    0.32664615820195    0.21229430203725
H         1.26873379748912   -0.31304075962263    0.26126277137778
H        -1.22701582633642   -0.41877544955048   -0.21172072425693
4
 energy: -5.760829932107 gnorm: 0.000868498601 xtb: 6.2.2 (9d81278992624c895f80dd42a50cac0aa55982e2)
C         0.61347566425211    0.40533047751565   -0.26347523278339
N        -0.65461078255561    0.32461386464919    0.21317179597018
H         1.26769057176045   -0.31265014563885    0.26240750297696
H        -1.22655545345694   -0.41729419652600   -0.21210406616375
4
 energy: -5.760830578022 gnorm: 0.000260144930 xtb: 6.2.2 (9d81278992624c895f80dd42a50cac0aa55982e2)
C         0.61366042636967    0.40582275461252   -0.26385009237202
N        -0.65432191607933    0.32355865063341    0.21302646070180
H         1.26753776806958   -0.31266566167120    0.26273227769820
H        -1.22687627835992   -0.41671574357472   -0.21190864602798
