$hessian                                                                        
        0.8046427784  -0.0000031600  -0.0000021067  -0.8046427784   0.0000031600
        0.0000021067
       -0.0000031600  -0.0001769016   0.0000000000   0.0000031600   0.0001769016
       -0.0000000000
       -0.0000021067   0.0000000000  -0.0001769016   0.0000021067  -0.0000000000
        0.0001769016
       -0.8046427784   0.0000031600   0.0000021067   0.8046427784  -0.0000031600
       -0.0000021067
        0.0000031600   0.0001769016  -0.0000000000  -0.0000031600  -0.0001769016
        0.0000000000
        0.0000021067  -0.0000000000   0.0001769016  -0.0000021067   0.0000000000
       -0.0001769016
