5
 energy: -9.492611046652 gnorm: 0.000215994677 xtb: 6.2.2 (9d81278992624c895f80dd42a50cac0aa55982e2)
C        -1.06364893041490   -0.46145251339675   -0.14605230931298
C        -0.00845384156638    0.51385412112010   -0.32950310216119
C         1.06410855278713   -0.44821161154487   -0.17999244738932
N         0.01299107890917   -1.03691813022923    0.40991431727651
H        -0.00499785970979    1.43272913405599    0.24563354158872
