3
 energy: -8.745613428833 gnorm: 0.208658434859 xtb: 6.2.2 (9d81278992624c895f80dd42a50cac0aa55982e2)
N        -0.04883400000000    0.55646600000000    0.00000000000000
O        -1.10079300000000   -0.29482600000000    0.00000000000000
C         1.14962700000000   -0.26164100000000    0.00000000000000
3
 energy: -8.775686805665 gnorm: 0.095207515042 xtb: 6.2.2 (9d81278992624c895f80dd42a50cac0aa55982e2)
N        -0.04852228721504    0.46518123944924    0.00000000000000
O        -1.09126600769622   -0.24618513996380   -0.00000000000000
C         1.13978829491126   -0.21899709948544    0.00000000000000
3
 energy: -8.779708473056 gnorm: 0.056780982857 xtb: 6.2.2 (9d81278992624c895f80dd42a50cac0aa55982e2)
N        -0.05336034400695    0.40711936922360    0.00000000000000
O        -1.06282761963164   -0.21308613484997   -0.00000000000000
C         1.11618796363859   -0.19403423437363    0.00000000000000
3
 energy: -8.781109968856 gnorm: 0.011005914971 xtb: 6.2.2 (9d81278992624c895f80dd42a50cac0aa55982e2)
N        -0.05032427829922    0.40657432490157    0.00000000000000
O        -1.09448919986546   -0.21436647442427   -0.00000000000000
C         1.14481347816468   -0.19220885047731    0.00000000000000
3
 energy: -8.781168990478 gnorm: 0.001399470110 xtb: 6.2.2 (9d81278992624c895f80dd42a50cac0aa55982e2)
N        -0.05192857182980    0.40845413063675    0.00000000000000
O        -1.08855597177663   -0.21469685538410   -0.00000000000000
C         1.14048454360644   -0.19375827525265    0.00000000000000
3
 energy: -8.781169686732 gnorm: 0.000594917391 xtb: 6.2.2 (9d81278992624c895f80dd42a50cac0aa55982e2)
N        -0.05244235566462    0.40795470525149    0.00000000000000
O        -1.08827031210759   -0.21423989552127   -0.00000000000000
C         1.14071266777222   -0.19371580973022    0.00000000000000
