      -----------------------------------------------------------      
     |                   =====================                   |     
     |                           x T B                           |     
     |                   =====================                   |     
     |                         S. Grimme                         |     
     |          Mulliken Center for Theoretical Chemistry        |     
     |                    University of Bonn                     |     
      -----------------------------------------------------------      

   * xtb version 6.2.2 (9d81278992624c895f80dd42a50cac0aa55982e2) compiled by '@Darwin' on 04/03/2020

   xtb is free software: you can redistribute it and/or modify it under
   the terms of the GNU Lesser General Public License as published by
   the Free Software Foundation, either version 3 of the License, or
   (at your option) any later version.
   
   xtb is distributed in the hope that it will be useful,
   but WITHOUT ANY WARRANTY; without even the implied warranty of
   MERCHANTABILITY or FITNESS FOR A PARTICULAR PURPOSE.  See the
   GNU Lesser General Public License for more details.
   
   Cite this work as:
   * S. Grimme, C. Bannwarth, P. Shushkov, J. Chem. Theory Comput., 2017,
     13, 1989-2009. DOI: 10.1021/acs.jctc.7b00118
   * C. Bannwarth, S. Ehlert and S. Grimme., J. Chem. Theory Comput., 2019,
     15, 1652-1671. DOI: 10.1021/acs.jctc.8b01176
   * P. Pracht, E. Caldeweyher, S. Ehlert, S. Grimme, ChemRxiv, 2019, preprint.
     DOI: 10.26434/chemrxiv.8326202.v1
   
   for DFT-D4:
   * E. Caldeweyher, C. Bannwarth and S. Grimme, J. Chem. Phys., 2017,
     147, 034112. DOI: 10.1063/1.4993215
   * E. Caldeweyher, S. Ehlert, A. Hansen, H. Neugebauer, S. Spicher,
     C. Bannwarth and S. Grimme, J. Chem. Phys., 2019, 150, 154122.
     DOI: 10.1063/1.5090222
   
   for sTDA-xTB:
   * S. Grimme and C. Bannwarth, J. Chem. Phys., 2016, 145, 054103.
     DOI: 10.1063/1.4959605
   
   in the mass-spec context:
   * V. Asgeirsson, C. Bauer and S. Grimme, Chem. Sci., 2017, 8, 4879.
     DOI: 10.1039/c7sc00601b
   
   for metadynamics refer to:
   * S. Grimme, J. Chem. Theory Comput., 2019, 155, 2847-2862
     DOI: 10.1021/acs.jctc.9b00143
   
   with help from (in alphabetical order)
   C. Bannwarth, F. Bohle, G. Brandenburg, E. Caldeweyher, M. Checinski,
   S. Dohm, S. Ehlert, S. Ehrlich, F. März, H. Neugebauer, J. Pisarek,
   P. Pracht, P. Shushkov, and S. Spicher.
   
 * started run on 2020/05/12 at 11:44:41.142     

           -------------------------------------------------
          |                Calculation Setup                |
           -------------------------------------------------

          program call               : xtb --input C1N1O1_1_S_3.input C1N1O1_1_S_3.xyz --ohess --molden --namespace C1N1O1_1_S_3 output.out
          calculation namespace      : C1N1O1_1_S_3
          coordinate file            : C1N1O1_1_S_3.xyz
          number of atoms            :                     3
          number of electrons        :                    15
          charge                     :                     0
          spin                       :                   1.5
          first test random number   :      0.92851183053627

   ID    Z sym.   atoms
    1    7 N      1
    2    8 O      2
    3    6 C      3

           -------------------------------------------------
          |                 G F N 2 - x T B                 |
           -------------------------------------------------

        Reference                      10.1021/acs.jctc.8b01176
      * Hamiltonian:
        H0-scaling (s, p, d)           1.850000    2.230000    2.230000
        zeta-weighting                 0.500000
      * Dispersion:
        s8                             2.700000
        a1                             0.520000
        a2                             5.000000
        s9                             5.000000
      * Repulsion:
        kExp                           1.500000    1.000000
        rExp                           1.000000
      * Coulomb:
        alpha                          2.000000
        third order                    shell-resolved
        anisotropic                    true
        a3                             3.000000
        a5                             4.000000
        cn-shift                       1.200000
        cn-exp                         4.000000
        max-rad                        5.000000


          ...................................................
          :                      SETUP                      :
          :.................................................:
          :  # basis functions                  12          :
          :  # atomic orbitals                  12          :
          :  # shells                            6          :
          :  # electrons                        15          :
          :  max. iterations                   250          :
          :  Hamiltonian                  GFN2-xTB          :
          :  restarted?                      false          :
          :  GBSA solvation                  false          :
          :  PC potential                    false          :
          :  electronic temp.          300.0000000     K    :
          :  accuracy                    1.0000000          :
          :  -> integral cutoff          0.2500000E+02      :
          :  -> integral neglect         0.1000000E-07      :
          :  -> SCF convergence          0.1000000E-05 Eh   :
          :  -> wf. convergence          0.1000000E-03 e    :
          :  Broyden damping             0.4000000          :
          ...................................................

 iter      E             dE          RMSdq      gap      omega  full diag
   1     -8.6578625 -0.865786E+01  0.973E+00    1.87       0.0  T
   2     -8.6334878  0.243747E-01  0.769E+00    0.72       1.0  T
   3     -8.7210078 -0.875200E-01  0.400E+00    1.32       1.0  T
   4     -8.7079271  0.130807E-01  0.442E+00    0.89       1.0  T
   5     -8.7600001 -0.520730E-01  0.942E-01    1.02       1.0  T
   6     -8.7613313 -0.133116E-02  0.570E-01    0.94       1.0  T
   7     -8.7611805  0.150792E-03  0.440E-01    0.94       1.0  T
   8     -8.7616535 -0.473029E-03  0.908E-02    0.97       1.0  T
   9     -8.7616740 -0.204614E-04  0.245E-02    0.98       2.4  T
  10     -8.7616768 -0.286442E-05  0.320E-03    0.98      18.1  T
  11     -8.7616769 -0.321661E-07  0.136E-03    0.98      42.6  T
  12     -8.7616769 -0.362138E-08  0.214E-04    0.98     270.1  T
  13     -8.7616769 -0.160430E-09  0.150E-05    0.98    3839.7  T

   *** convergence criteria satisfied after 13 iterations ***

         #    Occupation            Energy/Eh            Energy/eV
      -------------------------------------------------------------
         1        2.0000           -0.7823006             -21.2875
       ...           ...                  ...                  ...
         3        2.0000           -0.6523690             -17.7519
         4        2.0000           -0.6112708             -16.6335
         5        2.0000           -0.5909760             -16.0813
         6        2.0000           -0.5482348             -14.9182
         7        1.0000           -0.4744929             -12.9116
         8        1.0000           -0.4616528             -12.5622
         9        1.0000           -0.3982198             -10.8361 (HOMO)
        10                         -0.3623664              -9.8605 (LUMO)
        11                         -0.0395660              -1.0766
        12                          0.0153923               0.4188
      -------------------------------------------------------------
                  HL-Gap            0.0358534 Eh            0.9756 eV
             Fermi-level           -0.4458285 Eh          -12.1316 eV

 SCC (total)                   0 d,  0 h,  0 min,  0.002 sec
 SCC setup                      ...        0 min,  0.000 sec (  4.000%)
 Dispersion                     ...        0 min,  0.000 sec (  0.493%)
 integral evaluation            ...        0 min,  0.001 sec ( 27.933%)
 zeroth order Hamiltonian       ...        0 min,  0.000 sec (  0.540%)
 iterations                     ...        0 min,  0.001 sec ( 39.653%)
 molecular gradient             ...        0 min,  0.000 sec ( 24.413%)
 printout                       ...        0 min,  0.000 sec (  2.417%)

         :::::::::::::::::::::::::::::::::::::::::::::::::::::
         ::                     SUMMARY                     ::
         :::::::::::::::::::::::::::::::::::::::::::::::::::::
         :: total energy              -8.745613428822 Eh    ::
         :: gradient norm              0.208658421244 Eh/a0 ::
         :: HOMO-LUMO gap              0.975621545539 eV    ::
         ::.................................................::
         :: SCC energy                -8.761676859521 Eh    ::
         :: -> isotropic ES           -0.007325249745 Eh    ::
         :: -> anisotropic ES         -0.000165225702 Eh    ::
         :: -> anisotropic XC          0.004478757566 Eh    ::
         :: -> dispersion             -0.000793134855 Eh    ::
         :: repulsion energy           0.016063429647 Eh    ::
         :: add. restraining           0.000000000000 Eh    ::
         :::::::::::::::::::::::::::::::::::::::::::::::::::::

      ----------------------------------------------------------- 
     |                   =====================                   |
     |                        A N C O P T                        |
     |                   =====================                   |
     |               Approximate Normal Coordinate               |
     |                Rational Function Optimizer                |
      ----------------------------------------------------------- 

          ...................................................
          :                      SETUP                      :
          :.................................................:
          :   optimization level            normal          :
          :   max. optcycles                   200          :
          :   ANC micro-cycles                  20          :
          :   degrees of freedom                 3          :
          :.................................................:
          :   RF solver                   davidson          :
          :   write xtbopt.log                true          :
          :   linear?                        false          :
          :   energy convergence         0.5000000E-05 Eh   :
          :   grad. convergence          0.1000000E-02 Eh/α :
          :   maximium RF displ.         1.0000000          :
          :   Hlow (freq-cutoff)         0.1000000E-01      :
          :   Hmax (freq-cutoff)         5.0000000          :
          :   S6 in model hess.         20.0000000          :
          ...................................................

generating ANC from model Hessian ...
Using Lindh-Hessian (1995)
 Shifting diagonal of input Hessian by    0.0000000000000000     
 Lowest  eigenvalues of input Hessian
   -0.000000    0.000000    0.000000    0.000000    0.000000    0.000000
    0.161989    0.964310    1.365558
 Highest eigenvalues
    0.000000    0.000000    0.000000    0.161989    0.964310    1.365558


........................................................................
.............................. CYCLE    1 ..............................
........................................................................
   1     -8.7616769 -0.876168E+01  0.845E-06    0.98       0.0  T
   2     -8.7616769  0.390799E-13  0.633E-06    0.98    9121.6  T
   3     -8.7616769 -0.373035E-13  0.510E-06    0.98   11318.0  T
     SCC iter.                  ...        0 min,  0.000 sec
     gradient                   ...        0 min,  0.000 sec
 * total energy  :    -8.7456134 Eh     change       -0.1095479E-10 Eh
   gradient norm :     0.2086584 Eh/α   predicted     0.0000000E+00 (-100.00%)
   displ. norm   :     0.2130032 α      lambda       -0.4074929E-01
   maximum displ.:     0.1680677 α      in ANC's #2, #1, #3, ...

........................................................................
.............................. CYCLE    2 ..............................
........................................................................
   1     -8.7966413 -0.879664E+01  0.235E+00    1.44       0.0  T
   2     -8.7907637  0.587765E-02  0.224E+00    1.12       1.0  T
   3     -8.8066440 -0.158804E-01  0.912E-01    1.29       1.0  T
   4     -8.8071206 -0.476527E-03  0.262E-01    1.26       1.0  T
   5     -8.8072198 -0.992537E-04  0.890E-02    1.26       1.0  T
   6     -8.8072216 -0.179254E-05  0.222E-02    1.26       2.6  T
   7     -8.8072216 -0.493925E-07  0.676E-03    1.26       8.5  T
   8     -8.8072217 -0.233515E-07  0.565E-04    1.26     102.2  T
   9     -8.8072217 -0.117744E-09  0.217E-04    1.26     265.9  T
     SCC iter.                  ...        0 min,  0.000 sec
     gradient                   ...        0 min,  0.000 sec
 * total energy  :    -8.7756868 Eh     change       -0.3007338E-01 Eh
   gradient norm :     0.0951968 Eh/α   predicted    -0.2129905E-01 ( -29.18%)
   displ. norm   :     0.1521082 α      lambda       -0.1424861E-01
   maximum displ.:     0.1289870 α      in ANC's #2, #3, #1, ...

........................................................................
.............................. CYCLE    3 ..............................
........................................................................
   1     -8.8254209 -0.882542E+01  0.179E+00    1.55       0.0  T
   2     -8.8249296  0.491263E-03  0.161E+00    1.32       1.0  T
   3     -8.8328082 -0.787851E-02  0.608E-01    1.43       1.0  T
   4     -8.8329049 -0.967748E-04  0.153E-01    1.41       1.0  T
   5     -8.8329240 -0.190967E-04  0.531E-02    1.41       1.1  T
   6     -8.8329244 -0.370492E-06  0.137E-02    1.41       4.2  T
   7     -8.8329244 -0.302288E-07  0.394E-03    1.41      14.7  T
   8     -8.8329244 -0.189761E-08  0.313E-04    1.41     184.7  T
   9     -8.8329244 -0.108535E-10  0.151E-04    1.41     382.6  T
     SCC iter.                  ...        0 min,  0.000 sec
     gradient                   ...        0 min,  0.000 sec
 * total energy  :    -8.7797085 Eh     change       -0.4021667E-02 Eh
   gradient norm :     0.0567556 Eh/α   predicted    -0.7289136E-02 (  81.25%)
   displ. norm   :     0.0809800 α      lambda       -0.3554783E-02
   maximum displ.:     0.0671861 α      in ANC's #1, #2, #3, ...

........................................................................
.............................. CYCLE    4 ..............................
........................................................................
   1     -8.8231967 -0.882320E+01  0.681E-01    1.22       0.0  T
   2     -8.8229683  0.228423E-03  0.659E-01    1.31       1.0  T
   3     -8.8244802 -0.151199E-02  0.206E-01    1.27       1.0  T
   4     -8.8244955 -0.152760E-04  0.986E-02    1.28       1.0  T
   5     -8.8245041 -0.862140E-05  0.225E-02    1.28       2.6  T
   6     -8.8245042 -0.658058E-07  0.405E-03    1.28      14.2  T
   7     -8.8245042 -0.229090E-08  0.201E-03    1.28      28.8  T
   8     -8.8245042 -0.523276E-09  0.159E-04    1.28     362.9  T
   9     -8.8245042 -0.237996E-10  0.269E-05    1.28    2149.3  T
     SCC iter.                  ...        0 min,  0.000 sec
     gradient                   ...        0 min,  0.000 sec
 * total energy  :    -8.7811100 Eh     change       -0.1401496E-02 Eh
   gradient norm :     0.0109808 Eh/α   predicted    -0.1789046E-02 (  27.65%)
   displ. norm   :     0.0149468 α      lambda       -0.1092131E-03
   maximum displ.:     0.0138539 α      in ANC's #1, #3, #2, ...

........................................................................
.............................. CYCLE    5 ..............................
........................................................................
   1     -8.8255573 -0.882556E+01  0.117E-01    1.30       0.0  T
   2     -8.8255537  0.361211E-05  0.101E-01    1.29       1.0  T
   3     -8.8255830 -0.292892E-04  0.396E-02    1.30       1.5  T
   4     -8.8255841 -0.109186E-05  0.149E-02    1.30       3.9  T
   5     -8.8255844 -0.308922E-06  0.396E-03    1.30      14.6  T
   6     -8.8255844 -0.865556E-08  0.545E-04    1.30     106.0  T
   7     -8.8255844 -0.333653E-10  0.251E-04    1.30     229.9  T
     SCC iter.                  ...        0 min,  0.000 sec
     gradient                   ...        0 min,  0.000 sec
 * total energy  :    -8.7811690 Eh     change       -0.5902162E-04 Eh
   gradient norm :     0.0013947 Eh/α   predicted    -0.5461868E-04 (  -7.46%)
   displ. norm   :     0.0017501 α      lambda       -0.1506082E-05
   maximum displ.:     0.0016256 α      in ANC's #3, #1, #2, ...

........................................................................
.............................. CYCLE    6 ..............................
........................................................................
   1     -8.8256972 -0.882570E+01  0.207E-02    1.30       0.0  T
   2     -8.8256969  0.311661E-06  0.216E-02    1.29       2.7  T
   3     -8.8256984 -0.146098E-05  0.709E-03    1.29       8.1  T
   4     -8.8256984 -0.282215E-08  0.147E-03    1.29      39.3  T
   5     -8.8256984 -0.257146E-08  0.703E-04    1.29      82.1  T
   6     -8.8256984 -0.280151E-09  0.100E-04    1.29     574.7  T
     SCC iter.                  ...        0 min,  0.000 sec
     gradient                   ...        0 min,  0.000 sec
 * total energy  :    -8.7811697 Eh     change       -0.6962537E-06 Eh
   gradient norm :     0.0005939 Eh/α   predicted    -0.7542957E-06 (   8.34%)
   displ. norm   :     0.0005078 α      lambda       -0.2001905E-06
   maximum displ.:     0.0003823 α      in ANC's #3, #2, #1, ...

   *** GEOMETRY OPTIMIZATION CONVERGED AFTER 6 ITERATIONS ***

------------------------------------------------------------------------
 total energy gain   :        -0.0355563 Eh      -22.3119 kcal/mol
 total RMSD          :         0.1994321 a0        0.1055 Å
 total power (kW/mol):       -15.5588237 (step)********** (real)
------------------------------------------------------------------------

 ANCopt (total)                0 d,  0 h,  0 min,  0.009 sec
 optimizer setup                ...        0 min,  0.000 sec (  0.727%)
 model hessian                  ...        0 min,  0.000 sec (  0.432%)
 ANC generation                 ...        0 min,  0.000 sec (  0.372%)
 coordinate transformation      ...        0 min,  0.000 sec (  0.142%)
 single point calculation       ...        0 min,  0.008 sec ( 93.651%)
 optimization log               ...        0 min,  0.000 sec (  1.199%)
 hessian update                 ...        0 min,  0.000 sec (  0.134%)
 rational function              ...        0 min,  0.000 sec (  1.146%)

================
 final structure:
================
3
 xtb: 6.2.2 (9d81278992624c895f80dd42a50cac0aa55982e2)
N        -0.05244235566462    0.40795470525149    0.00000000000000
O        -1.08827031210759   -0.21423989552127   -0.00000000000000
C         1.14071266777222   -0.19371580973022    0.00000000000000

 Bond Distances (Angstroems)
 ---------------------------
N1-O2=1.2083         N1-C3=1.3363         O2-N1=1.2083         C3-N1=1.3363         
 N  C  Rav=1.3363 sigma=0.0000  Rmin=1.3363  Rmax=1.3363     1
 O  N  Rav=1.2083 sigma=0.0000  Rmin=1.2083  Rmax=1.2083     1

 selected bond angles (degree)
 --------------------
C3-N1-O2=122.25                

 selected dihedral angles (degree)
 ---------------------------------

           -------------------------------------------------
          |                Final Singlepoint                |
           -------------------------------------------------

          ...................................................
          :                      SETUP                      :
          :.................................................:
          :  # basis functions                  12          :
          :  # atomic orbitals                  12          :
          :  # shells                            6          :
          :  # electrons                        15          :
          :  max. iterations                   250          :
          :  Hamiltonian                  GFN2-xTB          :
          :  restarted?                      false          :
          :  GBSA solvation                  false          :
          :  PC potential                    false          :
          :  electronic temp.          300.0000000     K    :
          :  accuracy                    1.0000000          :
          :  -> integral cutoff          0.2500000E+02      :
          :  -> integral neglect         0.1000000E-07      :
          :  -> SCF convergence          0.1000000E-05 Eh   :
          :  -> wf. convergence          0.1000000E-03 e    :
          :  Broyden damping             0.4000000          :
          ...................................................

 iter      E             dE          RMSdq      gap      omega  full diag
   1     -8.8256984 -0.882570E+01  0.144E-05    1.29       0.0  T
   2     -8.8256984 -0.230926E-13  0.930E-06    1.29    6205.4  T
   3     -8.8256984  0.550671E-13  0.442E-06    1.29   13062.8  T

   *** convergence criteria satisfied after 3 iterations ***

         #    Occupation            Energy/Eh            Energy/eV
      -------------------------------------------------------------
         1        2.0000           -0.8105851             -22.0571
       ...           ...                  ...                  ...
         3        2.0000           -0.6618443             -18.0097
         4        2.0000           -0.6430504             -17.4983
         5        2.0000           -0.6093256             -16.5806
         6        2.0000           -0.5199958             -14.1498
         7        1.0000           -0.4573569             -12.4453
         8        1.0000           -0.4339053             -11.8072
         9        1.0000           -0.3516735              -9.5695 (HOMO)
        10                         -0.3041085              -8.2752 (LUMO)
        11                          0.1595988               4.3429
        12                          0.3429001               9.3308
      -------------------------------------------------------------
                  HL-Gap            0.0475650 Eh            1.2943 eV
             Fermi-level           -0.4082399 Eh          -11.1088 eV

 SCC (total)                   0 d,  0 h,  0 min,  0.001 sec
 SCC setup                      ...        0 min,  0.000 sec (  4.333%)
 Dispersion                     ...        0 min,  0.000 sec (  0.363%)
 integral evaluation            ...        0 min,  0.001 sec ( 39.962%)
 zeroth order Hamiltonian       ...        0 min,  0.000 sec (  0.414%)
 iterations                     ...        0 min,  0.000 sec ( 15.553%)
 molecular gradient             ...        0 min,  0.000 sec ( 34.593%)
 printout                       ...        0 min,  0.000 sec (  4.074%)

         :::::::::::::::::::::::::::::::::::::::::::::::::::::
         ::                     SUMMARY                     ::
         :::::::::::::::::::::::::::::::::::::::::::::::::::::
         :: total energy              -8.781169686727 Eh    ::
         :: gradient norm              0.000594131345 Eh/a0 ::
         :: HOMO-LUMO gap              1.294310070142 eV    ::
         ::.................................................::
         :: SCC energy                -8.825698375664 Eh    ::
         :: -> isotropic ES           -0.005606056645 Eh    ::
         :: -> anisotropic ES          0.002273012832 Eh    ::
         :: -> anisotropic XC          0.003973272671 Eh    ::
         :: -> dispersion             -0.000795369639 Eh    ::
         :: repulsion energy           0.044528689281 Eh    ::
         :: add. restraining           0.000000000000 Eh    ::
         :::::::::::::::::::::::::::::::::::::::::::::::::::::

           ------------------------------------------------- 
          |                Numerical Hessian                |
           ------------------------------------------------- 
step length          :   0.00500
SCC accuracy         :   0.30000
Hessian scale factor :   1.00000
frozen atoms in %    :   0.00000    0
RMS gradient         :   0.00059
estimated CPU  time      0.00 min
estimated wall time      0.00 min

writing file <hessian>.

 projected vibrational frequencies (cm-1)
eigval :       -0.00    -0.00     0.00     0.00     0.00     0.00
eigval :      567.07  1254.48  1497.76
           -------------------------------------------------
          |                Property Printout                |
           -------------------------------------------------

    * Orbital Energies and Occupations

         #    Occupation            Energy/Eh            Energy/eV
      -------------------------------------------------------------
         1        2.0000           -0.8105850             -22.0571
         2        2.0000           -0.7192418             -19.5716
         3        2.0000           -0.6618443             -18.0097
         4        2.0000           -0.6430503             -17.4983
         5        2.0000           -0.6093256             -16.5806
         6        2.0000           -0.5199959             -14.1498
         7        1.0000           -0.4573570             -12.4453
         8        1.0000           -0.4339053             -11.8072
         9        1.0000           -0.3516736              -9.5695 (HOMO)
        10                         -0.3041086              -8.2752 (LUMO)
        11                          0.1595987               4.3429
        12                          0.3429000               9.3308
      -------------------------------------------------------------
                  HL-Gap            0.0475651 Eh            1.2943 eV
             Fermi-level           -0.4082400 Eh          -11.1088 eV

     #   Z        covCN         q      C6AA      α(0)
     1   7 N      1.833     0.244    17.847     6.260
     2   8 O      0.934    -0.126    16.881     5.510
     3   6 C      0.921    -0.118    39.250    10.490

 Mol. C6AA /au·bohr⁶  :        211.522506
 Mol. C8AA /au·bohr⁸  :       5144.562226
 Mol. α(0) /au        :         22.260793


Wiberg/Mayer (AO) data.
largest (>0.10) Wiberg bond orders for each atom
          total WBO             WBO to atom ...
     1  N   2.861        O    2 1.589    C    3 1.272
     2  O   1.675        N    1 1.589
     3  C   1.357        N    1 1.272

MOs/occ written to file <molden.input>


molecular dipole:
                 x           y           z       tot (Debye)
 q only:       -0.018       0.282      -0.000
   full:       -0.188       0.330       0.000       0.965
molecular quadrupole (traceless):
                xx          xy          yy          xz          yz          zz
 q only:       -1.133      -0.046       0.648       0.000      -0.000       0.485
  q+dip:       -2.376       0.034       0.971       0.000       0.000       1.405
   full:       -2.935       0.278       0.478       0.000       0.000       2.457

           -------------------------------------------------
          |                Geometry Summary                 |
           -------------------------------------------------

      molecular mass/u    :       42.0168440
   center of mass at/Å    :       -0.1058010      -0.0009581       0.0000004
  moments of inertia/u·Å² :        0.3496660E+01   0.3416494E+02   0.3766160E+02
rotational constants/cm⁻¹ :        0.4821067E+01   0.4934191E+00   0.4476080E+00

 * 1 selected distances

     #   Z        #   Z                                     value/Å
     1   7 N      2   8 O                                 1.2083318 (max)

 * 1 distinct bonds (by element types)

   Z      Z             #   av. dist./Å        max./Å        min./Å
   7 N    8 O           1     1.2083318     1.2083318     1.2083318

           -------------------------------------------------
          |               Frequency Printout                |
           -------------------------------------------------
 projected vibrational frequencies (cm-1)
eigval :       -0.00    -0.00     0.00     0.00     0.00     0.00
eigval :      567.07  1254.48  1497.76
 reduced masses (amu)
   1: 15.45   2: 12.68   3: 13.34   4: 15.46   5: 13.80   6: 13.53   7: 13.85   8: 12.96
   9: 14.98
 IR intensities (amu)
   1:  0.08   2:  0.02   3:  0.34   4:  0.10   5:  0.08   6:  0.05   7:  0.29   8:  0.64
   9:  1.51
 Raman intensities (amu)
   1:  0.00   2:  0.00   3:  0.00   4:  0.00   5:  0.00   6:  0.00   7:  0.00   8:  0.00
Molecule has the following symmetry elements: (sigma) 
It seems to be the Cs point group
   9:  0.00
 output can be read by thermo (or use thermo option).
 writing <g98.out> molden fake output.
 recommended (thermochemical) frequency scaling factor: 1.0
           -------------------------------------------------
          |             Thermodynamic Functions             |
           -------------------------------------------------

cs  symmetry found (for desy threshold:  0.10E+00) used in thermo

          ...................................................
          :                      SETUP                      :
          :.................................................:
          :  # frequencies                           3      :
          :  # imaginary freq.                       0      :
          :  linear?                             false      :
          :  only rotor calc.                    false      :
          :  symmetry                               cs      :
          :  rotational number                       1      :
          :  scaling factor                  1.0000000      :
          :  rotor cutoff                   50.0000000 cm⁻¹ :
          :  imag. cutoff                  -20.0000000 cm⁻¹ :
          :.................................................:

    mode    ω/cm⁻¹     T·S(HO)/kcal·mol⁻¹    T·S(FR)/kcal·mol⁻¹   T·S(vib)
   ------------------------------------------------------------------------
   ------------------------------------------------------------------------

   temp. (K)  partition function   enthalpy   heat capacity  entropy
                                   cal/mol     cal/K/mol   cal/K/mol   J/K/mol
 298.15  VIB   1.07                  123.897      1.350      0.555
         ROT  0.512E+04              888.752      2.981     19.955
         INT  0.550E+04             1012.649      4.331     20.510
         TR   0.264E+27             1481.254      4.968     37.117
         TOT                        2493.9031     9.2989    57.6268   241.1105

   temp. (K)  partition function   enthalpy   heat capacity  entropy
                                   cal/mol     cal/K/mol   cal/K/mol   J/K/mol
 120.00  VIB   1.00                    1.811      0.103      0.017
         ROT  0.131E+04              357.707      2.981     17.243
         INT  0.131E+04              359.517      3.084     17.260
         TR   0.673E+26              596.178      4.968     32.597
         TOT                         955.6955     8.0518    49.8570   208.6018

   temp. (K)  partition function   enthalpy   heat capacity  entropy
                                   cal/mol     cal/K/mol   cal/K/mol   J/K/mol
 100.00  VIB   1.00                    0.464      0.038      0.005
         ROT   995.                  298.089      2.981     16.699
         INT   996.                  298.553      3.019     16.704
         TR   0.512E+26              496.815      4.968     31.692
         TOT                         795.3682     7.9869    48.3961   202.4892

   temp. (K)  partition function   enthalpy   heat capacity  entropy
                                   cal/mol     cal/K/mol   cal/K/mol   J/K/mol
  80.00  VIB   1.00                    0.060      0.008      0.001
         ROT   712.                  238.471      2.981     16.034
         INT   712.                  238.532      2.989     16.035
         TR   0.366E+26              397.452      4.968     30.584
         TOT                         635.9836     7.9567    46.6185   195.0516

   temp. (K)  partition function   enthalpy   heat capacity  entropy
                                   cal/mol     cal/K/mol   cal/K/mol   J/K/mol
  60.00  VIB   1.00                    0.002      0.000      0.000
         ROT   463.                  178.853      2.981     15.176
         INT   463.                  178.855      2.981     15.176
         TR   0.238E+26              298.089      4.968     29.155
         TOT                         476.9444     7.9495    44.3315   185.4832

   temp. (K)  partition function   enthalpy   heat capacity  entropy
                                   cal/mol     cal/K/mol   cal/K/mol   J/K/mol
  40.00  VIB   1.00                    0.000      0.000     -0.000
         ROT   252.                  119.236      2.981     13.968
         INT   252.                  119.236      2.981     13.968
         TR   0.129E+26              198.726      4.968     27.142
         TOT                         317.9616     7.9490    41.1094   172.0018

   temp. (K)  partition function   enthalpy   heat capacity  entropy
                                   cal/mol     cal/K/mol   cal/K/mol   J/K/mol
  20.00  VIB   1.00                    0.000      0.000     -0.000
         ROT   89.0                   59.618      2.981     11.901
         INT   89.0                   59.618      2.981     11.901
         TR   0.458E+25               99.363      4.968     23.700
         TOT                         158.9808     7.9490    35.6012   148.9554

   temp. (K)  partition function   enthalpy   heat capacity  entropy
                                   cal/mol     cal/K/mol   cal/K/mol   J/K/mol
  10.00  VIB   1.00                    0.000      0.000     -0.000
         ROT   31.5                   29.809      2.981      9.835
         INT   31.5                   29.809      2.981      9.835
         TR   0.162E+25               49.681      4.968     20.258
         TOT                          79.4904     7.9490    30.0930   125.9090

       T/K    H(0)-H(T)+PV         H(T)/Eh          T*S/Eh         G(T)/Eh
   ------------------------------------------------------------------------
    298.15    0.397429E-02    0.115362E-01    0.273804E-01   -0.158441E-01
    120.00    0.152300E-02    0.908495E-02    0.953427E-02   -0.449322E-03
    100.00    0.126750E-02    0.882945E-02    0.771241E-02    0.111704E-02
     80.00    0.101350E-02    0.857545E-02    0.594330E-02    0.263215E-02
     60.00    0.760059E-03    0.832201E-02    0.423881E-02    0.408320E-02
     40.00    0.506704E-03    0.806865E-02    0.262048E-02    0.544817E-02
     20.00    0.253352E-03    0.781530E-02    0.113468E-02    0.668062E-02
     10.00    0.126676E-03    0.768862E-02    0.479562E-03    0.720906E-02 (used)
   ------------------------------------------------------------------------

         :::::::::::::::::::::::::::::::::::::::::::::::::::::
         ::                  THERMODYNAMIC                  ::
         :::::::::::::::::::::::::::::::::::::::::::::::::::::
         :: total free energy          -8.773960624758 Eh   ::
         ::.................................................::
         :: total energy               -8.781169686680 Eh   ::
         :: zero point energy           0.007561947937 Eh   ::
         :: G(RRHO) w/o ZPVE           -0.000352886015 Eh   ::
         :: G(RRHO) contrib.            0.007209061922 Eh   ::
         :::::::::::::::::::::::::::::::::::::::::::::::::::::

optimized geometry written to: xtbopt.xyz


           -------------------------------------------------
          | TOTAL ENERGY               -8.781169686680 Eh   |
          | TOTAL ENTHALPY             -8.773481062727 Eh   |
          | TOTAL FREE ENERGY          -8.773960624758 Eh   |
          | GRADIENT NORM               0.000593762885 Eh/α |
          | HOMO-LUMO GAP               1.294311111244 eV   |
           -------------------------------------------------

------------------------------------------------------------------------
 * finished run on 2020/05/12 at 11:44:41.196     
------------------------------------------------------------------------
 total:
 * wall-time:     0 d,  0 h,  0 min,  0.053 sec
 *  cpu-time:     0 d,  0 h,  0 min,  0.053 sec
 * ratio c/w:     1.000 speedup
 SCF:
 * wall-time:     0 d,  0 h,  0 min,  0.002 sec
 *  cpu-time:     0 d,  0 h,  0 min,  0.002 sec
 * ratio c/w:     1.000 speedup
 ANC optimizer:
 * wall-time:     0 d,  0 h,  0 min,  0.011 sec
 *  cpu-time:     0 d,  0 h,  0 min,  0.011 sec
 * ratio c/w:     0.999 speedup
 numerical hessian:
 * wall-time:     0 d,  0 h,  0 min,  0.025 sec
 *  cpu-time:     0 d,  0 h,  0 min,  0.025 sec
 * ratio c/w:     1.000 speedup

