$hessian                                                                        
        0.6261240512   0.0921288467  -0.0000023464  -0.4193555462  -0.2221865189
        0.0000018516  -0.2067685051   0.1300576722   0.0000004948
        0.0921288467   0.4015546289  -0.0000010224  -0.2862337659  -0.2424508255
        0.0000014223   0.1941049192  -0.1591038034  -0.0000003999
       -0.0000023464  -0.0000010224   0.0000000000   0.0000019634   0.0000011987
       -0.0000000000   0.0000003830  -0.0000001763  -0.0000000000
       -0.4193555462  -0.2862337659   0.0000019634   0.5479072836   0.2714582027
       -0.0000023863  -0.1285517374   0.0147755632   0.0000004229
       -0.2221865189  -0.2424508255   0.0000011987   0.2714582027   0.1922551085
       -0.0000012831  -0.0492716838   0.0501957170   0.0000000844
        0.0000018516   0.0000014223  -0.0000000000  -0.0000023863  -0.0000012831
        0.0000000000   0.0000005347  -0.0000001392  -0.0000000000
       -0.2067685051   0.1941049192   0.0000003830  -0.1285517374  -0.0492716838
        0.0000005347   0.3353202425  -0.1448332354  -0.0000009177
        0.1300576722  -0.1591038034  -0.0000001763   0.0147755632   0.0501957170
       -0.0000001392  -0.1448332354   0.1089080863   0.0000003155
        0.0000004948  -0.0000003999  -0.0000000000   0.0000004229   0.0000000844
       -0.0000000000  -0.0000009177   0.0000003155   0.0000000000
