[Molden Format]
[Title]
[Atoms] AU
N      1     7 -0.99097643803188E-01  0.77092311153507E+00 -0.99958362872567E-06
O      2     8 -0.20565347684105E+01 -0.40484392195533E+00  0.78852579117040E-05
C      3     6  0.21556324122038E+01 -0.36608107930569E+00 -0.68856709849265E-05
[GTO]
           1 0
 s           4   1.0000000000000000     
   63.594024466941008      -0.19234388414721629     
   10.951417231523665      -0.23478107924953728     
  0.87999310257376984       0.37593753901700888     
  0.33538715296521110       0.14982889271862770     
 p           4   1.0000000000000000     
   7.2965040481495080       0.97658666315667420     
   1.8918745450712575       0.90372226730345739     
  0.66694432110824120       0.47404958461536373     
  0.26552202674130870        7.1516067715011844E-002

           2 0
 s           4   1.0000000000000000     
   69.137961906196551      -0.20478756370077797     
   11.906129132707308      -0.24997023136827334     
  0.95670827744340703       0.40025880240639616     
  0.36462520496073686       0.15952206667693555     
 p           4   1.0000000000000000     
   8.2124193257781641        1.1321556799186829     
   2.1293576997098116        1.0476840782254817     
  0.75066448202360914       0.54956508217158984     
  0.29885246543283073        8.2908486592766617E-002

           3 0
 s           4   1.0000000000000000     
   51.049363095579913      -0.16312063210127389     
   8.7911227406887544      -0.19911024581000730     
  0.70640422258929825       0.31882047753655751     
  0.26922813413411617       0.12706504184240380     
 p           4   1.0000000000000000     
   5.8263656140800002       0.73716451545209605     
   1.5106896018720002       0.68216371614850257     
  0.53256483288000001       0.35783053929253711     
  0.21202323690600003        5.3983030275847881E-002

[MO]
Sym=     1a
Ene=  -0.81058500441751558     
Spin= Alpha
Occup=     2.00000000
           1  0.37491807979467107     
           2 -0.21329178577356711     
           3 -0.16355841816591640     
           4   1.0209215289577833E-006
           5  0.58747572714188068     
           6  0.23643744658451038     
           7  0.13041112059141721     
           8  -1.0901056231138587E-006
           9   5.8748237936918704E-002
          10  -5.5896983883763587E-002
          11   2.6912584678232495E-003
          12   1.8965013137893518E-007
Sym=     2a
Ene=  -0.71924176985078780     
Spin= Alpha
Occup=     2.00000000
           1 -0.39870968159867509     
           2 -0.31200868467860943     
           3  0.11198322823425132     
           4   8.6225866221715030E-007
           5  0.44812266268738604     
           6 -0.25812441967024263     
           7   2.9507285593990497E-002
           8   7.9848080022490480E-007
           9 -0.40733393896547532     
          10  0.15614757722445302     
          11  -7.0983025613858192E-002
          12  -4.3018879828208029E-007
Sym=     3a
Ene=  -0.66184429227059138     
Spin= Alpha
Occup=     2.00000000
           1  0.25096033220984998     
           2 -0.29787440174618607     
           3  0.26026047417347448     
           4   7.1466132013950293E-007
           5 -0.49623775359816308     
           6  0.24103726108015719     
           7  0.53715404650005494     
           8  -1.6081062828398417E-006
           9 -0.28286220348536240     
          10   4.5419302179450227E-002
          11   1.5538352129044839E-002
          12  -1.6089014006390478E-007
Sym=     4a
Ene=  -0.64305032744734203     
Spin= Alpha
Occup=     2.00000000
           1  -7.3406723517108497E-008
           2   2.1248937435394198E-006
           3   9.7321583675824771E-007
           4  0.59984791423008810     
           5   1.5461664546721326E-007
           6   2.2330868844598035E-006
           7   1.0086996796573410E-006
           8  0.65492528367845748     
           9   3.4829471569154969E-008
          10   5.3422995216948518E-007
          11   2.5096019271104099E-007
          12  0.15447689496900338     
Sym=     5a
Ene=  -0.60932555319832493     
Spin= Alpha
Occup=     2.00000000
           1  0.27411963974035181     
           2  0.18349727800909807     
           3  0.45345288231141850     
           4  -1.3964257668823815E-006
           5  0.26846994700608001     
           6 -0.57447521433923698     
           7  0.29604766136346022     
           8   1.4903149769072122E-006
           9  0.24104715809688992     
          10   2.9957057399897586E-002
          11  0.17870104045089824     
          12  -4.0485680855012027E-007
Sym=     6a
Ene=  -0.51999591363962450     
Spin= Alpha
Occup=     2.00000000
           1 -0.31905406666404140     
           2 -0.18370953808033330     
           3 -0.21309123455227066     
           4   9.9617676822795509E-007
           5  -6.0387519049701348E-002
           6  -3.7518915745352113E-002
           7  0.41774369844607800     
           8  -5.7720826128611752E-007
           9  0.68483904992340117     
          10  0.33124414447358663     
          11 -0.29973580958332713     
          12  -6.4327838711480282E-007
Sym=     7a
Ene=  -0.45735697098911382     
Spin= Alpha
Occup=     1.00000000
           1  -6.4316531088750627E-009
           2   1.6461287074671724E-006
           3   8.5113976611068172E-007
           4  0.47734815401762470     
           5  -2.9793003562274157E-008
           6  -2.3248322626236641E-006
           7  -1.1930264879442953E-006
           8 -0.67683371328271147     
           9   2.4258826632954601E-008
          10   2.1030221350077507E-006
          11   1.0316276432659010E-006
          12  0.59119110396936747     
Sym=     8a
Ene=  -0.43390530902812258     
Spin= Alpha
Occup=     1.00000000
           1  0.15283808109888750     
           2 -0.17726944528983965     
           3  0.46505185066813354     
           4  -2.1993705907055429E-007
           5   4.5333859875464184E-002
           6  0.36528552564086147     
           7 -0.51196076681248015     
           8  -3.4332223189424998E-007
           9  0.24600724515134964     
          10  0.57247943851616001     
          11  0.16519145208868474     
          12  -2.3199428038945824E-006
Sym=     9a
Ene=  -0.35167364389469596     
Spin= Alpha
Occup=     1.00000000
           1  0.30388077417593412     
           2  -6.5176495919738717E-002
           3  0.41660749621014770     
           4  -5.1421712224184733E-007
           5  -4.5182204050090657E-002
           6  -8.8934276433865603E-002
           7 -0.26956003105415555     
           8   7.7808629294661210E-007
           9   4.7348588067758907E-002
          10 -0.25318250958182797     
          11 -0.86599250064509115     
          12   2.4081260206257742E-006
Sym=    10a
Ene=  -0.30410858578147604     
Spin= Alpha
Occup=     0.00000000
           1  -1.1644171676462245E-009
           2  -2.4329401852865762E-006
           3  -1.2188487269690008E-006
           4 -0.69684199972043959     
           5   9.5498913470254060E-009
           6   1.3517134659962862E-006
           7   6.8395800342464403E-007
           8  0.38853933438450411     
           9  -3.4109615489056992E-009
          10   2.8395369166349653E-006
          11   1.4377543652206055E-006
          12  0.81317949306589610     
Sym=    11a
Ene=   0.15959873562054683     
Spin= Alpha
Occup=     0.00000000
           1  0.93340741265667926     
           2   6.8411379644957013E-002
           3 -0.67574991358660408     
           4   9.3919024777317530E-007
           5 -0.37229428431518241     
           6 -0.57241791271694087     
           7 -0.17786588572239051     
           8   2.3037481730391984E-006
           9 -0.44700162435547691     
          10  0.72728112304548087     
          11 -0.20550352409171421     
          12  -2.1792570527243437E-006
Sym=    12a
Ene=   0.34290004941802910     
Spin= Alpha
Occup=     0.00000000
           1  -9.8858100235442350E-002
           2   1.1350470127696659     
           3  0.13462001290681386     
           4  -4.1952051269503966E-006
           5  0.55890366234484679     
           6  0.55065372718277206     
           7  0.44380164253047155     
           8  -2.6945566454513480E-006
           9 -0.46277078846819769     
          10  0.49040867358424117     
          11 -0.40199938411742070     
          12  -1.0065188059422006E-006
