 Entering Gaussian System
 *********************************************
 Gaussian 98:
 frequency output generated by the xtb code
 *********************************************
                         Standard orientation:
 --------------------------------------------------------------------
  Center     Atomic     Atomic              Coordinates (Angstroms)
  Number     Number      Type              X           Y           Z
 --------------------------------------------------------------------
    1          6             0       -0.979872   -0.523471   -0.280293
    2          6             0       -0.006132    0.514867   -0.183579
    3          6             0        0.976871   -0.511295   -0.311504
    4          7             0        0.014414   -0.969971    0.525212
    5          1             0       -0.005282    1.489871    0.250163
 --------------------------------------------------------------------
     1 basis functions        1 primitive gaussians
     1 alpha electrons        1 beta electrons

 Harmonic frequencies (cm**-1), IR intensities (KM/Mole),
 Raman scattering activities (A**4/amu), Raman depolarization ratios,
 reduced masses (AMU), force constants (mDyne/A) and normal coordinates:
                      1                      2                      3
                        a                      a                      a 
 Frequencies --   605.7104               728.1752               732.4043
 Red. masses --    12.4518                11.2221                10.9235
 Frc consts  --     0.0000                 0.0000                 0.0000
 IR Inten    --     0.1812                 0.3903                 0.3610
 Raman Activ --     0.0000                 0.0000                 0.0000
 Depolar     --     0.0000                 0.0000                 0.0000
 Atom AN      X      Y      Z        X      Y      Z        X      Y      Z
   1   6    -0.26   0.16   0.42     0.06  -0.32   0.22    -0.43  -0.06  -0.01
   2   6    -0.01   0.07  -0.47     0.56   0.01  -0.01     0.01  -0.39   0.12
   3   6     0.27   0.17   0.41     0.03   0.32  -0.23     0.43  -0.05  -0.03
   4   7    -0.00  -0.35  -0.33    -0.51  -0.01   0.01    -0.01   0.53  -0.16
   5   1     0.00  -0.04   0.02    -0.34   0.00   0.00     0.00  -0.23   0.32
                      4                      5                      6
                        a                      a                      a 
 Frequencies --   822.5833               916.3638              1189.1176
 Red. masses --     4.9290                 3.6370                11.6927
 Frc consts  --     0.0000                 0.0000                 0.0000
 IR Inten    --     0.2532                 0.0214                 0.9149
 Raman Activ --     0.0000                 0.0000                 0.0000
 Depolar     --     0.0000                 0.0000                 0.0000
 Atom AN      X      Y      Z        X      Y      Z        X      Y      Z
   1   6     0.22  -0.15   0.01    -0.04  -0.32   0.01    -0.01  -0.41   0.17
   2   6    -0.01   0.30  -0.33     0.02  -0.00  -0.00    -0.00   0.47   0.19
   3   6    -0.22  -0.15   0.02    -0.04   0.31  -0.01     0.02  -0.41   0.17
   4   7     0.00   0.07   0.08    -0.18  -0.00   0.00    -0.01   0.27  -0.45
   5   1     0.01  -0.28   0.75     0.88   0.01  -0.01    -0.00   0.23  -0.16
                      7                      8                      9
                        a                      a                      a 
 Frequencies --  1330.2252              1471.2136              3195.2754
 Red. masses --    12.3640                12.2537                 1.9304
 Frc consts  --     0.0000                 0.0000                 0.0000
 IR Inten    --     0.5088                 0.4653                 0.0300
 Raman Activ --     0.0000                 0.0000                 0.0000
 Depolar     --     0.0000                 0.0000                 0.0000
 Atom AN      X      Y      Z        X      Y      Z        X      Y      Z
   1   6     0.47   0.13   0.22     0.44   0.11   0.22     0.01   0.00   0.00
   2   6    -0.48  -0.00   0.01     0.00  -0.47   0.00    -0.00  -0.27  -0.11
   3   6     0.47  -0.12  -0.23    -0.44   0.11   0.24    -0.01   0.00   0.00
   4   7    -0.44  -0.00   0.01    -0.01   0.27  -0.41    -0.00   0.00  -0.00
   5   1     0.06   0.00  -0.00    -0.00  -0.13  -0.07     0.00   0.88   0.38
