      -----------------------------------------------------------      
     |                   =====================                   |     
     |                           x T B                           |     
     |                   =====================                   |     
     |                         S. Grimme                         |     
     |          Mulliken Center for Theoretical Chemistry        |     
     |                    University of Bonn                     |     
      -----------------------------------------------------------      

   * xtb version 6.2.2 (9d81278992624c895f80dd42a50cac0aa55982e2) compiled by '@Darwin' on 04/03/2020

   xtb is free software: you can redistribute it and/or modify it under
   the terms of the GNU Lesser General Public License as published by
   the Free Software Foundation, either version 3 of the License, or
   (at your option) any later version.
   
   xtb is distributed in the hope that it will be useful,
   but WITHOUT ANY WARRANTY; without even the implied warranty of
   MERCHANTABILITY or FITNESS FOR A PARTICULAR PURPOSE.  See the
   GNU Lesser General Public License for more details.
   
   Cite this work as:
   * S. Grimme, C. Bannwarth, P. Shushkov, J. Chem. Theory Comput., 2017,
     13, 1989-2009. DOI: 10.1021/acs.jctc.7b00118
   * C. Bannwarth, S. Ehlert and S. Grimme., J. Chem. Theory Comput., 2019,
     15, 1652-1671. DOI: 10.1021/acs.jctc.8b01176
   * P. Pracht, E. Caldeweyher, S. Ehlert, S. Grimme, ChemRxiv, 2019, preprint.
     DOI: 10.26434/chemrxiv.8326202.v1
   
   for DFT-D4:
   * E. Caldeweyher, C. Bannwarth and S. Grimme, J. Chem. Phys., 2017,
     147, 034112. DOI: 10.1063/1.4993215
   * E. Caldeweyher, S. Ehlert, A. Hansen, H. Neugebauer, S. Spicher,
     C. Bannwarth and S. Grimme, J. Chem. Phys., 2019, 150, 154122.
     DOI: 10.1063/1.5090222
   
   for sTDA-xTB:
   * S. Grimme and C. Bannwarth, J. Chem. Phys., 2016, 145, 054103.
     DOI: 10.1063/1.4959605
   
   in the mass-spec context:
   * V. Asgeirsson, C. Bauer and S. Grimme, Chem. Sci., 2017, 8, 4879.
     DOI: 10.1039/c7sc00601b
   
   for metadynamics refer to:
   * S. Grimme, J. Chem. Theory Comput., 2019, 155, 2847-2862
     DOI: 10.1021/acs.jctc.9b00143
   
   with help from (in alphabetical order)
   C. Bannwarth, F. Bohle, G. Brandenburg, E. Caldeweyher, M. Checinski,
   S. Dohm, S. Ehlert, S. Ehrlich, F. März, H. Neugebauer, J. Pisarek,
   P. Pracht, P. Shushkov, and S. Spicher.
   
 * started run on 2020/05/12 at 11:44:07.986     

           -------------------------------------------------
          |                Calculation Setup                |
           -------------------------------------------------

          program call               : xtb --input C4N1_23_S_1.input C4N1_23_S_1.xyz --ohess --molden --namespace C4N1_23_S_1 output.out
          calculation namespace      : C4N1_23_S_1
          coordinate file            : C4N1_23_S_1.xyz
          number of atoms            :                     5
          number of electrons        :                    21
          charge                     :                     0
          spin                       :                   0.5
          first test random number   :      0.01539697491521

   ID    Z sym.   atoms
    1    7 N      1
    2    6 C      2-5

           -------------------------------------------------
          |                 G F N 2 - x T B                 |
           -------------------------------------------------

        Reference                      10.1021/acs.jctc.8b01176
      * Hamiltonian:
        H0-scaling (s, p, d)           1.850000    2.230000    2.230000
        zeta-weighting                 0.500000
      * Dispersion:
        s8                             2.700000
        a1                             0.520000
        a2                             5.000000
        s9                             5.000000
      * Repulsion:
        kExp                           1.500000    1.000000
        rExp                           1.000000
      * Coulomb:
        alpha                          2.000000
        third order                    shell-resolved
        anisotropic                    true
        a3                             3.000000
        a5                             4.000000
        cn-shift                       1.200000
        cn-exp                         4.000000
        max-rad                        5.000000


          ...................................................
          :                      SETUP                      :
          :.................................................:
          :  # basis functions                  20          :
          :  # atomic orbitals                  20          :
          :  # shells                           10          :
          :  # electrons                        21          :
          :  max. iterations                   250          :
          :  Hamiltonian                  GFN2-xTB          :
          :  restarted?                      false          :
          :  GBSA solvation                  false          :
          :  PC potential                    false          :
          :  electronic temp.          300.0000000     K    :
          :  accuracy                    1.0000000          :
          :  -> integral cutoff          0.2500000E+02      :
          :  -> integral neglect         0.1000000E-07      :
          :  -> SCF convergence          0.1000000E-05 Eh   :
          :  -> wf. convergence          0.1000000E-03 e    :
          :  Broyden damping             0.4000000          :
          ...................................................

 iter      E             dE          RMSdq      gap      omega  full diag
   1    -10.8862670 -0.108863E+02  0.947E+00    0.07       0.0  T
   2    -10.1198377  0.766429E+00  0.117E+01    0.72       1.0  T
   3    -10.4064907 -0.286653E+00  0.999E+00    0.04       1.0  T
   4    -10.9578021 -0.551311E+00  0.517E+00    0.11       1.0  T
   5    -10.9689679 -0.111658E-01  0.380E+00    0.11       1.0  T
   6    -11.0186569 -0.496890E-01  0.257E+00    0.06       1.0  T
   7    -11.0209881 -0.233123E-02  0.236E+00    0.06       1.0  T
   8    -10.9823665  0.386216E-01  0.309E+00    0.11       1.0  T
   9    -11.0318320 -0.494655E-01  0.826E-01    0.04       1.0  T
  10    -11.0319633 -0.131326E-03  0.632E-01    0.02       1.0  T
  11    -11.0310505  0.912840E-03  0.730E-01    0.02       1.0  T
  12    -11.0302481  0.802384E-03  0.774E-01    0.04       1.0  T
  13    -11.0325628 -0.231469E-02  0.339E-01    0.03       1.0  T
  14    -11.0321639  0.398923E-03  0.440E-01    0.04       1.0  T
  15    -11.0328728 -0.708864E-03  0.140E-01    0.03       1.0  T
  16    -11.0329113 -0.385186E-04  0.102E-01    0.03       1.0  T
  17    -11.0329517 -0.404101E-04  0.150E-02    0.03       3.0  T
  18    -11.0329521 -0.445341E-06  0.608E-03    0.03       7.4  T
  19    -11.0329522 -0.848103E-07  0.167E-03    0.03      26.7  T
  20    -11.0329522 -0.926433E-08  0.659E-04    0.03      67.9  T
  21    -11.0329522 -0.807868E-09  0.350E-04    0.03     127.9  T

   *** convergence criteria satisfied after 21 iterations ***

         #    Occupation            Energy/Eh            Energy/eV
      -------------------------------------------------------------
         1        2.0000           -0.7166033             -19.4998
       ...           ...                  ...                  ...
         5        2.0000           -0.5848182             -15.9137
         6        2.0000           -0.5414211             -14.7328
         7        2.0000           -0.5044231             -13.7261
         8        2.0000           -0.4667662             -12.7014
         9        2.0000           -0.4618909             -12.5687
        10        1.9113           -0.4327205             -11.7749
        11        0.7083           -0.4279203             -11.6443 (HOMO)
        12        0.3803           -0.4268081             -11.6140 (LUMO)
        13        0.0000           -0.4129982             -11.2383
        14                         -0.3031971              -8.2504
        15                         -0.2810990              -7.6491
        16                          0.0124453               0.3387
       ...                                ...                  ...
        20                          0.1420550               3.8655
      -------------------------------------------------------------
                  HL-Gap            0.0011122 Eh            0.0303 eV
             Fermi-level           -0.4289107 Eh          -11.6713 eV

 SCC (total)                   0 d,  0 h,  0 min,  0.005 sec
 SCC setup                      ...        0 min,  0.000 sec (  1.382%)
 Dispersion                     ...        0 min,  0.000 sec (  0.428%)
 integral evaluation            ...        0 min,  0.001 sec ( 26.727%)
 zeroth order Hamiltonian       ...        0 min,  0.000 sec (  0.410%)
 iterations                     ...        0 min,  0.002 sec ( 42.408%)
 molecular gradient             ...        0 min,  0.001 sec ( 26.839%)
 printout                       ...        0 min,  0.000 sec (  1.601%)

         :::::::::::::::::::::::::::::::::::::::::::::::::::::
         ::                     SUMMARY                     ::
         :::::::::::::::::::::::::::::::::::::::::::::::::::::
         :: total energy             -10.965203452174 Eh    ::
         :: gradient norm              0.238112317125 Eh/a0 ::
         :: HOMO-LUMO gap              0.030264489543 eV    ::
         ::.................................................::
         :: SCC energy               -11.032952220353 Eh    ::
         :: -> isotropic ES           -0.005507255820 Eh    ::
         :: -> anisotropic ES          0.000057397545 Eh    ::
         :: -> anisotropic XC          0.009357350707 Eh    ::
         :: -> dispersion             -0.003019433144 Eh    ::
         :: repulsion energy           0.067748698564 Eh    ::
         :: add. restraining           0.000000000000 Eh    ::
         :::::::::::::::::::::::::::::::::::::::::::::::::::::

      ----------------------------------------------------------- 
     |                   =====================                   |
     |                        A N C O P T                        |
     |                   =====================                   |
     |               Approximate Normal Coordinate               |
     |                Rational Function Optimizer                |
      ----------------------------------------------------------- 

          ...................................................
          :                      SETUP                      :
          :.................................................:
          :   optimization level            normal          :
          :   max. optcycles                   200          :
          :   ANC micro-cycles                  20          :
          :   degrees of freedom                 9          :
          :.................................................:
          :   RF solver                   davidson          :
          :   write xtbopt.log                true          :
          :   linear?                        false          :
          :   energy convergence         0.5000000E-05 Eh   :
          :   grad. convergence          0.1000000E-02 Eh/α :
          :   maximium RF displ.         1.0000000          :
          :   Hlow (freq-cutoff)         0.1000000E-01      :
          :   Hmax (freq-cutoff)         5.0000000          :
          :   S6 in model hess.         20.0000000          :
          ...................................................

generating ANC from model Hessian ...
Using Lindh-Hessian (1995)
 Shifting diagonal of input Hessian by    0.0000000000000000     
 Lowest  eigenvalues of input Hessian
   -0.000000   -0.000000    0.000000    0.000000    0.000000    0.000000
    0.025708    0.043075    0.161048    0.195868    0.671509    0.822246
    0.897333    1.078934    1.190542
 Highest eigenvalues
    0.195868    0.671509    0.822246    0.897333    1.078934    1.190542


........................................................................
.............................. CYCLE    1 ..............................
........................................................................
   1    -11.0329522 -0.110330E+02  0.294E-04    0.03       0.0  T
   2    -11.0329522  0.108880E-07  0.139E-03    0.03      32.1  T
   3    -11.0329522 -0.556371E-08  0.946E-04    0.03      47.3  T
   4    -11.0329522 -0.565451E-08  0.975E-05    0.03     458.8  T
     SCC iter.                  ...        0 min,  0.001 sec
     gradient                   ...        0 min,  0.001 sec
 * total energy  :   -10.9652035 Eh     change       -0.8281198E-10 Eh
   gradient norm :     0.2381138 Eh/α   predicted     0.0000000E+00 (-100.00%)
   displ. norm   :     0.3468627 α      lambda       -0.7752080E-01
   maximum displ.:     0.2883216 α      in ANC's #5, #4, #8, ...

........................................................................
.............................. CYCLE    2 ..............................
........................................................................
   1    -11.1521368 -0.111521E+02  0.246E+00    0.04       0.0  T
   2    -11.1369871  0.151497E-01  0.227E+00    0.01       1.0  T
   3    -11.1142965  0.226906E-01  0.270E+00    0.03       1.0  T
   4    -11.1469932 -0.326967E-01  0.104E+00    0.04       1.0  T
   5    -11.1517967 -0.480344E-02  0.806E-01    0.06       1.0  T
   6    -11.1541937 -0.239702E-02  0.464E-01    0.05       1.0  T
   7    -11.1548623 -0.668619E-03  0.255E-01    0.05       1.0  T
   8    -11.1547435  0.118804E-03  0.144E-01    0.05       1.0  T
   9    -11.1549099 -0.166357E-03  0.234E-02    0.05       1.9  T
  10    -11.1549108 -0.970623E-06  0.137E-02    0.05       3.3  T
  11    -11.1549111 -0.273349E-06  0.380E-03    0.05      11.8  T
  12    -11.1549111 -0.201360E-07  0.887E-04    0.05      50.4  T
  13    -11.1549111 -0.524253E-09  0.187E-04    0.05     239.0  T
     SCC iter.                  ...        0 min,  0.001 sec
     gradient                   ...        0 min,  0.001 sec
 * total energy  :   -11.0336944 Eh     change       -0.6849098E-01 Eh
   gradient norm :     0.1493975 Eh/α   predicted    -0.4342380E-01 ( -36.60%)
   displ. norm   :     0.7027205 α      lambda       -0.9596741E-01
   maximum displ.:     0.5287602 α      in ANC's #4, #5, #2, ...

........................................................................
.............................. CYCLE    3 ..............................
........................................................................
   1    -11.3004608 -0.113005E+02  0.426E+00    0.15       0.0  T
   2    -11.3063809 -0.592012E-02  0.242E+00    0.15       1.0  T
   3    -11.2925624  0.138185E-01  0.167E+00    0.13       1.0  T
   4    -11.2880736  0.448882E-02  0.177E+00    0.21       1.0  T
   5    -11.3095635 -0.214899E-01  0.220E-01    0.16       1.0  T
   6    -11.3093113  0.252209E-03  0.278E-01    0.15       1.0  T
   7    -11.3096125 -0.301237E-03  0.730E-02    0.15       1.0  T
   8    -11.3096346 -0.220231E-04  0.958E-03    0.15       4.7  T
   9    -11.3096346 -0.699767E-07  0.633E-03    0.15       7.1  T
  10    -11.3096348 -0.199161E-06  0.152E-03    0.15      29.5  T
  11    -11.3096348 -0.479977E-08  0.363E-04    0.15     123.4  T
  12    -11.3096348 -0.368701E-10  0.331E-05    0.15    1350.2  T
     SCC iter.                  ...        0 min,  0.001 sec
     gradient                   ...        0 min,  0.002 sec
 * total energy  :   -11.0223850 Eh     change        0.1130940E-01 Eh
   gradient norm :     0.4581482 Eh/α   predicted    -0.7167884E-01 (-733.80%)
   displ. norm   :     0.2701465 α      lambda       -0.1136243E+00
   maximum displ.:     0.1999828 α      in ANC's #5, #8, #7, ...

........................................................................
.............................. CYCLE    4 ..............................
........................................................................
   1    -11.2364155 -0.112364E+02  0.214E+00    0.36       0.0  T
   2    -11.1797524  0.566631E-01  0.314E+00    0.38       1.0  T
   3    -11.2439222 -0.641698E-01  0.104E+00    0.35       1.0  T
   4    -11.2465958 -0.267361E-02  0.289E-01    0.35       1.0  T
   5    -11.2470566 -0.460862E-03  0.772E-02    0.35       1.0  T
   6    -11.2470576 -0.927107E-06  0.208E-02    0.35       2.2  T
   7    -11.2470515  0.609876E-05  0.365E-02    0.35       1.2  T
   8    -11.2470601 -0.865816E-05  0.361E-03    0.35      12.4  T
   9    -11.2470601 -0.194545E-07  0.808E-04    0.35      55.3  T
  10    -11.2470601 -0.187984E-08  0.524E-04    0.35      85.3  T
     SCC iter.                  ...        0 min,  0.001 sec
     gradient                   ...        0 min,  0.001 sec
 * total energy  :   -11.0736817 Eh     change       -0.5129662E-01 Eh
   gradient norm :     0.0553743 Eh/α   predicted    -0.6095827E-01 (  18.83%)
   displ. norm   :     0.2852029 α      lambda       -0.7729114E-02
   maximum displ.:     0.2583724 α      in ANC's #2, #4, #8, ...

........................................................................
.............................. CYCLE    5 ..............................
........................................................................
   1    -11.2433941 -0.112434E+02  0.184E+00    0.66       0.0  T
   2    -11.2364611  0.693297E-02  0.147E+00    0.69       1.0  T
   3    -11.2124356  0.240254E-01  0.218E+00    0.62       1.0  T
   4    -11.2438434 -0.314077E-01  0.294E-01    0.67       1.0  T
   5    -11.2445123 -0.668925E-03  0.517E-02    0.67       1.0  T
   6    -11.2445130 -0.682050E-06  0.333E-02    0.67       1.3  T
   7    -11.2445049  0.807548E-05  0.345E-02    0.67       1.3  T
   8    -11.2445133 -0.842749E-05  0.322E-03    0.67      13.9  T
   9    -11.2445133 -0.218397E-07  0.107E-03    0.67      42.0  T
  10    -11.2445133 -0.496262E-08  0.378E-04    0.67     118.3  T
  11    -11.2445133 -0.670235E-09  0.117E-04    0.67     383.9  T
     SCC iter.                  ...        0 min,  0.001 sec
     gradient                   ...        0 min,  0.001 sec
 * total energy  :   -11.0763787 Eh     change       -0.2697004E-02 Eh
   gradient norm :     0.0401268 Eh/α   predicted    -0.4178903E-02 (  54.95%)
   displ. norm   :     0.1346297 α      lambda       -0.3711434E-02
   maximum displ.:     0.1181295 α      in ANC's #2, #7, #8, ...

........................................................................
.............................. CYCLE    6 ..............................
........................................................................
   1    -11.2554426 -0.112554E+02  0.837E-01    0.73       0.0  T
   2    -11.2487723  0.667029E-02  0.109E+00    0.74       1.0  T
   3    -11.2550026 -0.623032E-02  0.549E-01    0.73       1.0  T
   4    -11.2564329 -0.143032E-02  0.720E-02    0.73       1.0  T
   5    -11.2564471 -0.141723E-04  0.310E-02    0.73       1.4  T
   6    -11.2564519 -0.475580E-05  0.777E-03    0.73       5.8  T
   7    -11.2564521 -0.197021E-06  0.467E-03    0.73       9.6  T
   8    -11.2564521 -0.672762E-07  0.317E-03    0.73      14.1  T
   9    -11.2564522 -0.652210E-07  0.108E-03    0.73      41.6  T
  10    -11.2564522 -0.283226E-08  0.845E-05    0.73     529.2  T
  11    -11.2564522 -0.177582E-10  0.137E-05    0.73    3259.9  T
     SCC iter.                  ...        0 min,  0.001 sec
     gradient                   ...        0 min,  0.001 sec
 * total energy  :   -11.0780740 Eh     change       -0.1695359E-02 Eh
   gradient norm :     0.0214344 Eh/α   predicted    -0.1889352E-02 (  11.44%)
   displ. norm   :     0.0367496 α      lambda       -0.5768606E-03
   maximum displ.:     0.0309077 α      in ANC's #4, #8, #7, ...

........................................................................
.............................. CYCLE    7 ..............................
........................................................................
   1    -11.2545607 -0.112546E+02  0.391E-01    0.74       0.0  T
   2    -11.2536976  0.863119E-03  0.400E-01    0.74       1.0  T
   3    -11.2539834 -0.285795E-03  0.363E-01    0.74       1.0  T
   4    -11.2547095 -0.726055E-03  0.639E-02    0.74       1.0  T
   5    -11.2547331 -0.236880E-04  0.152E-02    0.74       3.0  T
   6    -11.2547327  0.395295E-06  0.157E-02    0.74       2.8  T
   7    -11.2547341 -0.132187E-05  0.613E-03    0.74       7.3  T
   8    -11.2547343 -0.190860E-06  0.612E-04    0.74      73.1  T
   9    -11.2547343 -0.201071E-09  0.413E-04    0.74     108.3  T
     SCC iter.                  ...        0 min,  0.001 sec
     gradient                   ...        0 min,  0.001 sec
 * total energy  :   -11.0783998 Eh     change       -0.3258220E-03 Eh
   gradient norm :     0.0067688 Eh/α   predicted    -0.2888190E-03 ( -11.36%)
   displ. norm   :     0.0191769 α      lambda       -0.7069403E-04
   maximum displ.:     0.0142598 α      in ANC's #2, #1, #4, ...

........................................................................
.............................. CYCLE    8 ..............................
........................................................................
   1    -11.2546575 -0.112547E+02  0.155E-01    0.76       0.0  T
   2    -11.2546189  0.385649E-04  0.125E-01    0.76       1.0  T
   3    -11.2545081  0.110744E-03  0.150E-01    0.76       1.0  T
   4    -11.2546557 -0.147515E-03  0.387E-02    0.76       1.2  T
   5    -11.2546659 -0.102582E-04  0.121E-02    0.76       3.7  T
   6    -11.2546663 -0.407630E-06  0.102E-02    0.76       4.4  T
   7    -11.2546669 -0.573800E-06  0.424E-03    0.76      10.6  T
   8    -11.2546670 -0.509776E-07  0.292E-04    0.76     153.0  T
   9    -11.2546670 -0.225278E-10  0.157E-04    0.76     284.6  T
     SCC iter.                  ...        0 min,  0.001 sec
     gradient                   ...        0 min,  0.001 sec
 * total energy  :   -11.0784445 Eh     change       -0.4462200E-04 Eh
   gradient norm :     0.0023941 Eh/α   predicted    -0.3536108E-04 ( -20.75%)
   displ. norm   :     0.0370737 α      lambda       -0.3600449E-04
   maximum displ.:     0.0351643 α      in ANC's #1, #2, #3, ...

........................................................................
.............................. CYCLE    9 ..............................
........................................................................
   1    -11.2542307 -0.112542E+02  0.237E-01    0.78       0.0  T
   2    -11.2541240  0.106688E-03  0.197E-01    0.78       1.0  T
   3    -11.2539524  0.171644E-03  0.232E-01    0.78       1.0  T
   4    -11.2541660 -0.213666E-03  0.115E-01    0.78       1.0  T
   5    -11.2542577 -0.916633E-04  0.223E-02    0.78       2.0  T
   6    -11.2542596 -0.194719E-05  0.161E-02    0.78       2.8  T
   7    -11.2542609 -0.130460E-05  0.492E-03    0.78       9.1  T
   8    -11.2542610 -0.960883E-07  0.577E-04    0.78      77.5  T
   9    -11.2542610 -0.684651E-09  0.287E-04    0.78     155.7  T
     SCC iter.                  ...        0 min,  0.001 sec
     gradient                   ...        0 min,  0.002 sec
 * total energy  :   -11.0785025 Eh     change       -0.5800912E-04 Eh
   gradient norm :     0.0054146 Eh/α   predicted    -0.1802538E-04 ( -68.93%)
   displ. norm   :     0.0958499 α      lambda       -0.2324953E-03
   maximum displ.:     0.0939704 α      in ANC's #1, #3, #2, ...

........................................................................
.............................. CYCLE   10 ..............................
........................................................................
   1    -11.2528339 -0.112528E+02  0.597E-01    0.83       0.0  T
   2    -11.2523473  0.486679E-03  0.462E-01    0.82       1.0  T
   3    -11.2508336  0.151369E-02  0.613E-01    0.84       1.0  T
   4    -11.2523534 -0.151982E-02  0.293E-01    0.83       1.0  T
   5    -11.2529738 -0.620449E-03  0.507E-02    0.83       1.0  T
   6    -11.2529874 -0.135731E-04  0.245E-02    0.83       1.8  T
   7    -11.2529899 -0.252588E-05  0.553E-03    0.83       8.1  T
   8    -11.2529900 -0.311059E-07  0.268E-03    0.83      16.7  T
   9    -11.2529900 -0.483345E-07  0.635E-04    0.83      70.5  T
  10    -11.2529900 -0.749537E-09  0.818E-05    0.83     546.5  T
     SCC iter.                  ...        0 min,  0.001 sec
     gradient                   ...        0 min,  0.001 sec
 * total energy  :   -11.0789346 Eh     change       -0.4321193E-03 Eh
   gradient norm :     0.0170785 Eh/α   predicted    -0.1173174E-03 ( -72.85%)
   displ. norm   :     0.2327494 α      lambda       -0.1533908E-02
   maximum displ.:     0.2277506 α      in ANC's #1, #3, #2, ...

........................................................................
.............................. CYCLE   11 ..............................
........................................................................
   1    -11.2451190 -0.112451E+02  0.142E+00    1.01       0.0  T
   2    -11.2421111  0.300789E-02  0.108E+00    0.99       1.0  T
   3    -11.2332477  0.886342E-02  0.146E+00    1.04       1.0  T
   4    -11.2441866 -0.109389E-01  0.483E-01    1.02       1.0  T
   5    -11.2457849 -0.159832E-02  0.134E-01    1.01       1.0  T
   6    -11.2458730 -0.880769E-04  0.508E-02    1.01       1.0  T
   7    -11.2458771 -0.410414E-05  0.369E-02    1.01       1.2  T
   8    -11.2458814 -0.427391E-05  0.672E-03    1.01       6.7  T
   9    -11.2458815 -0.159826E-06  0.193E-03    1.01      23.1  T
  10    -11.2458815 -0.103214E-07  0.201E-04    1.01     222.6  T
  11    -11.2458815 -0.456559E-10  0.101E-04    1.01     442.0  T
     SCC iter.                  ...        0 min,  0.001 sec
     gradient                   ...        0 min,  0.001 sec
 * total energy  :   -11.0809795 Eh     change       -0.2044930E-02 Eh
   gradient norm :     0.0430831 Eh/α   predicted    -0.8084995E-03 ( -60.46%)
   displ. norm   :     0.2364241 α      lambda       -0.3091329E-02
   maximum displ.:     0.2209900 α      in ANC's #1, #2, #3, ...

........................................................................
.............................. CYCLE   12 ..............................
........................................................................
   1    -11.2363425 -0.112363E+02  0.140E+00    1.22       0.0  T
   2    -11.2342531  0.208945E-02  0.979E-01    1.19       1.0  T
   3    -11.2231589  0.110941E-01  0.141E+00    1.27       1.0  T
   4    -11.2366250 -0.134661E-01  0.217E-01    1.22       1.0  T
   5    -11.2368840 -0.258991E-03  0.120E-01    1.21       1.0  T
   6    -11.2369576 -0.736523E-04  0.444E-02    1.22       1.0  T
   7    -11.2369516  0.602056E-05  0.364E-02    1.22       1.2  T
   8    -11.2369583 -0.668676E-05  0.761E-03    1.22       5.9  T
   9    -11.2369585 -0.238168E-06  0.287E-03    1.22      15.6  T
  10    -11.2369585 -0.222559E-07  0.282E-04    1.22     158.6  T
  11    -11.2369585 -0.333245E-11  0.147E-04    1.22     304.4  T
     SCC iter.                  ...        0 min,  0.001 sec
     gradient                   ...        0 min,  0.001 sec
 * total energy  :   -11.0830205 Eh     change       -0.2040983E-02 Eh
   gradient norm :     0.0551143 Eh/α   predicted    -0.1632059E-02 ( -20.04%)
   displ. norm   :     0.2400085 α      lambda       -0.7220274E-02
   maximum displ.:     0.1260428 α      in ANC's #3, #2, #5, ...

........................................................................
.............................. CYCLE   13 ..............................
........................................................................
   1    -11.2507651 -0.112508E+02  0.147E+00    1.52       0.0  T
   2    -11.2504246  0.340565E-03  0.875E-01    1.52       1.0  T
   3    -11.2449636  0.546096E-02  0.100E+00    1.47       1.0  T
   4    -11.2507595 -0.579593E-02  0.238E-01    1.53       1.0  T
   5    -11.2511703 -0.410765E-03  0.456E-02    1.51       1.0  T
   6    -11.2511698  0.473909E-06  0.137E-02    1.51       3.3  T
   7    -11.2511693  0.526215E-06  0.136E-02    1.50       3.3  T
   8    -11.2511707 -0.145784E-05  0.317E-03    1.51      14.1  T
   9    -11.2511708 -0.267664E-07  0.163E-03    1.51      27.5  T
  10    -11.2511708 -0.418484E-08  0.178E-04    1.51     250.6  T
  11    -11.2511708 -0.326921E-10  0.241E-05    1.51    1852.0  T
     SCC iter.                  ...        0 min,  0.001 sec
     gradient                   ...        0 min,  0.001 sec
 * total energy  :   -11.0863364 Eh     change       -0.3315916E-02 Eh
   gradient norm :     0.0308577 Eh/α   predicted    -0.3818095E-02 (  15.14%)
   displ. norm   :     0.0465484 α      lambda       -0.1090351E-02
   maximum displ.:     0.0280465 α      in ANC's #8, #2, #9, ...

........................................................................
.............................. CYCLE   14 ..............................
........................................................................
   1    -11.2552030 -0.112552E+02  0.452E-01    1.48       0.0  T
   2    -11.2551014  0.101636E-03  0.319E-01    1.50       1.0  T
   3    -11.2551257 -0.242601E-04  0.251E-01    1.49       1.0  T
   4    -11.2553030 -0.177318E-03  0.819E-02    1.49       1.0  T
   5    -11.2553524 -0.493891E-04  0.258E-02    1.49       1.7  T
   6    -11.2553556 -0.318729E-05  0.983E-03    1.49       4.5  T
   7    -11.2553547  0.822957E-06  0.109E-02    1.49       4.1  T
   8    -11.2553557 -0.954374E-06  0.969E-04    1.49      46.2  T
   9    -11.2553557 -0.340755E-09  0.373E-04    1.49     119.8  T
     SCC iter.                  ...        0 min,  0.001 sec
     gradient                   ...        0 min,  0.001 sec
 * total energy  :   -11.0870720 Eh     change       -0.7355660E-03 Eh
   gradient norm :     0.0166578 Eh/α   predicted    -0.5463578E-03 ( -25.72%)
   displ. norm   :     0.0766368 α      lambda       -0.7314421E-03
   maximum displ.:     0.0477284 α      in ANC's #1, #3, #9, ...

........................................................................
.............................. CYCLE   15 ..............................
........................................................................
   1    -11.2525671 -0.112526E+02  0.552E-01    1.53       0.0  T
   2    -11.2524605  0.106660E-03  0.377E-01    1.54       1.0  T
   3    -11.2519731  0.487328E-03  0.366E-01    1.54       1.0  T
   4    -11.2525879 -0.614791E-03  0.992E-02    1.53       1.0  T
   5    -11.2526656 -0.776724E-04  0.256E-02    1.54       1.7  T
   6    -11.2526634  0.216384E-05  0.241E-02    1.54       1.9  T
   7    -11.2526674 -0.393918E-05  0.458E-03    1.54       9.8  T
   8    -11.2526675 -0.849018E-07  0.156E-03    1.54      28.7  T
   9    -11.2526675 -0.397198E-08  0.540E-04    1.54      82.8  T
  10    -11.2526675 -0.902372E-10  0.134E-04    1.54     334.0  T
     SCC iter.                  ...        0 min,  0.001 sec
     gradient                   ...        0 min,  0.001 sec
 * total energy  :   -11.0873898 Eh     change       -0.3177916E-03 Eh
   gradient norm :     0.0113297 Eh/α   predicted    -0.3678702E-03 (  15.76%)
   displ. norm   :     0.0704565 α      lambda       -0.4659793E-03
   maximum displ.:     0.0456231 α      in ANC's #1, #3, #2, ...

........................................................................
.............................. CYCLE   16 ..............................
........................................................................
   1    -11.2583224 -0.112583E+02  0.473E-01    1.51       0.0  T
   2    -11.2579423  0.380025E-03  0.423E-01    1.55       1.0  T
   3    -11.2585450 -0.602675E-03  0.233E-01    1.51       1.0  T
   4    -11.2585051  0.399457E-04  0.155E-01    1.54       1.0  T
   5    -11.2586812 -0.176180E-03  0.220E-02    1.52       2.0  T
   6    -11.2586819 -0.658508E-06  0.178E-02    1.53       2.5  T
   7    -11.2586831 -0.117920E-05  0.901E-03    1.52       5.0  T
   8    -11.2586835 -0.446481E-06  0.119E-03    1.53      37.5  T
   9    -11.2586835 -0.109177E-08  0.537E-04    1.53      83.3  T
  10    -11.2586835 -0.300904E-09  0.653E-05    1.53     684.7  T
     SCC iter.                  ...        0 min,  0.001 sec
     gradient                   ...        0 min,  0.001 sec
 * total energy  :   -11.0875868 Eh     change       -0.1970470E-03 Eh
   gradient norm :     0.0125856 Eh/α   predicted    -0.2341463E-03 (  18.83%)
   displ. norm   :     0.0356834 α      lambda       -0.2161305E-03
   maximum displ.:     0.0327205 α      in ANC's #3, #2, #8, ...

........................................................................
.............................. CYCLE   17 ..............................
........................................................................
   1    -11.2570911 -0.112571E+02  0.189E-01    1.55       0.0  T
   2    -11.2570766  0.145303E-04  0.134E-01    1.56       1.0  T
   3    -11.2570232  0.533726E-04  0.116E-01    1.55       1.0  T
   4    -11.2570908 -0.676048E-04  0.419E-02    1.56       1.1  T
   5    -11.2571051 -0.142437E-04  0.590E-03    1.56       7.6  T
   6    -11.2571048  0.246421E-06  0.686E-03    1.56       6.5  T
   7    -11.2571051 -0.310413E-06  0.712E-04    1.56      62.8  T
   8    -11.2571051 -0.921816E-09  0.387E-04    1.56     115.7  T
     SCC iter.                  ...        0 min,  0.001 sec
     gradient                   ...        0 min,  0.001 sec
 * total energy  :   -11.0877661 Eh     change       -0.1792870E-03 Eh
   gradient norm :     0.0079041 Eh/α   predicted    -0.1082022E-03 ( -39.65%)
   displ. norm   :     0.1392471 α      lambda       -0.5032341E-03
   maximum displ.:     0.1150359 α      in ANC's #3, #2, #5, ...

........................................................................
.............................. CYCLE   18 ..............................
........................................................................
   1    -11.2522650 -0.112523E+02  0.814E-01    1.63       0.0  T
   2    -11.2515976  0.667391E-03  0.645E-01    1.70       1.0  T
   3    -11.2517594 -0.161860E-03  0.459E-01    1.61       1.0  T
   4    -11.2519687 -0.209274E-03  0.319E-01    1.68       1.0  T
   5    -11.2528219 -0.853248E-03  0.257E-02    1.65       1.7  T
   6    -11.2528213  0.625761E-06  0.205E-02    1.65       2.2  T
   7    -11.2528222 -0.926828E-06  0.118E-02    1.65       3.8  T
   8    -11.2528231 -0.865433E-06  0.152E-03    1.65      29.4  T
   9    -11.2528231 -0.155812E-08  0.801E-04    1.65      55.9  T
  10    -11.2528231 -0.491809E-09  0.148E-04    1.65     302.1  T
     SCC iter.                  ...        0 min,  0.001 sec
     gradient                   ...        0 min,  0.002 sec
 * total energy  :   -11.0879937 Eh     change       -0.2276230E-03 Eh
   gradient norm :     0.0063346 Eh/α   predicted    -0.2564947E-03 (  12.68%)
   displ. norm   :     0.0264075 α      lambda       -0.8207012E-04
   maximum displ.:     0.0243502 α      in ANC's #3, #2, #9, ...

........................................................................
.............................. CYCLE   19 ..............................
........................................................................
   1    -11.2532617 -0.112533E+02  0.154E-01    1.64       0.0  T
   2    -11.2532552  0.655537E-05  0.978E-02    1.63       1.0  T
   3    -11.2531028  0.152427E-03  0.134E-01    1.65       1.0  T
   4    -11.2532636 -0.160799E-03  0.154E-02    1.63       2.9  T
   5    -11.2532648 -0.123296E-05  0.844E-03    1.63       5.3  T
   6    -11.2532650 -0.176842E-06  0.387E-03    1.63      11.6  T
   7    -11.2532650 -0.172540E-07  0.172E-03    1.63      26.0  T
   8    -11.2532650 -0.202498E-07  0.510E-04    1.63      87.8  T
   9    -11.2532650 -0.655994E-09  0.147E-04    1.63     303.3  T
     SCC iter.                  ...        0 min,  0.001 sec
     gradient                   ...        0 min,  0.001 sec
 * total energy  :   -11.0880411 Eh     change       -0.4736526E-04 Eh
   gradient norm :     0.0030984 Eh/α   predicted    -0.4106176E-04 ( -13.31%)
   displ. norm   :     0.0174889 α      lambda       -0.2333185E-04
   maximum displ.:     0.0135182 α      in ANC's #2, #3, #1, ...

........................................................................
.............................. CYCLE   20 ..............................
........................................................................
   1    -11.2532952 -0.112533E+02  0.128E-01    1.64       0.0  T
   2    -11.2532798  0.154219E-04  0.952E-02    1.66       1.0  T
   3    -11.2532762  0.361175E-05  0.764E-02    1.64       1.0  T
   4    -11.2532902 -0.139876E-04  0.490E-02    1.65       1.0  T
   5    -11.2533092 -0.190381E-04  0.678E-03    1.65       6.6  T
   6    -11.2533094 -0.192704E-06  0.371E-03    1.65      12.1  T
   7    -11.2533094  0.330472E-07  0.308E-03    1.65      14.5  T
   8    -11.2533094 -0.643162E-07  0.219E-04    1.65     204.1  T
   9    -11.2533094 -0.380176E-10  0.110E-04    1.65     406.1  T
     SCC iter.                  ...        0 min,  0.001 sec
     gradient                   ...        0 min,  0.001 sec
 * total energy  :   -11.0880551 Eh     change       -0.1399625E-04 Eh
   gradient norm :     0.0010554 Eh/α   predicted    -0.1166904E-04 ( -16.63%)
   displ. norm   :     0.0109196 α      lambda       -0.2668687E-05
   maximum displ.:     0.0083053 α      in ANC's #2, #3, #1, ...
 * RMSD in coord.:     0.5609284 α      energy gain  -0.1228516E+00 Eh

generating ANC from model Hessian ...
Using Lindh-Hessian (1995)
 Shifting diagonal of input Hessian by    0.0000000000000000     
 Lowest  eigenvalues of input Hessian
   -0.000000   -0.000000    0.000000    0.000000    0.000000    0.000000
    0.160170    0.217241    0.549185    0.672151    1.000801    1.238391
    1.388737    1.672568    2.013398
 Highest eigenvalues
    0.672151    1.000801    1.238391    1.388737    1.672568    2.013398


........................................................................
.............................. CYCLE   21 ..............................
........................................................................
   1    -11.2535614 -0.112536E+02  0.672E-02    1.65       0.0  T
   2    -11.2535590  0.242677E-05  0.476E-02    1.66       1.0  T
   3    -11.2535576  0.139118E-05  0.386E-02    1.65       1.2  T
   4    -11.2535631 -0.545434E-05  0.126E-02    1.66       3.5  T
   5    -11.2535643 -0.125423E-05  0.353E-03    1.66      12.7  T
   6    -11.2535644 -0.532525E-07  0.231E-03    1.66      19.3  T
   7    -11.2535644 -0.888048E-08  0.144E-03    1.66      31.1  T
   8    -11.2535644 -0.128364E-07  0.106E-04    1.66     421.1  T
   9    -11.2535644 -0.972555E-11  0.459E-05    1.66     973.7  T
     SCC iter.                  ...        0 min,  0.001 sec
     gradient                   ...        0 min,  0.001 sec
 * total energy  :   -11.0880566 Eh     change       -0.1467773E-05 Eh
   gradient norm :     0.0006024 Eh/α   predicted     0.0000000E+00 (-100.00%)
   displ. norm   :     0.0007539 α      lambda       -0.2764991E-06
   maximum displ.:     0.0005513 α      in ANC's #5, #9, #4, ...

   *** GEOMETRY OPTIMIZATION CONVERGED AFTER 21 ITERATIONS ***

------------------------------------------------------------------------
 total energy gain   :        -0.1228531 Eh      -77.0915 kcal/mol
 total RMSD          :         0.5609284 a0        0.2968 Å
 total power (kW/mol):       -15.3595618 (step)-3984.9075 (real)
------------------------------------------------------------------------

 ANCopt (total)                0 d,  0 h,  0 min,  0.081 sec
 optimizer setup                ...        0 min,  0.000 sec (  0.066%)
 model hessian                  ...        0 min,  0.000 sec (  0.168%)
 ANC generation                 ...        0 min,  0.000 sec (  0.102%)
 coordinate transformation      ...        0 min,  0.000 sec (  0.050%)
 single point calculation       ...        0 min,  0.079 sec ( 97.668%)
 optimization log               ...        0 min,  0.000 sec (  0.587%)
 hessian update                 ...        0 min,  0.000 sec (  0.051%)
 rational function              ...        0 min,  0.000 sec (  0.539%)

================
 final structure:
================
5
 xtb: 6.2.2 (9d81278992624c895f80dd42a50cac0aa55982e2)
N         1.32030101181970    0.02131913946188    0.16576646688387
C         0.42548535085457   -0.90029659150714   -0.20656251387020
C        -0.87755747493995   -0.59808163183945    0.19113052249815
C         0.23634909502573    0.77038748724137    0.07515886692860
C        -1.10457898276006    0.70667159664334   -0.22549434244042

 Bond Distances (Angstroems)
 ---------------------------
N1-C2=1.3374         N1-C4=1.3207         C2-N1=1.3374         C2-C3=1.3955         C2-C4=1.7048         C3-C2=1.3955         
C3-C4=1.7683         C3-C5=1.3883         C4-N1=1.3207         C4-C2=1.7048         C4-C3=1.7683         C4-C5=1.3757         
C5-C3=1.3883         C5-C4=1.3757         
 C  C  Rav=1.5265 sigma=0.1728  Rmin=1.3757  Rmax=1.7683     5
 N  C  Rav=1.3291 sigma=0.0084  Rmin=1.3207  Rmax=1.3374     2

 selected bond angles (degree)
 --------------------
C4-N1-C2= 79.78                C3-C2-N1=113.34                C4-C2-N1= 49.68                C4-C2-C3= 68.72                
C4-C3-C2= 63.94                C5-C3-C2=105.71                C5-C3-C4= 49.91                C2-C4-N1= 50.54                
C3-C4-N1= 94.22                C3-C4-C2= 47.34                C5-C4-N1=142.07                C5-C4-C2= 91.53                
C5-C4-C3= 50.54                C4-C5-C3= 79.55                

 selected dihedral angles (degree)
 ---------------------------------
C3-C2-N1-C4=332.21            C4-C3-C2-N1= 22.43            C5-C3-C2-N1= 50.53            C5-C3-C2-C4= 28.10            
C3-C4-N1-C2= 19.80            C5-C4-N1-C2=  0.18            N1-C4-C2-C3=152.65            C3-C4-C2-N1=207.35            
C5-C4-C2-N1=180.11            C5-C4-C2-C3=332.76            N1-C4-C3-C2=339.16            N1-C4-C3-C5=195.51            
C2-C4-C3-C5=216.35            C5-C4-C3-C2=143.65            C4-C5-C3-C2=326.42            C3-C5-C4-N1= 25.71            
C3-C5-C4-C2= 25.85            
           -------------------------------------------------
          |                Final Singlepoint                |
           -------------------------------------------------

          ...................................................
          :                      SETUP                      :
          :.................................................:
          :  # basis functions                  20          :
          :  # atomic orbitals                  20          :
          :  # shells                           10          :
          :  # electrons                        21          :
          :  max. iterations                   250          :
          :  Hamiltonian                  GFN2-xTB          :
          :  restarted?                      false          :
          :  GBSA solvation                  false          :
          :  PC potential                    false          :
          :  electronic temp.          300.0000000     K    :
          :  accuracy                    1.0000000          :
          :  -> integral cutoff          0.2500000E+02      :
          :  -> integral neglect         0.1000000E-07      :
          :  -> SCF convergence          0.1000000E-05 Eh   :
          :  -> wf. convergence          0.1000000E-03 e    :
          :  Broyden damping             0.4000000          :
          ...................................................

 iter      E             dE          RMSdq      gap      omega  full diag
   1    -11.2535644 -0.112536E+02  0.685E-06    1.66       0.0  T
   2    -11.2535644  0.301981E-13  0.533E-06    1.66    8384.7  T
   3    -11.2535644  0.532907E-14  0.377E-06    1.66   11867.7  T

   *** convergence criteria satisfied after 3 iterations ***

         #    Occupation            Energy/Eh            Energy/eV
      -------------------------------------------------------------
         1        2.0000           -0.7589903             -20.6532
       ...           ...                  ...                  ...
         5        2.0000           -0.5853431             -15.9280
         6        2.0000           -0.5724882             -15.5782
         7        2.0000           -0.5132091             -13.9651
         8        2.0000           -0.4753357             -12.9345
         9        2.0000           -0.4580773             -12.4649
        10        2.0000           -0.4387791             -11.9398
        11        1.0000           -0.4091302             -11.1330 (HOMO)
        12                         -0.3482863              -9.4774 (LUMO)
        13                         -0.3002622              -8.1705
        14                         -0.2560139              -6.9665
        15                         -0.2315830              -6.3017
        16                          0.0962265               2.6185
       ...                                ...                  ...
        20                          0.5810828              15.8121
      -------------------------------------------------------------
                  HL-Gap            0.0608439 Eh            1.6556 eV
             Fermi-level           -0.4013315 Eh          -10.9208 eV

 SCC (total)                   0 d,  0 h,  0 min,  0.003 sec
 SCC setup                      ...        0 min,  0.000 sec (  1.432%)
 Dispersion                     ...        0 min,  0.000 sec (  0.364%)
 integral evaluation            ...        0 min,  0.001 sec ( 41.236%)
 zeroth order Hamiltonian       ...        0 min,  0.000 sec (  0.459%)
 iterations                     ...        0 min,  0.000 sec ( 10.861%)
 molecular gradient             ...        0 min,  0.001 sec ( 43.355%)
 printout                       ...        0 min,  0.000 sec (  2.017%)

         :::::::::::::::::::::::::::::::::::::::::::::::::::::
         ::                     SUMMARY                     ::
         :::::::::::::::::::::::::::::::::::::::::::::::::::::
         :: total energy             -11.088056562738 Eh    ::
         :: gradient norm              0.000602563551 Eh/a0 ::
         :: HOMO-LUMO gap              1.655647482186 eV    ::
         ::.................................................::
         :: SCC energy               -11.253564383772 Eh    ::
         :: -> isotropic ES            0.001642214792 Eh    ::
         :: -> anisotropic ES          0.003242203027 Eh    ::
         :: -> anisotropic XC          0.009986744470 Eh    ::
         :: -> dispersion             -0.002698286636 Eh    ::
         :: repulsion energy           0.165507795702 Eh    ::
         :: add. restraining           0.000000000000 Eh    ::
         :::::::::::::::::::::::::::::::::::::::::::::::::::::

           ------------------------------------------------- 
          |                Numerical Hessian                |
           ------------------------------------------------- 
step length          :   0.00500
SCC accuracy         :   0.30000
Hessian scale factor :   1.00000
frozen atoms in %    :   0.00000    0
RMS gradient         :   0.00060
estimated CPU  time      0.00 min
estimated wall time      0.00 min

writing file <hessian>.

 projected vibrational frequencies (cm-1)
eigval :       -0.00    -0.00     0.00     0.00     0.00     0.00
eigval :      240.20   410.87   526.10   685.78   925.99  1006.09
eigval :     1057.27  1330.12  1567.53
           -------------------------------------------------
          |                Property Printout                |
           -------------------------------------------------

    * Orbital Energies and Occupations

         #    Occupation            Energy/Eh            Energy/eV
      -------------------------------------------------------------
         1        2.0000           -0.7589903             -20.6532
         2        2.0000           -0.6959669             -18.9382
         3        2.0000           -0.6490829             -17.6624
         4        2.0000           -0.6017543             -16.3746
         5        2.0000           -0.5853431             -15.9280
         6        2.0000           -0.5724882             -15.5782
         7        2.0000           -0.5132091             -13.9651
         8        2.0000           -0.4753357             -12.9345
         9        2.0000           -0.4580773             -12.4649
        10        2.0000           -0.4387792             -11.9398
        11        1.0000           -0.4091302             -11.1330 (HOMO)
        12                         -0.3482863              -9.4774 (LUMO)
        13                         -0.3002622              -8.1705
        14                         -0.2560139              -6.9665
        15                         -0.2315830              -6.3017
        16                          0.0962265               2.6185
        17                          0.2366430               6.4394
        18                          0.2832432               7.7074
        19                          0.3187026               8.6723
        20                          0.5810828              15.8121
      -------------------------------------------------------------
                  HL-Gap            0.0608439 Eh            1.6556 eV
             Fermi-level           -0.4013315 Eh          -10.9208 eV

     #   Z        covCN         q      C6AA      α(0)
     1   7 N      1.851    -0.138    24.775     7.377
     2   6 C      2.934     0.062    26.604     8.459
     3   6 C      2.864     0.000    28.016     8.676
     4   6 C      3.687     0.145    18.424     6.144
     5   6 C      2.082    -0.069    32.791     9.251

 Mol. C6AA /au·bohr⁶  :        646.143320
 Mol. C8AA /au·bohr⁸  :      17773.780343
 Mol. α(0) /au        :         39.907285


Wiberg/Mayer (AO) data.
largest (>0.10) Wiberg bond orders for each atom
          total WBO             WBO to atom ...
     1  N   2.894        C    4 1.330    C    2 1.279    C    3 0.144    C    5 0.141
     2  C   3.367        C    3 1.383    N    1 1.279    C    4 0.488    C    5 0.216
     3  C   3.269        C    2 1.383    C    5 1.278    C    4 0.464    N    1 0.144
     4  C   3.627        C    5 1.345    N    1 1.330    C    2 0.488    C    3 0.464
     5  C   2.981        C    4 1.345    C    3 1.278    C    2 0.216    N    1 0.141

MOs/occ written to file <molden.input>


molecular dipole:
                 x           y           z       tot (Debye)
 q only:       -0.086       0.006      -0.017
   full:       -0.078       0.013       0.058       0.250
molecular quadrupole (traceless):
                xx          xy          yy          xz          yz          zz
 q only:       -1.266       0.283       0.916      -0.270       0.163       0.350
  q+dip:       -2.234       0.488       1.007      -0.386       0.055       1.227
   full:       -3.745       0.894       1.523      -0.577       0.309       2.222

           -------------------------------------------------
          |                Geometry Summary                 |
           -------------------------------------------------

      molecular mass/u    :       62.0496468
   center of mass at/Å    :        0.0424703       0.0006856       0.0053319
  moments of inertia/u·Å² :        0.2793493E+02   0.5410237E+02   0.7842380E+02
rotational constants/cm⁻¹ :        0.6034606E+00   0.3115877E+00   0.2149556E+00

 * 4 selected distances

     #   Z        #   Z                                     value/Å
     1   7 N      2   6 C                                 1.3374227
     2   6 C      3   6 C                                 1.3954978 (max)
     1   7 N      4   6 C                                 1.3207062 (min)
     4   6 C      5   6 C                                 1.3756963

 * 2 distinct bonds (by element types)

   Z      Z             #   av. dist./Å        max./Å        min./Å
   6 C    6 C           2     1.3855970     1.3954978     1.3756963
   6 C    7 N           2     1.3290645     1.3374227     1.3207062

           -------------------------------------------------
          |               Frequency Printout                |
           -------------------------------------------------
 projected vibrational frequencies (cm-1)
eigval :       -0.00    -0.00     0.00     0.00     0.00     0.00
eigval :      240.20   410.87   526.10   685.78   925.99  1006.09
eigval :     1057.27  1330.12  1567.53
 reduced masses (amu)
   1: 12.11   2: 12.73   3: 12.82   4: 12.56   5: 12.61   6: 12.09   7: 12.39   8: 12.06
   9: 12.24  10: 12.44  11: 12.89  12: 12.29  13: 12.03  14: 12.34  15: 12.56
 IR intensities (amu)
   1:  0.01   2:  0.07   3:  0.04   4:  0.07   5:  0.03   6:  0.07   7:  0.36   8:  0.38
   9:  0.64  10:  0.57  11:  0.76  12:  1.17  13:  1.08  14:  0.36  15:  1.23
 Raman intensities (amu)
   1:  0.00   2:  0.00   3:  0.00   4:  0.00   5:  0.00   6:  0.00   7:  0.00   8:  0.00
   9:  0.00  10:  0.00  11:  0.00  12:  0.00  13:  0.00  14:  0.00  15:  0.00
 output can be read by thermo (or use thermo option).
 writing <g98.out> molden fake output.
 recommended (thermochemical) frequency scaling factor: 1.0
Molecule has no symmetry elements
It seems to be the C1 point group
           -------------------------------------------------
          |             Thermodynamic Functions             |
           -------------------------------------------------

c1  symmetry found (for desy threshold:  0.10E+00) used in thermo

          ...................................................
          :                      SETUP                      :
          :.................................................:
          :  # frequencies                           9      :
          :  # imaginary freq.                       0      :
          :  linear?                             false      :
          :  only rotor calc.                    false      :
          :  symmetry                               c1      :
          :  rotational number                       1      :
          :  scaling factor                  1.0000000      :
          :  rotor cutoff                   50.0000000 cm⁻¹ :
          :  imag. cutoff                  -20.0000000 cm⁻¹ :
          :.................................................:

    mode    ω/cm⁻¹     T·S(HO)/kcal·mol⁻¹    T·S(FR)/kcal·mol⁻¹   T·S(vib)
   ------------------------------------------------------------------------
       1    240.20    -0.00000 ( 99.81%)     0.01390 (  0.19%)     0.00003
   ------------------------------------------------------------------------

   temp. (K)  partition function   enthalpy   heat capacity  entropy
                                   cal/mol     cal/K/mol   cal/K/mol   J/K/mol
 298.15  VIB   1.96                  785.249      6.622      3.969
         ROT  0.263E+05              888.752      2.981     23.206
         INT  0.515E+05             1674.001      9.603     27.175
         TR   0.473E+27             1481.254      4.968     38.278
         TOT                        3155.2552    14.5713    65.4532   273.8560

   temp. (K)  partition function   enthalpy   heat capacity  entropy
                                   cal/mol     cal/K/mol   cal/K/mol   J/K/mol
 120.00  VIB   1.07                   52.770      1.581      0.575
         ROT  0.672E+04              357.707      2.981     20.493
         INT  0.718E+04              410.477      4.562     21.067
         TR   0.121E+27              596.178      4.968     33.759
         TOT                        1006.6552     9.5297    54.8262   229.3929

   temp. (K)  partition function   enthalpy   heat capacity  entropy
                                   cal/mol     cal/K/mol   cal/K/mol   J/K/mol
 100.00  VIB   1.04                   26.455      1.057      0.336
         ROT  0.511E+04              298.089      2.981     19.949
         INT  0.529E+04              324.544      4.038     20.285
         TR   0.919E+26              496.815      4.968     32.853
         TOT                         821.3587     9.0065    53.1388   222.3329

   temp. (K)  partition function   enthalpy   heat capacity  entropy
                                   cal/mol     cal/K/mol   cal/K/mol   J/K/mol
  80.00  VIB   1.01                   10.110      0.589      0.155
         ROT  0.366E+04              238.471      2.981     19.284
         INT  0.371E+04              248.581      3.570     19.440
         TR   0.657E+26              397.452      4.968     31.745
         TOT                         646.0334     8.5380    51.1850   214.1580

   temp. (K)  partition function   enthalpy   heat capacity  entropy
                                   cal/mol     cal/K/mol   cal/K/mol   J/K/mol
  60.00  VIB   1.00                    2.238      0.220      0.044
         ROT  0.237E+04              178.853      2.981     18.427
         INT  0.238E+04              181.092      3.201     18.471
         TR   0.427E+26              298.089      4.968     30.317
         TOT                         479.1806     8.1694    48.7877   204.1279

   temp. (K)  partition function   enthalpy   heat capacity  entropy
                                   cal/mol     cal/K/mol   cal/K/mol   J/K/mol
  40.00  VIB   1.00                    0.122      0.026      0.003
         ROT  0.129E+04              119.236      2.981     17.218
         INT  0.129E+04              119.358      3.007     17.221
         TR   0.232E+26              198.726      4.968     28.303
         TOT                         318.0836     7.9755    45.5246   190.4748

   temp. (K)  partition function   enthalpy   heat capacity  entropy
                                   cal/mol     cal/K/mol   cal/K/mol   J/K/mol
  20.00  VIB   1.00                    0.000      0.000     -0.002
         ROT   457.                   59.618      2.981     15.152
         INT   457.                   59.618      2.981     15.150
         TR   0.822E+25               99.363      4.968     24.861
         TOT                         158.9808     7.9491    40.0115   167.4079

   temp. (K)  partition function   enthalpy   heat capacity  entropy
                                   cal/mol     cal/K/mol   cal/K/mol   J/K/mol
  10.00  VIB   1.00                    0.000      0.000     -0.003
         ROT   162.                   29.809      2.981     13.086
         INT   162.                   29.809      2.981     13.082
         TR   0.290E+25               49.681      4.968     21.419
         TOT                          79.4904     7.9490    34.5018   144.3553

       T/K    H(0)-H(T)+PV         H(T)/Eh          T*S/Eh         G(T)/Eh
   ------------------------------------------------------------------------
    298.15    0.502822E-02    0.226839E-01    0.310989E-01   -0.841500E-02
    120.00    0.160421E-02    0.192599E-01    0.104845E-01    0.877535E-02
    100.00    0.130892E-02    0.189646E-01    0.846821E-02    0.104964E-01
     80.00    0.102952E-02    0.186852E-01    0.652548E-02    0.121597E-01
     60.00    0.763623E-03    0.184193E-01    0.466489E-02    0.137544E-01
     40.00    0.506898E-03    0.181626E-01    0.290192E-02    0.152607E-01
     20.00    0.253352E-03    0.179090E-01    0.127525E-02    0.166338E-01
     10.00    0.126676E-03    0.177824E-01    0.549820E-03    0.172325E-01 (used)
   ------------------------------------------------------------------------

         :::::::::::::::::::::::::::::::::::::::::::::::::::::
         ::                  THERMODYNAMIC                  ::
         :::::::::::::::::::::::::::::::::::::::::::::::::::::
         :: total free energy         -11.070824024564 Eh   ::
         ::.................................................::
         :: total energy              -11.088056562634 Eh   ::
         :: zero point energy           0.017655682486 Eh   ::
         :: G(RRHO) w/o ZPVE           -0.000423144416 Eh   ::
         :: G(RRHO) contrib.            0.017232538070 Eh   ::
         :::::::::::::::::::::::::::::::::::::::::::::::::::::

optimized geometry written to: xtbopt.xyz


           -------------------------------------------------
          | TOTAL ENERGY              -11.088056562634 Eh   |
          | TOTAL ENTHALPY            -11.070274204132 Eh   |
          | TOTAL FREE ENERGY         -11.070824024564 Eh   |
          | GRADIENT NORM               0.000602371226 Eh/α |
          | HOMO-LUMO GAP               1.655646620384 eV   |
           -------------------------------------------------

------------------------------------------------------------------------
 * finished run on 2020/05/12 at 11:44:08.194     
------------------------------------------------------------------------
 total:
 * wall-time:     0 d,  0 h,  0 min,  0.207 sec
 *  cpu-time:     0 d,  0 h,  0 min,  0.207 sec
 * ratio c/w:     0.998 speedup
 SCF:
 * wall-time:     0 d,  0 h,  0 min,  0.005 sec
 *  cpu-time:     0 d,  0 h,  0 min,  0.005 sec
 * ratio c/w:     0.996 speedup
 ANC optimizer:
 * wall-time:     0 d,  0 h,  0 min,  0.085 sec
 *  cpu-time:     0 d,  0 h,  0 min,  0.085 sec
 * ratio c/w:     0.999 speedup
 numerical hessian:
 * wall-time:     0 d,  0 h,  0 min,  0.103 sec
 *  cpu-time:     0 d,  0 h,  0 min,  0.102 sec
 * ratio c/w:     0.997 speedup

