$hessian                                                                        
        0.6552036699  -0.1967778611   0.0085622746  -0.3805570306  -0.0194900535
       -0.0073543067  -0.0992790327   0.1134847078  -0.0844537687  -0.1592660257
        0.1002650167   0.0928844310  -0.0161015809   0.0025181901  -0.0096386302
       -0.1967778611   0.2762963931  -0.0332717585   0.0122840388   0.0008302426
       -0.0241608488   0.0958255546  -0.1726432894   0.1334649414   0.1040303052
       -0.1063194194  -0.0732041831  -0.0153620374   0.0018360731  -0.0028281510
        0.0085622746  -0.0332717585   0.2064627712  -0.0017481170  -0.0245026276
        0.0013331286  -0.0781600316   0.1170698223  -0.1157602461   0.0800388895
       -0.0671901422  -0.0885105214  -0.0086930156   0.0078947060  -0.0035251324
       -0.3805570306   0.0122840388  -0.0017481170   0.6470953975   0.2051538551
        0.0032453917  -0.0989885767  -0.1148635561   0.0820954087  -0.0168056520
       -0.0030960332   0.0093613572  -0.1507441381  -0.0994783046  -0.0929540406
       -0.0194900535   0.0008302426  -0.0245026276   0.2051538551   0.2845340104
       -0.0282763314  -0.0976226918  -0.1769642255   0.1327410327   0.0150497452
        0.0020886232  -0.0022501107  -0.1030908551  -0.1104886506  -0.0777119631
       -0.0073543067  -0.0241608488   0.0013331286   0.0032453917  -0.0282763314
        0.2063303422   0.0761439751   0.1157827939  -0.1117297915   0.0081998578
        0.0079983927  -0.0030750097  -0.0802349178  -0.0713440064  -0.0928586697
       -0.0992790327   0.0958255546  -0.0781600316  -0.0989885767  -0.0976226918
        0.0761439751   0.2110867326   0.0014097646   0.0026430287  -0.0065831516
        0.0246329496  -0.0110961207  -0.0062359716  -0.0242455770   0.0104691485
        0.1134847078  -0.1726432894   0.1170698223  -0.1148635561  -0.1769642255
        0.1157827939   0.0014097646   0.3824266824  -0.2517096609   0.0027689475
       -0.0161293570   0.0093521483  -0.0027998637  -0.0166898105   0.0095048964
       -0.0844537687   0.1334649414  -0.1157602461   0.0820954087   0.1327410327
       -0.1117297915   0.0026430287  -0.2517096609   0.2058431756   0.0022135308
       -0.0069180344   0.0107183171  -0.0024981996  -0.0075782789   0.0109285448
       -0.1592660257   0.1040303052   0.0800388895  -0.0168056520   0.0150497452
        0.0081998578  -0.0065831516   0.0027689475   0.0022135308   0.1818639012
       -0.1218113428  -0.0907743038   0.0007909280  -0.0000376550   0.0003220257
        0.1002650167  -0.1063194194  -0.0671901422  -0.0030960332   0.0020886232
        0.0079983927   0.0246329496  -0.0161293570  -0.0069180344  -0.1218113428
        0.1192854164   0.0652402655   0.0000094097   0.0010747369   0.0008695184
        0.0928844310  -0.0732041831  -0.0885105214   0.0093613572  -0.0022501107
       -0.0030750097  -0.0110961207   0.0093521483   0.0107183171  -0.0907743038
        0.0652402655   0.0786613799  -0.0003753636   0.0008618800   0.0022058341
       -0.0161015809  -0.0153620374  -0.0086930156  -0.1507441381  -0.1030908551
       -0.0802349178  -0.0062359716  -0.0027998637  -0.0024981996   0.0007909280
        0.0000094097  -0.0003753636   0.1722907626   0.1212433465   0.0918014965
        0.0025181901   0.0018360731   0.0078947060  -0.0994783046  -0.1104886506
       -0.0713440064  -0.0242455770  -0.0166898105  -0.0075782789  -0.0000376550
        0.0010747369   0.0008618800   0.1212433465   0.1242676511   0.0701656993
       -0.0096386302  -0.0028281510  -0.0035251324  -0.0929540406  -0.0777119631
       -0.0928586697   0.0104691485   0.0095048964   0.0109285448   0.0003220257
        0.0008695184   0.0022058341   0.0918014965   0.0701656993   0.0832494232
