5
 energy: -9.121145500447 gnorm: 0.082178144786 xtb: 6.2.2 (9d81278992624c895f80dd42a50cac0aa55982e2)
C         0.73374800000000    0.15243600000000    0.42585900000000
C        -0.74718400000000    0.13724700000000    0.40725500000000
O        -0.00597700000000    1.04155700000000   -0.37447900000000
H         1.15018100000000   -0.65392800000000   -0.21498500000000
H        -1.13076800000000   -0.67731100000000   -0.24365000000000
5
 energy: -9.134099371173 gnorm: 0.049090674786 xtb: 6.2.2 (9d81278992624c895f80dd42a50cac0aa55982e2)
C         0.72199792852809    0.12292732058099    0.40121482167862
C        -0.73421852324263    0.10799479384719    0.38291837176649
O        -0.00584352832735    1.02589238291098   -0.37212492499676
H         1.29579946339268   -0.61521364625506   -0.18983495501882
H        -1.27773534035079   -0.64159985108410   -0.22217331342953
5
 energy: -9.139586154461 gnorm: 0.026869988371 xtb: 6.2.2 (9d81278992624c895f80dd42a50cac0aa55982e2)
C         0.70653255668609    0.09339649012533    0.36736732128163
C        -0.71730457415525    0.07879585852094    0.34947712587600
O        -0.00595904026877    1.02517066635886   -0.36233822969036
H         1.39140727793269   -0.58450062945063   -0.15987390598914
H        -1.37467622019477   -0.61286138555449   -0.19463231147813
5
 energy: -9.140748264236 gnorm: 0.016421169441 xtb: 6.2.2 (9d81278992624c895f80dd42a50cac0aa55982e2)
C         0.70671919992942    0.07630391827773    0.35271789734541
C        -0.71677430750319    0.06170873186838    0.33483068587708
O        -0.00590710705439    1.01827923325897   -0.36077556466975
H         1.43062601327881   -0.56355835426058   -0.14551055238774
H        -1.41466379865065   -0.59273252914449   -0.18126246616500
5
 energy: -9.141095106275 gnorm: 0.003715840060 xtb: 6.2.2 (9d81278992624c895f80dd42a50cac0aa55982e2)
C         0.70951376331202    0.06355301636685    0.34506749736639
C        -0.71911222575720    0.04890402887267    0.32711633013942
O        -0.00580822352497    1.01069202137101   -0.36250462804550
H         1.45683495355273   -0.54671572015584   -0.13663012734698
H        -1.44142826758258   -0.57643234645470   -0.17304907211334
5
 energy: -9.141115571804 gnorm: 0.001330497471 xtb: 6.2.2 (9d81278992624c895f80dd42a50cac0aa55982e2)
C         0.70988972384828    0.05967097391000    0.34415194122815
C        -0.71938723351048    0.04501686260104    0.32619188609096
O        -0.00575347064662    1.00762046520053   -0.36430924919531
H         1.46531317121026   -0.54120733514033   -0.13470107828533
H        -1.45006219090144   -0.57109996657124   -0.17133349983847
5
 energy: -9.141115986763 gnorm: 0.001209353990 xtb: 6.2.2 (9d81278992624c895f80dd42a50cac0aa55982e2)
C         0.70970755903738    0.05874216103936    0.34420199899195
C        -0.71918484996114    0.04408983962122    0.32624774806050
O        -0.00574334866732    1.00746675287696   -0.36504858446431
H         1.46453726164246   -0.54021071944841   -0.13439285474114
H        -1.44931662205138   -0.57008703408913   -0.17100830784700
5
 energy: -9.141117061015 gnorm: 0.000157663951 xtb: 6.2.2 (9d81278992624c895f80dd42a50cac0aa55982e2)
C         0.70967856101643    0.05893758516878    0.34459164544552
C        -0.71917161920516    0.04428732874154    0.32663723513011
O        -0.00573666613781    1.00710349804302   -0.36523892683741
H         1.46540360917003   -0.54021645343338   -0.13467723223249
H        -1.45017388484349   -0.57011095851996   -0.17131272150574
