[Molden Format]
[Title]
[Atoms] AU
C      1     6  0.13411008486143E+01  0.11136999862618E+00  0.65117889860177E+00
C      2     6 -0.13590346779475E+01  0.83699107550867E-01  0.61725945709418E+00
O      3     8 -0.10833171270352E-01  0.19031484659966E+01 -0.69020476151429E+00
H      4     1  0.27692049927922E+01 -0.10208759940179E+01 -0.25451094515938E+00
H      5     1 -0.27404379921788E+01 -0.10773396884298E+01 -0.32372264902558E+00
[GTO]
           1 0
 s           4   1.0000000000000000     
   51.049363095579913      -0.16312063210127389     
   8.7911227406887544      -0.19911024581000730     
  0.70640422258929825       0.31882047753655751     
  0.26922813413411617       0.12706504184240380     
 p           4   1.0000000000000000     
   5.8263656140800002       0.73716451545209605     
   1.5106896018720002       0.68216371614850257     
  0.53256483288000001       0.35783053929253711     
  0.21202323690600003        5.3983030275847881E-002

           2 0
 s           4   1.0000000000000000     
   51.049363095579913      -0.16312063210127389     
   8.7911227406887544      -0.19911024581000730     
  0.70640422258929825       0.31882047753655751     
  0.26922813413411617       0.12706504184240380     
 p           4   1.0000000000000000     
   5.8263656140800002       0.73716451545209605     
   1.5106896018720002       0.68216371614850257     
  0.53256483288000001       0.35783053929253711     
  0.21202323690600003        5.3983030275847881E-002

           3 0
 s           4   1.0000000000000000     
   69.137961906196551      -0.20478756370077797     
   11.906129132707308      -0.24997023136827334     
  0.95670827744340703       0.40025880240639616     
  0.36462520496073686       0.15952206667693555     
 p           4   1.0000000000000000     
   8.2124193257781641        1.1321556799186829     
   2.1293576997098116        1.0476840782254817     
  0.75066448202360914       0.54956508217158984     
  0.29885246543283073        8.2908486592766617E-002

           4 0
 s           3   1.0000000000000000     
   3.3702276975336001       0.27359110588908298     
  0.61389118221497996       0.26460540653860526     
  0.16614291148415999        8.2465947534082318E-002

           5 0
 s           3   1.0000000000000000     
   3.3702276975336001       0.27359110588908298     
  0.61389118221497996       0.26460540653860526     
  0.16614291148415999        8.2465947534082318E-002

[MO]
Sym=     1a
Ene=  -0.74942099379804406     
Spin= Alpha
Occup=     2.00000000
           1 -0.22091434222191142     
           2  0.11672078627806465     
           3  -9.4818894256144315E-002
           4   7.4098466769403765E-002
           5 -0.22091434171387417     
           6 -0.11657771940544599     
           7  -9.7209723748802587E-002
           8   7.1167741983885452E-002
           9 -0.64683105696319132     
          10  -2.2209665658183805E-004
          11  0.15130700510953590     
          12 -0.10575108566157544     
          13  -1.3188343322829718E-002
          14  -1.3188361742983441E-002
Sym=     2a
Ene=  -0.64613357188925136     
Spin= Alpha
Occup=     2.00000000
           1 -0.30258177285970989     
           2  0.11661260380211291     
           3   9.1828012053530944E-002
           4  -3.6403073489744080E-002
           5 -0.30258186532107095     
           6 -0.11751850471784739     
           7   8.9428666557194489E-002
           8  -3.9344238658821286E-002
           9  0.61127763625335463     
          10  -7.8422286273294715E-004
          11  0.39101258474322842     
          12 -0.25655221517074722     
          13  -9.1100971133007566E-002
          14  -9.1101141568396979E-002
Sym=     3a
Ene=  -0.62307669525952747     
Spin= Alpha
Occup=     2.00000000
           1 -0.32788205639700824     
           2 -0.13807634025587168     
           3 -0.10592898060911352     
           4  0.10355312713718458     
           5  0.32788197551427600     
           6 -0.13757337635098904     
           7  0.10310403884194838     
           8 -0.10701590295778481     
           9   1.0958110455167576E-007
          10 -0.58265584156874017     
          11  -5.9709510880521788E-003
          12  -7.3195147312000953E-003
          13 -0.16414747892439413     
          14  0.16414752829411680     
Sym=     4a
Ene=  -0.57979088643451104     
Spin= Alpha
Occup=     2.00000000
           1  -3.1913824962673254E-002
           2 -0.10568646644394848     
           3  0.22279528792338293     
           4  0.23573236772180067     
           5  -3.1913823046050629E-002
           6   9.5144716811785796E-002
           7  0.22485358144231080     
           8  0.23825514225468383     
           9  -9.1005670753223952E-002
          10  -9.6470087611923681E-003
          11  0.22846100279132212     
          12  0.58155266157270125     
          13 -0.19223524681552520     
          14 -0.19223538765237985     
Sym=     5a
Ene=  -0.52793399813779529     
Spin= Alpha
Occup=     2.00000000
           1  0.25617727489169800     
           2  0.18313482490498051     
           3 -0.12431987286430238     
           4  0.21273344307189865     
           5  0.25619116420570215     
           6 -0.18584770604764508     
           7 -0.12812222692263162     
           8  0.20810366939041872     
           9  0.15755744570041608     
          10  -7.3338366644749653E-003
          11  0.56854577532957351     
          12  0.12152677253588984     
          13  0.26195585053133935     
          14  0.26197936943494665     
Sym=     6a
Ene=  -0.52724477888977361     
Spin= Alpha
Occup=     2.00000000
           1  0.18767568430878737     
           2  0.18136557887940091     
           3 -0.27951858834855808     
           4   7.5150786638635864E-002
           5 -0.18765634002565443     
           6  0.17741637911484323     
           7  0.28318583954913346     
           8  -7.0628153536405322E-002
           9   5.7889544865142932E-006
          10 -0.51500284676898467     
          11  -5.2566534399920749E-003
          12  -6.4651231820801970E-003
          13  0.31498883757713214     
          14 -0.31496914504706680     
Sym=     7a
Ene=  -0.47539139484299864     
Spin= Alpha
Occup=     2.00000000
           1   5.5733829603320184E-002
           2 -0.37888953041115081     
           3 -0.29688430187249437     
           4  0.23719985260679993     
           5   5.5733558337622897E-002
           6  0.37881594667158347     
           7 -0.28911923281880142     
           8  0.24671815743825609     
           9  0.13925648256865109     
          10   3.1578164565477388E-003
          11  0.17146367932326048     
          12 -0.39125370247894886     
          13 -0.17620946820127201     
          14 -0.17620937566840217     
Sym=     8a
Ene=  -0.36233855233566192     
Spin= Alpha
Occup=     1.00000000
           1 -0.20899721636151142     
           2 -0.22452844735388866     
           3 -0.29700258785768657     
           4 -0.39840687455878748     
           5 -0.20899731352430367     
           6  0.24050331768819849     
           7 -0.29223691629549908     
           8 -0.39256507928572776     
           9   7.0210746461077988E-003
          10  -1.0506084990277977E-002
          11  0.37061641313654631     
          12  0.53398412647639082     
          13   7.2097400699716430E-002
          14   7.2097395922032695E-002
Sym=     9a
Ene=  -0.33884995569768550     
Spin= Alpha
Occup=     1.00000000
           1 -0.33088428095170669     
           2 -0.16051638312119465     
           3 -0.23990379057939859     
           4 -0.57866078351550454     
           5  0.33088429984168471     
           6 -0.17988218882456200     
           7  0.23641532172360555     
           8  0.57438475420598067     
           9  -1.1173396852866148E-008
          10  0.10708433825658363     
          11   1.0974639130334463E-003
          12   1.3451647043102170E-003
          13  0.22199345079267144     
          14 -0.22199334761888770     
Sym=    10a
Ene=   -8.1410641048431515E-002
Spin= Alpha
Occup=     0.00000000
           1   9.3419912281692011E-002
           2 -0.30025332768876239     
           3 -0.64587970203444278     
           4  0.33175145142103896     
           5  -9.3419115933084801E-002
           6 -0.30499775981719696     
           7  0.63967680717941777     
           8 -0.33935515781673153     
           9  -1.9917356845639505E-008
          10  0.61139019324871313     
          11   6.2656347907160941E-003
          12   7.6804282918228224E-003
          13  -9.1752872104217259E-002
          14   9.1751951071617655E-002
Sym=    11a
Ene=    9.3293457870636046E-002
Spin= Alpha
Occup=     0.00000000
           1  0.53316130595232236     
           2  -4.7600635768699252E-002
           3  0.29026843672434693     
           4 -0.41725217182734403     
           5  0.53316052665513325     
           6   5.2108348980168848E-002
           7  0.29128989318569420     
           8 -0.41599876179145134     
           9 -0.62008488537656270     
          10  -1.6408059174428330E-003
          11  0.66005723948227923     
          12 -0.40788182603221018     
          13 -0.31727520718504082     
          14 -0.31727447608399362     
Sym=    12a
Ene=   0.13267425728497953     
Spin= Alpha
Occup=     0.00000000
           1  0.75857182203495310     
           2 -0.12573072849924399     
           3 -0.18795815584964745     
           4 -0.44450447109093399     
           5 -0.75856948028025062     
           6 -0.14068527903466288     
           7  0.18522379431388203     
           8  0.44115735083457980     
           9   1.7815294369920476E-006
          10 -0.35079664700716717     
          11  -3.5962875582667897E-003
          12  -4.4051817228861192E-003
          13 -0.61101082842570964     
          14  0.61100496845496599     
Sym=    13a
Ene=   0.19307493861835526     
Spin= Alpha
Occup=     0.00000000
           1  0.37111614922573133     
           2  0.49623198477254749     
           3 -0.46922275516278666     
           4  -8.9599436549824454E-002
           5  0.37112364043194651     
           6 -0.48410301971217873     
           7 -0.47927128850338085     
           8 -0.10191758228682370     
           9  0.33129788202789973     
          10  -1.6667646575535442E-003
          11 -0.21032624810276593     
          12  0.30437099353254771     
          13 -0.74716445949978116     
          14 -0.74716931519473595     
Sym=    14a
Ene=   0.44768507212054159     
Spin= Alpha
Occup=     0.00000000
           1 -0.31697950540548403     
           2  0.96033360482963981     
           3 -0.35213868010433252     
           4 -0.12166460169625569     
           5  0.31697869952587687     
           6  0.94955823026975184     
           7  0.37171220593339177     
           8  0.14565703543203845     
           9  -2.6776899366899178E-007
          10  0.26099653186728167     
          11   2.6748143135233425E-003
          12   3.2784327776950108E-003
          13 -0.55101347395887412     
          14  0.55101483978872245     
