      -----------------------------------------------------------      
     |                   =====================                   |     
     |                           x T B                           |     
     |                   =====================                   |     
     |                         S. Grimme                         |     
     |          Mulliken Center for Theoretical Chemistry        |     
     |                    University of Bonn                     |     
      -----------------------------------------------------------      

   * xtb version 6.2.2 (9d81278992624c895f80dd42a50cac0aa55982e2) compiled by '@Darwin' on 04/03/2020

   xtb is free software: you can redistribute it and/or modify it under
   the terms of the GNU Lesser General Public License as published by
   the Free Software Foundation, either version 3 of the License, or
   (at your option) any later version.
   
   xtb is distributed in the hope that it will be useful,
   but WITHOUT ANY WARRANTY; without even the implied warranty of
   MERCHANTABILITY or FITNESS FOR A PARTICULAR PURPOSE.  See the
   GNU Lesser General Public License for more details.
   
   Cite this work as:
   * S. Grimme, C. Bannwarth, P. Shushkov, J. Chem. Theory Comput., 2017,
     13, 1989-2009. DOI: 10.1021/acs.jctc.7b00118
   * C. Bannwarth, S. Ehlert and S. Grimme., J. Chem. Theory Comput., 2019,
     15, 1652-1671. DOI: 10.1021/acs.jctc.8b01176
   * P. Pracht, E. Caldeweyher, S. Ehlert, S. Grimme, ChemRxiv, 2019, preprint.
     DOI: 10.26434/chemrxiv.8326202.v1
   
   for DFT-D4:
   * E. Caldeweyher, C. Bannwarth and S. Grimme, J. Chem. Phys., 2017,
     147, 034112. DOI: 10.1063/1.4993215
   * E. Caldeweyher, S. Ehlert, A. Hansen, H. Neugebauer, S. Spicher,
     C. Bannwarth and S. Grimme, J. Chem. Phys., 2019, 150, 154122.
     DOI: 10.1063/1.5090222
   
   for sTDA-xTB:
   * S. Grimme and C. Bannwarth, J. Chem. Phys., 2016, 145, 054103.
     DOI: 10.1063/1.4959605
   
   in the mass-spec context:
   * V. Asgeirsson, C. Bauer and S. Grimme, Chem. Sci., 2017, 8, 4879.
     DOI: 10.1039/c7sc00601b
   
   for metadynamics refer to:
   * S. Grimme, J. Chem. Theory Comput., 2019, 155, 2847-2862
     DOI: 10.1021/acs.jctc.9b00143
   
   with help from (in alphabetical order)
   C. Bannwarth, F. Bohle, G. Brandenburg, E. Caldeweyher, M. Checinski,
   S. Dohm, S. Ehlert, S. Ehrlich, F. März, H. Neugebauer, J. Pisarek,
   P. Pracht, P. Shushkov, and S. Spicher.
   
 * started run on 2020/05/12 at 11:45:15.734     

           -------------------------------------------------
          |                Calculation Setup                |
           -------------------------------------------------

          program call               : xtb --input H2C2O1_8_S_2.input H2C2O1_8_S_2.xyz --ohess --molden --namespace H2C2O1_8_S_2 output.out
          calculation namespace      : H2C2O1_8_S_2
          coordinate file            : H2C2O1_8_S_2.xyz
          number of atoms            :                     5
          number of electrons        :                    16
          charge                     :                     0
          spin                       :                   1.0
          first test random number   :      0.91123591396525

   ID    Z sym.   atoms
    1    6 C      1, 2
    2    8 O      3
    3    1 H      4, 5

           -------------------------------------------------
          |                 G F N 2 - x T B                 |
           -------------------------------------------------

        Reference                      10.1021/acs.jctc.8b01176
      * Hamiltonian:
        H0-scaling (s, p, d)           1.850000    2.230000    2.230000
        zeta-weighting                 0.500000
      * Dispersion:
        s8                             2.700000
        a1                             0.520000
        a2                             5.000000
        s9                             5.000000
      * Repulsion:
        kExp                           1.500000    1.000000
        rExp                           1.000000
      * Coulomb:
        alpha                          2.000000
        third order                    shell-resolved
        anisotropic                    true
        a3                             3.000000
        a5                             4.000000
        cn-shift                       1.200000
        cn-exp                         4.000000
        max-rad                        5.000000


          ...................................................
          :                      SETUP                      :
          :.................................................:
          :  # basis functions                  14          :
          :  # atomic orbitals                  14          :
          :  # shells                            8          :
          :  # electrons                        16          :
          :  max. iterations                   250          :
          :  Hamiltonian                  GFN2-xTB          :
          :  restarted?                      false          :
          :  GBSA solvation                  false          :
          :  PC potential                    false          :
          :  electronic temp.          300.0000000     K    :
          :  accuracy                    1.0000000          :
          :  -> integral cutoff          0.2500000E+02      :
          :  -> integral neglect         0.1000000E-07      :
          :  -> SCF convergence          0.1000000E-05 Eh   :
          :  -> wf. convergence          0.1000000E-03 e    :
          :  Broyden damping             0.4000000          :
          ...................................................

 iter      E             dE          RMSdq      gap      omega  full diag
   1     -9.1796613 -0.917966E+01  0.462E+00    7.37       0.0  T
   2     -9.1825120 -0.285072E-02  0.254E+00    7.41       1.0  T
   3     -9.1823891  0.122942E-03  0.813E-01    7.36       1.0  T
   4     -9.1829427 -0.553620E-03  0.160E-01    7.39       1.0  T
   5     -9.1829600 -0.172923E-04  0.896E-02    7.39       1.0  T
   6     -9.1829562  0.385965E-05  0.686E-02    7.39       1.0  T
   7     -9.1829770 -0.208811E-04  0.794E-03    7.39       5.6  T
   8     -9.1829773 -0.227953E-06  0.114E-03    7.39      39.3  T
   9     -9.1829773 -0.654742E-09  0.480E-04    7.39      93.2  T
  10     -9.1829773 -0.858586E-09  0.449E-05    7.39     995.4  T

   *** convergence criteria satisfied after 10 iterations ***

         #    Occupation            Energy/Eh            Energy/eV
      -------------------------------------------------------------
         1        2.0000           -0.7503489             -20.4180
       ...           ...                  ...                  ...
         3        2.0000           -0.6227458             -16.9458
         4        2.0000           -0.5873200             -15.9818
         5        2.0000           -0.5238377             -14.2544
         6        2.0000           -0.5209336             -14.1753
         7        2.0000           -0.4644177             -12.6374
         8        1.0000           -0.3842913             -10.4571
         9        1.0000           -0.3802024             -10.3458 (HOMO)
        10                         -0.1086214              -2.9557 (LUMO)
        11                          0.0692934               1.8856
        12                          0.0862825               2.3479
        13                          0.1813691               4.9353
        14                          0.2244278               6.1070
      -------------------------------------------------------------
                  HL-Gap            0.2715810 Eh            7.3901 eV
             Fermi-level           -0.3343832 Eh           -9.0990 eV

 transition dipole moment (au) for excitation:           8           9
     X       Y       Z   
  -1.3316  -0.0136  -0.0167  total (au/Debye):    1.332   3.385
 dE (eV)             :    0.111
 oscillator strength :  0.68374E-02

 SCC (total)                   0 d,  0 h,  0 min,  0.003 sec
 SCC setup                      ...        0 min,  0.000 sec (  2.886%)
 Dispersion                     ...        0 min,  0.000 sec (  0.423%)
 integral evaluation            ...        0 min,  0.001 sec ( 24.783%)
 zeroth order Hamiltonian       ...        0 min,  0.000 sec (  0.600%)
 iterations                     ...        0 min,  0.001 sec ( 28.311%)
 molecular gradient             ...        0 min,  0.001 sec ( 22.845%)
 printout                       ...        0 min,  0.001 sec ( 19.836%)

         :::::::::::::::::::::::::::::::::::::::::::::::::::::
         ::                     SUMMARY                     ::
         :::::::::::::::::::::::::::::::::::::::::::::::::::::
         :: total energy              -9.121145501620 Eh    ::
         :: gradient norm              0.082178450307 Eh/a0 ::
         :: HOMO-LUMO gap              7.390094449662 eV    ::
         ::.................................................::
         :: SCC energy                -9.182977261070 Eh    ::
         :: -> isotropic ES            0.010055386448 Eh    ::
         :: -> anisotropic ES          0.000014570402 Eh    ::
         :: -> anisotropic XC          0.002626637407 Eh    ::
         :: -> dispersion             -0.001379404112 Eh    ::
         :: repulsion energy           0.061831741422 Eh    ::
         :: add. restraining           0.000000000000 Eh    ::
         :::::::::::::::::::::::::::::::::::::::::::::::::::::

      ----------------------------------------------------------- 
     |                   =====================                   |
     |                        A N C O P T                        |
     |                   =====================                   |
     |               Approximate Normal Coordinate               |
     |                Rational Function Optimizer                |
      ----------------------------------------------------------- 

          ...................................................
          :                      SETUP                      :
          :.................................................:
          :   optimization level            normal          :
          :   max. optcycles                   200          :
          :   ANC micro-cycles                  20          :
          :   degrees of freedom                 9          :
          :.................................................:
          :   RF solver                   davidson          :
          :   write xtbopt.log                true          :
          :   linear?                        false          :
          :   energy convergence         0.5000000E-05 Eh   :
          :   grad. convergence          0.1000000E-02 Eh/α :
          :   maximium RF displ.         1.0000000          :
          :   Hlow (freq-cutoff)         0.1000000E-01      :
          :   Hmax (freq-cutoff)         5.0000000          :
          :   S6 in model hess.         20.0000000          :
          ...................................................

generating ANC from model Hessian ...
Using Lindh-Hessian (1995)
 Shifting diagonal of input Hessian by    0.0000000000000000     
 Lowest  eigenvalues of input Hessian
   -0.000000   -0.000000    0.000000    0.000000    0.000000    0.000000
    0.038631    0.079937    0.156105    0.178649    0.689940    0.796628
    0.955018    1.091285    1.662405
 Highest eigenvalues
    0.178649    0.689940    0.796628    0.955018    1.091285    1.662405


........................................................................
.............................. CYCLE    1 ..............................
........................................................................
   1     -9.1829773 -0.918298E+01  0.892E-06    7.39       0.0  T
   2     -9.1829773 -0.275335E-12  0.506E-06    7.39    8846.3  T
   3     -9.1829773 -0.888178E-13  0.164E-06    7.39   27309.3  T
     SCC iter.                  ...        0 min,  0.001 sec
     gradient                   ...        0 min,  0.001 sec
 * total energy  :    -9.1211455 Eh     change        0.1173378E-08 Eh
   gradient norm :     0.0821781 Eh/α   predicted     0.0000000E+00 (-100.00%)
   displ. norm   :     0.4232107 α      lambda       -0.1748816E-01
   maximum displ.:     0.3942364 α      in ANC's #1, #3, #5, ...

........................................................................
.............................. CYCLE    2 ..............................
........................................................................
   1     -9.2018277 -0.920183E+01  0.658E-01    7.41       0.0  T
   2     -9.2018984 -0.706970E-04  0.376E-01    7.38       1.0  T
   3     -9.2018854  0.129423E-04  0.135E-01    7.39       1.0  T
   4     -9.2019132 -0.277340E-04  0.153E-02    7.38       2.9  T
   5     -9.2019132 -0.323977E-07  0.202E-03    7.38      22.2  T
   6     -9.2019132 -0.438041E-08  0.669E-04    7.38      66.8  T
   7     -9.2019132 -0.254559E-09  0.250E-04    7.38     178.9  T
     SCC iter.                  ...        0 min,  0.001 sec
     gradient                   ...        0 min,  0.001 sec
 * total energy  :    -9.1340994 Eh     change       -0.1295387E-01 Eh
   gradient norm :     0.0490859 Eh/α   predicted    -0.1031021E-01 ( -20.41%)
   displ. norm   :     0.3080540 α      lambda       -0.8818461E-02
   maximum displ.:     0.2580650 α      in ANC's #1, #3, #5, ...

........................................................................
.............................. CYCLE    3 ..............................
........................................................................
   1     -9.2160311 -0.921603E+01  0.663E-01    7.40       0.0  T
   2     -9.2161145 -0.833879E-04  0.385E-01    7.38       1.0  T
   3     -9.2161076  0.693254E-05  0.134E-01    7.38       1.0  T
   4     -9.2161294 -0.218593E-04  0.157E-02    7.37       2.8  T
   5     -9.2161295 -0.372368E-07  0.219E-03    7.37      20.4  T
   6     -9.2161295 -0.811001E-08  0.596E-04    7.37      75.0  T
   7     -9.2161295 -0.241661E-09  0.226E-04    7.37     198.3  T
     SCC iter.                  ...        0 min,  0.001 sec
     gradient                   ...        0 min,  0.001 sec
 * total energy  :    -9.1395862 Eh     change       -0.5486783E-02 Eh
   gradient norm :     0.0268699 Eh/α   predicted    -0.4827651E-02 ( -12.01%)
   displ. norm   :     0.1392438 α      lambda       -0.1671864E-02
   maximum displ.:     0.1193007 α      in ANC's #1, #5, #3, ...

........................................................................
.............................. CYCLE    4 ..............................
........................................................................
   1     -9.2204187 -0.922042E+01  0.284E-01    7.24       0.0  T
   2     -9.2204343 -0.155721E-04  0.166E-01    7.23       1.0  T
   3     -9.2204333  0.943454E-06  0.525E-02    7.23       1.0  T
   4     -9.2204365 -0.315521E-05  0.717E-03    7.23       6.2  T
   5     -9.2204365 -0.455551E-07  0.252E-03    7.23      17.7  T
   6     -9.2204365 -0.124703E-08  0.165E-04    7.23     271.5  T
   7     -9.2204365 -0.235794E-10  0.907E-05    7.23     493.3  T
     SCC iter.                  ...        0 min,  0.001 sec
     gradient                   ...        0 min,  0.001 sec
 * total energy  :    -9.1407483 Eh     change       -0.1162110E-02 Eh
   gradient norm :     0.0164175 Eh/α   predicted    -0.8521393E-03 ( -26.67%)
   displ. norm   :     0.0966787 α      lambda       -0.5898245E-03
   maximum displ.:     0.0852887 α      in ANC's #1, #5, #7, ...

........................................................................
.............................. CYCLE    5 ..............................
........................................................................
   1     -9.2219470 -0.922195E+01  0.170E-01    7.07       0.0  T
   2     -9.2219508 -0.378136E-05  0.102E-01    7.07       1.0  T
   3     -9.2219508  0.811409E-08  0.191E-02    7.07       2.3  T
   4     -9.2219513 -0.525161E-06  0.481E-03    7.07       9.3  T
   5     -9.2219513 -0.351089E-07  0.113E-03    7.07      39.6  T
   6     -9.2219513 -0.191060E-09  0.718E-05    7.07     622.8  T
   7     -9.2219513 -0.147615E-11  0.381E-05    7.07    1175.2  T
     SCC iter.                  ...        0 min,  0.000 sec
     gradient                   ...        0 min,  0.001 sec
 * total energy  :    -9.1410951 Eh     change       -0.3468420E-03 Eh
   gradient norm :     0.0037091 Eh/α   predicted    -0.2976690E-03 ( -14.18%)
   displ. norm   :     0.0302740 α      lambda       -0.3691642E-04
   maximum displ.:     0.0282625 α      in ANC's #1, #5, #7, ...

........................................................................
.............................. CYCLE    6 ..............................
........................................................................
   1     -9.2219355 -0.922194E+01  0.380E-02    7.01       0.0  T
   2     -9.2219358 -0.304069E-06  0.234E-02    7.02       1.9  T
   3     -9.2219358  0.172090E-07  0.563E-03    7.02       7.9  T
   4     -9.2219359 -0.517918E-07  0.102E-03    7.02      43.8  T
   5     -9.2219359 -0.164193E-08  0.869E-05    7.02     514.6  T
   6     -9.2219359 -0.193623E-12  0.562E-06    7.02    7951.6  T
     SCC iter.                  ...        0 min,  0.001 sec
     gradient                   ...        0 min,  0.001 sec
 * total energy  :    -9.1411156 Eh     change       -0.2046553E-04 Eh
   gradient norm :     0.0013279 Eh/α   predicted    -0.1847431E-04 (  -9.73%)
   displ. norm   :     0.0045314 α      lambda       -0.3110163E-05
   maximum displ.:     0.0033890 α      in ANC's #5, #3, #9, ...

........................................................................
.............................. CYCLE    7 ..............................
........................................................................
   1     -9.2223303 -0.922233E+01  0.129E-02    7.00       0.0  T
   2     -9.2223305 -0.153239E-06  0.791E-03    7.00       5.7  T
   3     -9.2223305 -0.129164E-07  0.395E-03    7.00      11.3  T
   4     -9.2223305 -0.397118E-08  0.631E-04    7.00      70.9  T
   5     -9.2223305 -0.446484E-09  0.510E-05    7.00     877.0  T
     SCC iter.                  ...        0 min,  0.000 sec
     gradient                   ...        0 min,  0.001 sec
 * total energy  :    -9.1411160 Eh     change       -0.4149591E-06 Eh
   gradient norm :     0.0012094 Eh/α   predicted    -0.1556008E-05 ( 274.98%)
   displ. norm   :     0.0028090 α      lambda       -0.1612541E-05
   maximum displ.:     0.0022394 α      in ANC's #1, #5, #7, ...

........................................................................
.............................. CYCLE    8 ..............................
........................................................................
   1     -9.2220598 -0.922206E+01  0.794E-03    7.01       0.0  T
   2     -9.2220598 -0.200764E-07  0.468E-03    7.01       9.6  T
   3     -9.2220598 -0.457431E-09  0.173E-03    7.01      25.8  T
   4     -9.2220598 -0.235015E-08  0.298E-04    7.01     150.1  T
   5     -9.2220598 -0.139456E-09  0.671E-05    7.01     666.5  T
     SCC iter.                  ...        0 min,  0.000 sec
     gradient                   ...        0 min,  0.001 sec
 * total energy  :    -9.1411171 Eh     change       -0.1074252E-05 Eh
   gradient norm :     0.0001573 Eh/α   predicted    -0.8052023E-06 ( -25.05%)
   displ. norm   :     0.0021988 α      lambda       -0.9125781E-07
   maximum displ.:     0.0020953 α      in ANC's #1, #5, #3, ...

   *** GEOMETRY OPTIMIZATION CONVERGED AFTER 8 ITERATIONS ***

------------------------------------------------------------------------
 total energy gain   :        -0.0199716 Eh      -12.5323 kcal/mol
 total RMSD          :         0.4396310 a0        0.2326 Å
 total power (kW/mol):        -6.5544153 (step)-2952.1159 (real)
------------------------------------------------------------------------

 ANCopt (total)                0 d,  0 h,  0 min,  0.018 sec
 optimizer setup                ...        0 min,  0.000 sec (  0.460%)
 model hessian                  ...        0 min,  0.000 sec (  0.590%)
 ANC generation                 ...        0 min,  0.000 sec (  0.337%)
 coordinate transformation      ...        0 min,  0.000 sec (  0.113%)
 single point calculation       ...        0 min,  0.017 sec ( 94.563%)
 optimization log               ...        0 min,  0.000 sec (  1.106%)
 hessian update                 ...        0 min,  0.000 sec (  0.106%)
 rational function              ...        0 min,  0.000 sec (  1.136%)

================
 final structure:
================
5
 xtb: 6.2.2 (9d81278992624c895f80dd42a50cac0aa55982e2)
C         0.70967856101643    0.05893758516878    0.34459164544552
C        -0.71917161920516    0.04428732874154    0.32663723513011
O        -0.00573666613781    1.00710349804302   -0.36523892683741
H         1.46540360917003   -0.54021645343338   -0.13467723223249
H        -1.45017388484349   -0.57011095851996   -0.17131272150574

 Bond Distances (Angstroems)
 ---------------------------
C1-C2=1.4290         C1-O3=1.3837         C1-H4=1.0769         C2-C1=1.4290         C2-O3=1.3837         C2-H5=1.0769         
O3-C1=1.3837         O3-C2=1.3837         H4-C1=1.0769         H5-C2=1.0769         
 C  H  Rav=1.0769 sigma=0.0000  Rmin=1.0769  Rmax=1.0769     2
 C  C  Rav=1.4290 sigma=0.0000  Rmin=1.4290  Rmax=1.4290     1
 O  C  Rav=1.3837 sigma=0.0000  Rmin=1.3837  Rmax=1.3837     2

 selected bond angles (degree)
 --------------------
O3-C1-C2= 58.91                H4-C1-C2=133.66                H4-C1-O3=121.05                O3-C2-C1= 58.91                
H5-C2-C1=133.66                H5-C2-O3=121.05                C2-O3-C1= 62.18                

 selected dihedral angles (degree)
 ---------------------------------
O3-C2-C1-H4=255.10            H5-C2-C1-O3=104.90            H5-C2-C1-H4=  0.00            C2-O3-C1-H4=125.31            
C1-O3-C2-H5=234.69            
           -------------------------------------------------
          |                Final Singlepoint                |
           -------------------------------------------------

          ...................................................
          :                      SETUP                      :
          :.................................................:
          :  # basis functions                  14          :
          :  # atomic orbitals                  14          :
          :  # shells                            8          :
          :  # electrons                        16          :
          :  max. iterations                   250          :
          :  Hamiltonian                  GFN2-xTB          :
          :  restarted?                      false          :
          :  GBSA solvation                  false          :
          :  PC potential                    false          :
          :  electronic temp.          300.0000000     K    :
          :  accuracy                    1.0000000          :
          :  -> integral cutoff          0.2500000E+02      :
          :  -> integral neglect         0.1000000E-07      :
          :  -> SCF convergence          0.1000000E-05 Eh   :
          :  -> wf. convergence          0.1000000E-03 e    :
          :  Broyden damping             0.4000000          :
          ...................................................

 iter      E             dE          RMSdq      gap      omega  full diag
   1     -9.2220598 -0.922206E+01  0.986E-06    7.01       0.0  T
   2     -9.2220598 -0.301981E-13  0.629E-06    7.01    7113.1  T
   3     -9.2220598 -0.355271E-14  0.255E-06    7.01   17566.1  T

   *** convergence criteria satisfied after 3 iterations ***

         #    Occupation            Energy/Eh            Energy/eV
      -------------------------------------------------------------
         1        2.0000           -0.7494210             -20.3928
       ...           ...                  ...                  ...
         3        2.0000           -0.6230767             -16.9548
         4        2.0000           -0.5797909             -15.7769
         5        2.0000           -0.5279340             -14.3658
         6        2.0000           -0.5272448             -14.3471
         7        2.0000           -0.4753914             -12.9361
         8        1.0000           -0.3623386              -9.8597
         9        1.0000           -0.3388500              -9.2206 (HOMO)
        10                         -0.0814107              -2.2153 (LUMO)
        11                          0.0932934               2.5386
        12                          0.1326742               3.6102
        13                          0.1930749               5.2538
        14                          0.4476851              12.1821
      -------------------------------------------------------------
                  HL-Gap            0.2574393 Eh            7.0053 eV
             Fermi-level           -0.3144976 Eh           -8.5579 eV

 transition dipole moment (au) for excitation:           8           9
     X       Y       Z   
  -1.2078  -0.0124  -0.0152  total (au/Debye):    1.208   3.070
 dE (eV)             :    0.639
 oscillator strength :  0.32314E-01

 SCC (total)                   0 d,  0 h,  0 min,  0.002 sec
 SCC setup                      ...        0 min,  0.000 sec (  1.947%)
 Dispersion                     ...        0 min,  0.000 sec (  0.421%)
 integral evaluation            ...        0 min,  0.001 sec ( 31.066%)
 zeroth order Hamiltonian       ...        0 min,  0.000 sec (  0.462%)
 iterations                     ...        0 min,  0.000 sec ( 10.315%)
 molecular gradient             ...        0 min,  0.001 sec ( 31.266%)
 printout                       ...        0 min,  0.001 sec ( 24.202%)

         :::::::::::::::::::::::::::::::::::::::::::::::::::::
         ::                     SUMMARY                     ::
         :::::::::::::::::::::::::::::::::::::::::::::::::::::
         :: total energy              -9.141117060898 Eh    ::
         :: gradient norm              0.000157457513 Eh/a0 ::
         :: HOMO-LUMO gap              7.005280319161 eV    ::
         ::.................................................::
         :: SCC energy                -9.222059777403 Eh    ::
         :: -> isotropic ES            0.008941357638 Eh    ::
         :: -> anisotropic ES         -0.000259745710 Eh    ::
         :: -> anisotropic XC          0.002420268182 Eh    ::
         :: -> dispersion             -0.001380662808 Eh    ::
         :: repulsion energy           0.080942694876 Eh    ::
         :: add. restraining           0.000000000000 Eh    ::
         :::::::::::::::::::::::::::::::::::::::::::::::::::::

           ------------------------------------------------- 
          |                Numerical Hessian                |
           ------------------------------------------------- 
step length          :   0.00500
SCC accuracy         :   0.30000
Hessian scale factor :   1.00000
frozen atoms in %    :   0.00000    0
RMS gradient         :   0.00016
estimated CPU  time      0.00 min
estimated wall time      0.00 min

writing file <hessian>.

 projected vibrational frequencies (cm-1)
eigval :       -0.00    -0.00    -0.00     0.00     0.00     0.00
eigval :      795.96   892.26   928.07   975.44  1034.46  1117.83
eigval :     1503.42  3028.91  3040.60
           -------------------------------------------------
          |                Property Printout                |
           -------------------------------------------------

    * Orbital Energies and Occupations

         #    Occupation            Energy/Eh            Energy/eV
      -------------------------------------------------------------
         1        2.0000           -0.7494210             -20.3928
         2        2.0000           -0.6461336             -17.5822
         3        2.0000           -0.6230767             -16.9548
         4        2.0000           -0.5797909             -15.7769
         5        2.0000           -0.5279340             -14.3658
         6        2.0000           -0.5272448             -14.3471
         7        2.0000           -0.4753914             -12.9361
         8        1.0000           -0.3623386              -9.8597
         9        1.0000           -0.3388500              -9.2206 (HOMO)
        10                         -0.0814106              -2.2153 (LUMO)
        11                          0.0932935               2.5386
        12                          0.1326743               3.6103
        13                          0.1930749               5.2538
        14                          0.4476851              12.1821
      -------------------------------------------------------------
                  HL-Gap            0.2574393 Eh            7.0053 eV
             Fermi-level           -0.3144976 Eh           -8.5579 eV

     #   Z        covCN         q      C6AA      α(0)
     1   6 C      2.758     0.039    27.111     8.527
     2   6 C      2.758     0.039    27.111     8.527
     3   8 O      1.704    -0.204    17.401     5.632
     4   1 H      0.926     0.063     2.160     2.298
     5   1 H      0.926     0.063     2.160     2.298

 Mol. C6AA /au·bohr⁶  :        305.351111
 Mol. C8AA /au·bohr⁸  :       7180.376917
 Mol. α(0) /au        :         27.281817


Wiberg/Mayer (AO) data.
largest (>0.10) Wiberg bond orders for each atom
          total WBO             WBO to atom ...
     1  C   2.976        C    2 1.025    O    3 1.009    H    4 0.934
     2  C   2.976        C    1 1.025    O    3 1.009    H    5 0.934
     3  O   2.028        C    1 1.009    C    2 1.009
     4  H   0.948        C    1 0.934
     5  H   0.948        C    2 0.934

MOs/occ written to file <molden.input>


molecular dipole:
                 x           y           z       tot (Debye)
 q only:        0.003      -0.514       0.154
   full:        0.009      -0.564      -0.223       1.541
molecular quadrupole (traceless):
                xx          xy          yy          xz          yz          zz
 q only:        1.430       0.020      -1.123       0.017       0.467      -0.307
  q+dip:        2.343       0.017      -1.424       0.024       1.687      -0.919
   full:        1.807       0.012      -1.120       0.017       1.418      -0.687

           -------------------------------------------------
          |                Geometry Summary                 |
           -------------------------------------------------

      molecular mass/u    :       42.0367582
   center of mass at/Å    :       -0.0045284       0.3861793       0.0454340
  moments of inertia/u·Å² :        0.1544444E+02   0.1756602E+02   0.3097649E+02
rotational constants/cm⁻¹ :        0.1091502E+01   0.9596730E+00   0.5442072E+00

 * 5 selected distances

     #   Z        #   Z                                     value/Å
     1   6 C      2   6 C                                 1.4290381 (max)
     1   6 C      3   8 O                                 1.3837258
     2   6 C      3   8 O                                 1.3837258
     1   6 C      4   1 H                                 1.0769422
     2   6 C      5   1 H                                 1.0769418 (min)

 * 3 distinct bonds (by element types)

   Z      Z             #   av. dist./Å        max./Å        min./Å
   1 H    6 C           2     1.0769420     1.0769422     1.0769418
   6 C    6 C           1     1.4290381     1.4290381     1.4290381
   6 C    8 O           2     1.3837258     1.3837258     1.3837258

           -------------------------------------------------
          |               Frequency Printout                |
           -------------------------------------------------
 projected vibrational frequencies (cm-1)
eigval :       -0.00    -0.00    -0.00     0.00     0.00     0.00
eigval :      795.96   892.26   928.07   975.44  1034.46  1117.83
eigval :     1503.42  3028.91  3040.60
 reduced masses (amu)
   1: 10.15   2: 12.78   3: 13.79   4: 12.51   5: 12.35   6: 10.46   7:  1.33   8:  4.95
   9:  5.25  10:  4.03  11: 10.02  12: 12.51  13: 12.29  14:  1.78  15:  1.92
 IR intensities (amu)
   1:  0.15   2:  0.13   3:  0.14   4:  0.15   5:  0.06   6:  0.15   7:  0.05   8:  0.31
   9:  0.00  10:  0.32  11:  0.40  12:  0.51  13:  0.69  14:  0.27  15:  0.19
 Raman intensities (amu)
   1:  0.00   2:  0.00   3:  0.00   4:  0.00   5:  0.00   6:  0.00   7:  0.00   8:  0.00
   9:  0.00  10:  0.00  11:  0.00  12:  0.00  13:  0.00  14:  0.00  15:  0.00
 output can be read by thermo (or use thermo option).
 writing <g98.out> molden fake output.
 recommended (thermochemical) frequency scaling factor: 1.0
Molecule has the following symmetry elements: (sigma) 
It seems to be the Cs point group
           -------------------------------------------------
          |             Thermodynamic Functions             |
           -------------------------------------------------

cs  symmetry found (for desy threshold:  0.10E+00) used in thermo

          ...................................................
          :                      SETUP                      :
          :.................................................:
          :  # frequencies                           9      :
          :  # imaginary freq.                       0      :
          :  linear?                             false      :
          :  only rotor calc.                    false      :
          :  symmetry                               cs      :
          :  rotational number                       1      :
          :  scaling factor                  1.0000000      :
          :  rotor cutoff                   50.0000000 cm⁻¹ :
          :  imag. cutoff                  -20.0000000 cm⁻¹ :
          :.................................................:

    mode    ω/cm⁻¹     T·S(HO)/kcal·mol⁻¹    T·S(FR)/kcal·mol⁻¹   T·S(vib)
   ------------------------------------------------------------------------
   ------------------------------------------------------------------------

   temp. (K)  partition function   enthalpy   heat capacity  entropy
                                   cal/mol     cal/K/mol   cal/K/mol   J/K/mol
 298.15  VIB   1.07                  178.561      2.716      0.734
         ROT  0.700E+04              888.752      2.981     20.576
         INT  0.749E+04             1067.313      5.697     21.310
         TR   0.264E+27             1481.254      4.968     37.118
         TOT                        2548.5672    10.6654    58.4279   244.4625

   temp. (K)  partition function   enthalpy   heat capacity  entropy
                                   cal/mol     cal/K/mol   cal/K/mol   J/K/mol
 120.00  VIB   1.00                    0.300      0.026      0.003
         ROT  0.179E+04              357.707      2.981     17.863
         INT  0.179E+04              358.007      3.007     17.866
         TR   0.673E+26              596.178      4.968     32.599
         TOT                         954.1849     7.9748    50.4647   211.1442

   temp. (K)  partition function   enthalpy   heat capacity  entropy
                                   cal/mol     cal/K/mol   cal/K/mol   J/K/mol
 100.00  VIB   1.00                    0.039      0.005      0.000
         ROT  0.136E+04              298.089      2.981     17.320
         INT  0.136E+04              298.128      2.986     17.320
         TR   0.512E+26              496.815      4.968     31.693
         TOT                         794.9428     7.9538    49.0135   205.0725

   temp. (K)  partition function   enthalpy   heat capacity  entropy
                                   cal/mol     cal/K/mol   cal/K/mol   J/K/mol
  80.00  VIB   1.00                    0.002      0.000     -0.000
         ROT   973.                  238.471      2.981     16.655
         INT   973.                  238.473      2.981     16.655
         TR   0.367E+26              397.452      4.968     30.585
         TOT                         635.9251     7.9494    47.2399   197.6516

   temp. (K)  partition function   enthalpy   heat capacity  entropy
                                   cal/mol     cal/K/mol   cal/K/mol   J/K/mol
  60.00  VIB   1.00                    0.000      0.000     -0.000
         ROT   632.                  178.853      2.981     15.797
         INT   632.                  178.853      2.981     15.797
         TR   0.238E+26              298.089      4.968     29.157
         TOT                         476.9424     7.9490    44.9537   188.0863

   temp. (K)  partition function   enthalpy   heat capacity  entropy
                                   cal/mol     cal/K/mol   cal/K/mol   J/K/mol
  40.00  VIB   1.00                    0.000      0.000     -0.000
         ROT   344.                  119.236      2.981     14.588
         INT   344.                  119.236      2.981     14.588
         TR   0.130E+26              198.726      4.968     27.143
         TOT                         317.9616     7.9490    41.7316   174.6051

   temp. (K)  partition function   enthalpy   heat capacity  entropy
                                   cal/mol     cal/K/mol   cal/K/mol   J/K/mol
  20.00  VIB   1.00                    0.000      0.000     -0.000
         ROT   122.                   59.618      2.981     12.522
         INT   122.                   59.618      2.981     12.522
         TR   0.458E+25               99.363      4.968     23.701
         TOT                         158.9808     7.9490    36.2234   151.5588

   temp. (K)  partition function   enthalpy   heat capacity  entropy
                                   cal/mol     cal/K/mol   cal/K/mol   J/K/mol
  10.00  VIB   1.00                    0.000      0.000     -0.000
         ROT   43.0                   29.809      2.981     10.456
         INT   43.0                   29.809      2.981     10.456
         TR   0.162E+25               49.681      4.968     20.259
         TOT                          79.4904     7.9490    30.7152   128.5124

       T/K    H(0)-H(T)+PV         H(T)/Eh          T*S/Eh         G(T)/Eh
   ------------------------------------------------------------------------
    298.15    0.406140E-02    0.343996E-01    0.277610E-01    0.663862E-02
    120.00    0.152059E-02    0.318588E-01    0.965047E-02    0.222083E-01
    100.00    0.126682E-02    0.316050E-01    0.781080E-02    0.237943E-01
     80.00    0.101341E-02    0.313516E-01    0.602252E-02    0.253291E-01
     60.00    0.760056E-03    0.310983E-01    0.429830E-02    0.268000E-01
     40.00    0.506704E-03    0.308449E-01    0.266014E-02    0.281848E-01
     20.00    0.253352E-03    0.305916E-01    0.115451E-02    0.294371E-01
     10.00    0.126676E-03    0.304649E-01    0.489478E-03    0.299754E-01 (used)
   ------------------------------------------------------------------------

         :::::::::::::::::::::::::::::::::::::::::::::::::::::
         ::                  THERMODYNAMIC                  ::
         :::::::::::::::::::::::::::::::::::::::::::::::::::::
         :: total free energy          -9.111141636045 Eh   ::
         ::.................................................::
         :: total energy               -9.141117060850 Eh   ::
         :: zero point energy           0.030338226737 Eh   ::
         :: G(RRHO) w/o ZPVE           -0.000362801932 Eh   ::
         :: G(RRHO) contrib.            0.029975424805 Eh   ::
         :::::::::::::::::::::::::::::::::::::::::::::::::::::

optimized geometry written to: xtbopt.xyz


           -------------------------------------------------
          | TOTAL ENERGY               -9.141117060850 Eh   |
          | TOTAL ENTHALPY             -9.110652158098 Eh   |
          | TOTAL FREE ENERGY          -9.111141636045 Eh   |
          | GRADIENT NORM               0.000157442840 Eh/α |
          | HOMO-LUMO GAP               7.005280317929 eV   |
           -------------------------------------------------

------------------------------------------------------------------------
 * finished run on 2020/05/12 at 11:45:15.833     
------------------------------------------------------------------------
 total:
 * wall-time:     0 d,  0 h,  0 min,  0.099 sec
 *  cpu-time:     0 d,  0 h,  0 min,  0.098 sec
 * ratio c/w:     0.999 speedup
 SCF:
 * wall-time:     0 d,  0 h,  0 min,  0.004 sec
 *  cpu-time:     0 d,  0 h,  0 min,  0.004 sec
 * ratio c/w:     0.994 speedup
 ANC optimizer:
 * wall-time:     0 d,  0 h,  0 min,  0.021 sec
 *  cpu-time:     0 d,  0 h,  0 min,  0.021 sec
 * ratio c/w:     0.999 speedup
 numerical hessian:
 * wall-time:     0 d,  0 h,  0 min,  0.057 sec
 *  cpu-time:     0 d,  0 h,  0 min,  0.057 sec
 * ratio c/w:     1.000 speedup

