$hessian                                                                        
        0.6072242832  -0.0560906441   0.0047388961  -0.4317941515   0.1410124650
       -0.0079974591  -0.1114058471  -0.1255928200   0.0053370054  -0.0271945309
        0.0378690273  -0.0018624364  -0.0368297537   0.0028019717  -0.0002160059
       -0.0560906441   0.3281374254  -0.0135464502   0.1120406650  -0.1318368008
        0.0053418720  -0.0813791763  -0.1803354218   0.0068360197   0.0431225189
       -0.0263010851   0.0023468183  -0.0176933635   0.0103358823  -0.0009782598
        0.0047388961  -0.0135464502   0.0430971521  -0.0066830992   0.0054853603
       -0.0264956152   0.0034437653   0.0066369349  -0.0279649247  -0.0022198365
        0.0024439985   0.0228053013   0.0007202744  -0.0010198435  -0.0114419135
       -0.4317941515   0.1120406650  -0.0066830992   0.7468639490  -0.0027582346
        0.0027851169  -0.0398498370   0.0133407992  -0.0006100010  -0.0565009200
        0.0339533695  -0.0019580239  -0.2187190406  -0.1565765991   0.0064660072
        0.1410124650  -0.1318368008   0.0054853603  -0.0027582346   0.6172739260
       -0.0260749921  -0.0303817122   0.0011661730  -0.0000617821   0.0524721121
       -0.2872914922   0.0130922970  -0.1603446303  -0.1993118061   0.0075591169
       -0.0079974591   0.0053418720  -0.0264956152   0.0027851169  -0.0260749921
        0.0752244316   0.0012737602   0.0001482257   0.0031579589  -0.0027611316
        0.0129043787  -0.0291794646   0.0066997136   0.0076805157  -0.0227073108
       -0.1114058471  -0.0813791763   0.0034437653  -0.0398498370  -0.0303817122
        0.0012737602   0.1581117477   0.1123641760  -0.0046894061   0.0009720274
       -0.0028396393   0.0001756956  -0.0078280910   0.0022363519  -0.0002038149
       -0.1255928200  -0.1803354218   0.0066369349   0.0133407992   0.0011661730
        0.0001482257   0.1123641760   0.1664226969  -0.0063120080  -0.0016439982
        0.0096648510  -0.0009653866   0.0015318430   0.0030817008   0.0004922341
        0.0053370054   0.0068360197  -0.0279649247  -0.0006100010  -0.0000617821
        0.0031579589  -0.0046894061  -0.0063120080   0.0216669207   0.0001040632
       -0.0010210331  -0.0114291068  -0.0001416615   0.0005588036   0.0145691519
       -0.0271945309   0.0431225189  -0.0022198365  -0.0565009200   0.0524721121
       -0.0027611316   0.0009720274  -0.0016439982   0.0001040632   0.0785780308
       -0.0718649689   0.0037703274   0.0041453928  -0.0220856640   0.0011065774
        0.0378690273  -0.0263010851   0.0024439985   0.0339533695  -0.2872914922
        0.0129043787  -0.0028396393   0.0096648510  -0.0010210331  -0.0718649689
        0.3292943746  -0.0156238132   0.0028822113  -0.0253666483   0.0012964691
       -0.0018624364   0.0023468183   0.0228053013  -0.0019580239   0.0130922970
       -0.0291794646   0.0001756956  -0.0009653866  -0.0114291068   0.0037703274
       -0.0156238132   0.0167322444  -0.0001255627   0.0011500846   0.0010710258
       -0.0368297537  -0.0176933635   0.0007202744  -0.2187190406  -0.1603446303
        0.0066997136  -0.0078280910   0.0015318430  -0.0001416615   0.0041453928
        0.0028822113  -0.0001255627   0.2592314926   0.1736239395  -0.0071527638
        0.0028019717   0.0103358823  -0.0010198435  -0.1565765991  -0.1993118061
        0.0076805157   0.0022363519   0.0030817008   0.0005588036  -0.0220856640
       -0.0253666483   0.0011500846   0.1736239395   0.2112608713  -0.0083695603
       -0.0002160059  -0.0009782598  -0.0114419135   0.0064660072   0.0075591169
       -0.0227073108  -0.0002038149   0.0004922341   0.0145691519   0.0011065774
        0.0012964691   0.0010710258  -0.0071527638  -0.0083695603   0.0185090466
