[Molden Format]
[Title]
[Atoms] AU
C      1     6  0.15023664303999E+01 -0.96064400150974E+00  0.50204024636161E-01
N      2     7 -0.78549902003606E+00 -0.92581467305345E-01  0.28152926179131E-02
H      3     1  0.28657523103230E+01  0.62943713104293E+00 -0.17837822349231E-01
H      4     1 -0.13435706664428E+01  0.17618680877269E+01 -0.90333802158452E-01
H      5     1 -0.22390490542440E+01 -0.13380797499547E+01  0.55152307253609E-01
[GTO]
           1 0
 s           4   1.0000000000000000     
   51.049363095579913      -0.16312063210127389     
   8.7911227406887544      -0.19911024581000730     
  0.70640422258929825       0.31882047753655751     
  0.26922813413411617       0.12706504184240380     
 p           4   1.0000000000000000     
   5.8263656140800002       0.73716451545209605     
   1.5106896018720002       0.68216371614850257     
  0.53256483288000001       0.35783053929253711     
  0.21202323690600003        5.3983030275847881E-002

           2 0
 s           4   1.0000000000000000     
   63.594024466941008      -0.19234388414721629     
   10.951417231523665      -0.23478107924953728     
  0.87999310257376984       0.37593753901700888     
  0.33538715296521110       0.14982889271862770     
 p           4   1.0000000000000000     
   7.2965040481495080       0.97658666315667420     
   1.8918745450712575       0.90372226730345739     
  0.66694432110824120       0.47404958461536373     
  0.26552202674130870        7.1516067715011844E-002

           3 0
 s           3   1.0000000000000000     
   3.3702276975336001       0.27359110588908298     
  0.61389118221497996       0.26460540653860526     
  0.16614291148415999        8.2465947534082318E-002

           4 0
 s           3   1.0000000000000000     
   3.3702276975336001       0.27359110588908298     
  0.61389118221497996       0.26460540653860526     
  0.16614291148415999        8.2465947534082318E-002

           5 0
 s           3   1.0000000000000000     
   3.3702276975336001       0.27359110588908298     
  0.61389118221497996       0.26460540653860526     
  0.16614291148415999        8.2465947534082318E-002

[MO]
Sym=     1a
Ene=  -0.63909541317029617     
Spin= Alpha
Occup=     2.00000000
           1 -0.28885592175109137     
           2  0.15209569374012522     
           3  -5.5752966003110728E-002
           4   3.1160824265188281E-003
           5 -0.62393028858513955     
           6  -7.5918816254426702E-002
           7   2.8340557225213579E-002
           8  -1.2303941612503647E-003
           9  -5.3829393520903726E-002
          10 -0.17891487770291553     
          11 -0.17911142840589453     
Sym=     2a
Ene=  -0.58260957526873414     
Spin= Alpha
Occup=     2.00000000
           1 -0.44086549838020728     
           2   6.2585599329546840E-002
           3  -5.0693744924370863E-002
           4   2.3788372098956616E-003
           5  0.15338473776035377     
           6 -0.50767958457201823     
           7  0.15794074520645582     
           8  -9.5776913023667507E-003
           9 -0.14692976178744713     
          10  0.24221213478662570     
          11  0.23538635488305101     
Sym=     3a
Ene=  -0.55430288515700088     
Spin= Alpha
Occup=     2.00000000
           1   1.7800819230172502E-002
           2  -9.8376328091848111E-002
           3 -0.15860413777023522     
           4   7.2661514309961782E-003
           5  -3.8731333813602029E-003
           6 -0.15616895819318657     
           7 -0.59846337513835091     
           8   2.8124494097083556E-002
           9  -9.9082695286140943E-002
          10 -0.35434419103249176     
          11  0.32660053698061403     
Sym=     4a
Ene=  -0.47037666802761241     
Spin= Alpha
Occup=     2.00000000
           1   8.5012094615691833E-004
           2   1.4218385168965340E-003
           3  -1.8801585837358338E-002
           4 -0.39231800547175943     
           5  -1.2984157576990227E-003
           6   2.9416237563950737E-003
           7  -4.0446867961248190E-002
           8 -0.84403798480248782     
           9   1.0613739238603287E-005
          10   2.7644056168689895E-004
          11   2.5178454237275637E-004
Sym=     5a
Ene=  -0.46303649795795104     
Spin= Alpha
Occup=     2.00000000
           1  0.32328230224300725     
           2  0.47339927360297268     
           3   9.9054933858605445E-003
           4   1.3949703923833926E-003
           5 -0.16934166713902751     
           6 -0.33825069949599440     
           7  -3.3032869196467404E-002
           8   8.5795650196035902E-004
           9  0.47192714702160266     
          10   1.8964379339443716E-002
          11  0.22317603227224833     
Sym=     6a
Ene=  -0.33594572144841683     
Spin= Alpha
Occup=     2.00000000
           1  0.51365641463073652     
           2   8.0734939173202541E-002
           3 -0.76140165269775006     
           4   3.6330065526158029E-002
           5  -9.5220280234863341E-002
           6  -4.5038722346994693E-002
           7  0.12466552686325080     
           8  -5.2334868530588153E-003
           9 -0.28761963432937776     
          10  0.26707818967762037     
          11 -0.13219859327114078     
Sym=     7a
Ene=  -0.23159501744966637     
Spin= Alpha
Occup=     0.00000000
           1  -5.7171570071809475E-004
           2  -3.5666564085729828E-003
           3   4.3822109963371637E-002
           4  0.94061900805765852     
           5  -1.1510670819160538E-003
           6   2.2863022001041225E-003
           7  -2.7485802679295981E-002
           8 -0.57110244268279187     
           9   4.0285657058320974E-004
          10   1.0055208186523954E-003
          11   2.4962821965093492E-004
Sym=     8a
Ene=    1.9969886364242354E-002
Spin= Alpha
Occup=     0.00000000
           1  -3.0148666698387023E-002
           2  0.34320083569765741     
           3 -0.11635091264602708     
           4   7.3653947051776384E-003
           5   1.0519009131522119     
           6 -0.31147741559413172     
           7  0.18763929221058093     
           8  -1.1976043361535314E-002
           9  -5.7368576707627850E-002
          10 -0.79010406073026695     
          11 -0.61379012671121602     
Sym=     9a
Ene=   0.12749326399796365     
Spin= Alpha
Occup=     0.00000000
           1  0.45050682693279420     
           2  0.42729520133245164     
           3  0.37732060312617488     
           4  -1.5406239185995711E-002
           5 -0.11206121248275686     
           6  0.28576833342149505     
           7  0.58456719640883603     
           8  -2.7097612456446530E-002
           9 -0.81250324988273637     
          10 -0.46228220916204593     
          11  0.74714678674464607     
Sym=    10a
Ene=   0.28549344509122349     
Spin= Alpha
Occup=     0.00000000
           1  0.48036510496984519     
           2  0.37153150477997032     
           3  0.63656630540237491     
           4  -2.8163617189882136E-002
           5   1.8002621159406082E-003
           6 -0.34820175713744167     
           7 -0.72803882100595418     
           8   3.3505164782659615E-002
           9 -0.76012080066534649     
          10  0.56353898176728923     
          11 -0.61591741957171797     
Sym=    11a
Ene=   0.45457009213294236     
Spin= Alpha
Occup=     0.00000000
           1 -0.69147282591216330     
           2  0.91773380928938331     
           3 -0.29501440360850911     
           4   1.6428425390557243E-002
           5  0.39838729036074122     
           6  0.93780173296557467     
           7 -0.46259818910115430     
           8   2.5131455174882755E-002
           9  -4.9250211997981741E-002
          10  0.38599406274582293     
          11  0.18512760671604972     
