5
 energy: -6.403994769131 gnorm: 0.050024831827 xtb: 6.2.2 (9d81278992624c895f80dd42a50cac0aa55982e2)
C         0.85474500000000   -0.22631400000000    0.49262800000000
N        -0.58164500000000   -0.05130700000000    0.35092700000000
H         1.37129700000000    0.01190300000000   -0.46287100000000
H        -0.74809200000000    0.93557400000000    0.04984600000000
H        -0.89630500000000   -0.66985600000000   -0.43053000000000
5
 energy: -6.406590586010 gnorm: 0.022109981317 xtb: 6.2.2 (9d81278992624c895f80dd42a50cac0aa55982e2)
C         0.82984210009099   -0.22476540387682    0.49512946253620
N        -0.57289174633796   -0.05610391367529    0.36425802703174
H         1.34202877262871    0.01620268194666   -0.46820247474982
H        -0.72791448340586    0.90761631439369    0.03638614419411
H        -0.87106464297589   -0.64294967878824   -0.42757115901223
5
 energy: -6.407047309128 gnorm: 0.005552287027 xtb: 6.2.2 (9d81278992624c895f80dd42a50cac0aa55982e2)
C         0.81710678381145   -0.22254805194056    0.49157986860267
N        -0.56270372029196   -0.05821730885237    0.36818127216483
H         1.34932154574043    0.01557606800821   -0.46827287952988
H        -0.73149358030820    0.89467742017989    0.03227250705609
H        -0.87223102895172   -0.62948812739518   -0.42376076829371
5
 energy: -6.407081950462 gnorm: 0.002122110119 xtb: 6.2.2 (9d81278992624c895f80dd42a50cac0aa55982e2)
C         0.81921051309172   -0.22334270155294    0.49305734743268
N        -0.55925173201309   -0.05854777480585    0.36824780478035
H         1.35181952671801    0.01551808463501   -0.46818579341298
H        -0.73546154885086    0.89486620456398    0.03124155666030
H        -0.87631675894577   -0.62849381284019   -0.42436091546035
5
 energy: -6.407091714222 gnorm: 0.001179180982 xtb: 6.2.2 (9d81278992624c895f80dd42a50cac0aa55982e2)
C         0.82028057217184   -0.22522850845558    0.49253020667766
N        -0.55794263770202   -0.05884823860111    0.36917356132721
H         1.35572884669597    0.01735825621906   -0.46737580197667
H        -0.73745818300500    0.89465044873049    0.02935428044689
H        -0.88060859816078   -0.62793195789285   -0.42368224647508
5
 energy: -6.408317532128 gnorm: 0.052342370710 xtb: 6.2.2 (9d81278992624c895f80dd42a50cac0aa55982e2)
C         0.83494286176711   -0.28965172251112    0.47519597683277
N        -0.53537362543344   -0.06219059317028    0.38486491529872
H         1.42024569540487    0.08946273220641   -0.44188211535150
H        -0.74710053594877    0.89008891294503   -0.02421757109556
H        -0.97271439578978   -0.62770932947004   -0.39396120568444
5
 energy: -6.412213548719 gnorm: 0.092962529696 xtb: 6.2.2 (9d81278992624c895f80dd42a50cac0aa55982e2)
C         0.84131039275458   -0.36772037003825    0.44237964386301
N        -0.51291986121987   -0.05718992946886    0.37849817213752
H         1.48899025938316    0.17509690607080   -0.40371063580562
H        -0.74930299028630    0.89675993535746   -0.07109409250372
H        -1.06807780063157   -0.64694654192114   -0.34607308769118
5
 energy: -6.418947748251 gnorm: 0.141762714214 xtb: 6.2.2 (9d81278992624c895f80dd42a50cac0aa55982e2)
C         0.81563399339285   -0.54922712524209    0.34324932055934
N        -0.48148735208746   -0.01174542518456    0.29397104503968
H         1.56659848909186    0.35436198525390   -0.30621759446267
H        -0.71822511551093    0.94994981100964   -0.12248660786128
H        -1.18252001488631   -0.74333924583689   -0.20851616327508
5
 energy: -6.437421711263 gnorm: 0.107861089311 xtb: 6.2.2 (9d81278992624c895f80dd42a50cac0aa55982e2)
C         0.74460666710994   -0.50564507813249    0.31080700822769
N        -0.51779819905793    0.01789179908044    0.20886813414607
H         1.42924504772779    0.29514755160594   -0.30101022610055
H        -0.65623004688342    0.95371421325058   -0.04113993277927
H        -0.99982346889638   -0.76110848580446   -0.17752498349394
5
 energy: -6.452160207815 gnorm: 0.077855957939 xtb: 6.2.2 (9d81278992624c895f80dd42a50cac0aa55982e2)
C         0.74409639821485   -0.44690612051275    0.25507689743980
N        -0.47466962475638   -0.02794622099957    0.18276306947298
H         1.52670581709405    0.28900752580671   -0.24436277289525
H        -0.67151870378043    0.91216842091325   -0.04058440222798
H        -1.12461388677209   -0.72632360520764   -0.15289279178956
5
 energy: -6.464073873335 gnorm: 0.083977524999 xtb: 6.2.2 (9d81278992624c895f80dd42a50cac0aa55982e2)
C         0.77287456491882   -0.48261424751765    0.17398670763593
N        -0.41613366400453   -0.03638775166904    0.10556534524269
H         1.56788848261064    0.31851280205845   -0.14877665162533
H        -0.71656040990017    0.93250224183852   -0.04818143559621
H        -1.20806897362476   -0.73201304471028   -0.08259396565707
5
 energy: -6.471367448055 gnorm: 0.040928970807 xtb: 6.2.2 (9d81278992624c895f80dd42a50cac0aa55982e2)
C         0.81391205934138   -0.49170788207152    0.10804139944869
N        -0.40463449472058   -0.04245368995777    0.05133248267821
H         1.53582936566232    0.29411571934422   -0.07943999813687
H        -0.76222445469011    0.95478519649398   -0.03953428156421
H        -1.18288247559302   -0.71473934380892   -0.04039960242582
5
 energy: -6.473781217713 gnorm: 0.036804194069 xtb: 6.2.2 (9d81278992624c895f80dd42a50cac0aa55982e2)
C         0.78514801692024   -0.53243233295399    0.01734067688503
N        -0.41336715805666   -0.04269325464379    0.00615169036708
H         1.54214653602769    0.34328078571068   -0.01006851659963
H        -0.72917195978032    0.94877858368579   -0.05284928767787
H        -1.18475543511096   -0.71693378179869    0.03942543702540
5
 energy: -6.475087517213 gnorm: 0.012597108330 xtb: 6.2.2 (9d81278992624c895f80dd42a50cac0aa55982e2)
C         0.78763559507674   -0.50908899090892    0.03755099694029
N        -0.41933886542058   -0.04919822137590    0.01658332079821
H         1.51571608339141    0.33307157835353   -0.02342952130254
H        -0.70793534258064    0.93397669673829   -0.05074497247592
H        -1.17607747046693   -0.70876106280701    0.02004017603996
5
 energy: -6.475195765680 gnorm: 0.009886993210 xtb: 6.2.2 (9d81278992624c895f80dd42a50cac0aa55982e2)
C         0.79642577967584   -0.50358360720315    0.03089117050779
N        -0.41329572094243   -0.05031370410430    0.00082993070979
H         1.51772034212119    0.33233071203143   -0.01099647069088
H        -0.70897712724304    0.93209758842219   -0.04603985838487
H        -1.19187327361156   -0.71053098914616    0.02531522785817
5
 energy: -6.475267597278 gnorm: 0.001134590319 xtb: 6.2.2 (9d81278992624c895f80dd42a50cac0aa55982e2)
C         0.79527994828918   -0.50835546083673    0.02775027191001
N        -0.41591171180834   -0.04898521876489    0.00328923821063
H         1.51774759753557    0.33323509942307   -0.01062560289189
H        -0.71128146014220    0.93263557111494   -0.04823164483253
H        -1.18583437387421   -0.70852999093639    0.02781773760378
5
 energy: -6.475268110697 gnorm: 0.001371197237 xtb: 6.2.2 (9d81278992624c895f80dd42a50cac0aa55982e2)
C         0.79458047238363   -0.50874371147292    0.02637321891744
N        -0.41491442116095   -0.04902979779188    0.00165185846264
H         1.51510475223510    0.33325606103326   -0.00913510092113
H        -0.71079336887194    0.93219552815867   -0.04823033674498
H        -1.18397743458585   -0.70767807992713    0.02934036028603
5
 energy: -6.475269924398 gnorm: 0.000419393248 xtb: 6.2.2 (9d81278992624c895f80dd42a50cac0aa55982e2)
C         0.79502072012295   -0.50834684421402    0.02656871611136
N        -0.41566796782593   -0.04899418622602    0.00148825236774
H         1.51648924431218    0.33309177313613   -0.00943349505431
H        -0.71099175873156    0.93233688784668   -0.04780344850654
H        -1.18485023787764   -0.70808763054278    0.02917997508175
