 Entering Gaussian System
 *********************************************
 Gaussian 98:
 frequency output generated by the xtb code
 *********************************************
                         Standard orientation:
 --------------------------------------------------------------------
  Center     Atomic     Atomic              Coordinates (Angstroms)
  Number     Number      Type              X           Y           Z
 --------------------------------------------------------------------
    1          6             0       -0.895557    0.722603   -0.039313
    2          6             0        0.351728   -0.022484    0.015430
    3          6             0       -0.980183   -0.602692   -0.041487
    4          8             0        1.524012   -0.097427    0.065370
 --------------------------------------------------------------------
     1 basis functions        1 primitive gaussians
     1 alpha electrons        1 beta electrons

 Harmonic frequencies (cm**-1), IR intensities (KM/Mole),
 Raman scattering activities (A**4/amu), Raman depolarization ratios,
 reduced masses (AMU), force constants (mDyne/A) and normal coordinates:
                      1                      2                      3
                        a                      a                      a 
 Frequencies --   427.5317               496.4076               837.6026
 Red. masses --    12.9486                12.6335                12.0193
 Frc consts  --     0.0000                 0.0000                 0.0000
 IR Inten    --     0.4321                 0.6653                 0.0974
 Raman Activ --     0.0000                 0.0000                 0.0000
 Depolar     --     0.0000                 0.0000                 0.0000
 Atom AN      X      Y      Z        X      Y      Z        X      Y      Z
   1   6    -0.33  -0.06  -0.01     0.01  -0.00  -0.21    -0.54   0.30  -0.02
   2   6     0.05   0.73   0.00    -0.04   0.00   0.87    -0.03  -0.47  -0.00
   3   6     0.32  -0.11   0.01     0.01  -0.00  -0.21     0.58   0.23   0.02
   4   8    -0.03  -0.48  -0.00     0.02  -0.00  -0.39    -0.00  -0.05  -0.00
                      4                      5                      6
                        a                      a                      a 
 Frequencies --   921.7136              1639.4631              2071.1922
 Red. masses --    13.4828                12.2529                13.0587
 Frc consts  --     0.0000                 0.0000                 0.0000
 IR Inten    --     0.0307                 0.1881                 2.5137
 Raman Activ --     0.0000                 0.0000                 0.0000
 Depolar     --     0.0000                 0.0000                 0.0000
 Atom AN      X      Y      Z        X      Y      Z        X      Y      Z
   1   6    -0.51  -0.10  -0.02    -0.03   0.68  -0.00     0.10  -0.17   0.00
   2   6     0.30  -0.02   0.01    -0.13   0.01  -0.01    -0.81   0.05  -0.03
   3   6    -0.49   0.17  -0.02    -0.12  -0.67  -0.00     0.12   0.15   0.01
   4   8     0.61  -0.04   0.03     0.25  -0.02   0.01     0.51  -0.03   0.02
