4
 energy: -9.968056471341 gnorm: 0.217970205011 xtb: 6.2.2 (9d81278992624c895f80dd42a50cac0aa55982e2)
C        -0.60879000000000    1.27774600000000   -0.11463400000000
C         0.03866200000000   -0.00307200000000    0.36755500000000
C        -0.76633100000000   -1.18956000000000   -0.11868600000000
O         1.33645900000000   -0.08511400000000   -0.13423500000000
4
 energy: -10.026313429190 gnorm: 0.135712817561 xtb: 6.2.2 (9d81278992624c895f80dd42a50cac0aa55982e2)
C        -0.63883871516823    1.18127277439507   -0.08071530147556
C         0.08178282677962   -0.00562538502609    0.24522674999558
C        -0.78387481500529   -1.09016039383978   -0.08444525534133
O         1.34093070339390   -0.08548699552920   -0.08006619317869
4
 energy: -10.088297154614 gnorm: 0.126056524556 xtb: 6.2.2 (9d81278992624c895f80dd42a50cac0aa55982e2)
C        -0.72539539631262    0.95861565895422   -0.07026297317955
C         0.21196772940174   -0.01379975276763    0.16307795781395
C        -0.84140482175035   -0.85833628209299   -0.07324788224335
O         1.35483248866123   -0.08647962409361   -0.01956710239105
4
 energy: -10.183295393861 gnorm: 0.298590414138 xtb: 6.2.2 (9d81278992624c895f80dd42a50cac0aa55982e2)
C        -0.88295127223812    0.70408727250427   -0.05237373102180
C         0.37973038940773   -0.02431637338725    0.04487617864481
C        -0.96531210382349   -0.58589650315229   -0.05449368145735
O         1.46853298665389   -0.09387439596474    0.06199123383433
4
 energy: -10.176055383584 gnorm: 0.196363821307 xtb: 6.2.2 (9d81278992624c895f80dd42a50cac0aa55982e2)
C        -0.91922252380736    0.77465296672163   -0.00365468504240
C         0.34243360673438   -0.02170987441427   -0.09121597675941
C        -1.01027229230472   -0.65143519813745   -0.00599882135000
O         1.58706120937770   -0.10150789416991    0.10086948315182
4
 energy: -10.196416705208 gnorm: 0.112798124553 xtb: 6.2.2 (9d81278992624c895f80dd42a50cac0aa55982e2)
C        -0.89702316264037    0.71138685607821   -0.03014008996048
C         0.33330137687822   -0.02126861409111   -0.00609772553572
C        -0.98020660310696   -0.59142149855123   -0.03228088618383
O         1.54392838886911   -0.09869674343588    0.06851870168002
4
 energy: -10.190923236053 gnorm: 0.115146936602 xtb: 6.2.2 (9d81278992624c895f80dd42a50cac0aa55982e2)
C        -0.85789327347265    0.75640742514575   -0.05680216138485
C         0.33207083306289   -0.02132896855720    0.07680372215594
C        -0.94712064807178   -0.64096702753590   -0.05909709047671
O         1.47294308848153   -0.09411142905265    0.03909552970562
4
 energy: -10.199265641512 gnorm: 0.048056470138 xtb: 6.2.2 (9d81278992624c895f80dd42a50cac0aa55982e2)
C        -0.90321608653427    0.72015140718443   -0.03889805534141
C         0.36622956085074   -0.02339718483572    0.00871179833011
C        -0.98746473416662   -0.59929884302021   -0.04106546357847
O         1.52445125985015   -0.09745537932850    0.07125172058977
4
 energy: -10.199335036420 gnorm: 0.048269706115 xtb: 6.2.2 (9d81278992624c895f80dd42a50cac0aa55982e2)
C        -0.89258699185789    0.72366189144856   -0.03772655984382
C         0.34034226288096   -0.02175405769524    0.01480782220024
C        -0.97736770688311   -0.60413608894267   -0.03990776559127
O         1.52961243586004   -0.09777174481064    0.06282650323485
4
 energy: -10.199933347059 gnorm: 0.001848757728 xtb: 6.2.2 (9d81278992624c895f80dd42a50cac0aa55982e2)
C        -0.89580577254717    0.72292425333358   -0.03924452015620
C         0.35168532510618   -0.02247959834592    0.01523717840915
C        -0.98046886653461   -0.60299114776834   -0.04142238681472
O         1.52458931397560   -0.09745350721933    0.06542972856176
4
 energy: -10.199934095687 gnorm: 0.001150488819 xtb: 6.2.2 (9d81278992624c895f80dd42a50cac0aa55982e2)
C        -0.89549636999578    0.72233124850328   -0.03945193883483
C         0.35179933330781   -0.02248703218527    0.01582830111422
C        -0.98008220289972   -0.60243987400805   -0.04162828531331
O         1.52377923958769   -0.09740434230996    0.06525192303392
4
 energy: -10.199934665782 gnorm: 0.000104285684 xtb: 6.2.2 (9d81278992624c895f80dd42a50cac0aa55982e2)
C        -0.89556021559119    0.72259875776049   -0.03931465056711
C         0.35172759916070   -0.02248231516830    0.01543100915810
C        -0.98017953098955   -0.60269719387546   -0.04149165506827
O         1.52401214742005   -0.09741924871673    0.06537529647729
