[Molden Format]
[Title]
[Atoms] AU
C      1     6 -0.16923564880584E+01  0.13655223549771E+01 -0.74290391171909E-01
C      2     6  0.66466865054116E+00 -0.42488843676796E-01  0.29158132449017E-01
C      3     6 -0.18522769317699E+01 -0.11389229651971E+01 -0.78399403804503E-01
O      4     8  0.28799647692872E+01 -0.18411054610314E+00  0.12353166252739E+00
[GTO]
           1 0
 s           4   1.0000000000000000     
   51.049363095579913      -0.16312063210127389     
   8.7911227406887544      -0.19911024581000730     
  0.70640422258929825       0.31882047753655751     
  0.26922813413411617       0.12706504184240380     
 p           4   1.0000000000000000     
   5.8263656140800002       0.73716451545209605     
   1.5106896018720002       0.68216371614850257     
  0.53256483288000001       0.35783053929253711     
  0.21202323690600003        5.3983030275847881E-002

           2 0
 s           4   1.0000000000000000     
   51.049363095579913      -0.16312063210127389     
   8.7911227406887544      -0.19911024581000730     
  0.70640422258929825       0.31882047753655751     
  0.26922813413411617       0.12706504184240380     
 p           4   1.0000000000000000     
   5.8263656140800002       0.73716451545209605     
   1.5106896018720002       0.68216371614850257     
  0.53256483288000001       0.35783053929253711     
  0.21202323690600003        5.3983030275847881E-002

           3 0
 s           4   1.0000000000000000     
   51.049363095579913      -0.16312063210127389     
   8.7911227406887544      -0.19911024581000730     
  0.70640422258929825       0.31882047753655751     
  0.26922813413411617       0.12706504184240380     
 p           4   1.0000000000000000     
   5.8263656140800002       0.73716451545209605     
   1.5106896018720002       0.68216371614850257     
  0.53256483288000001       0.35783053929253711     
  0.21202323690600003        5.3983030275847881E-002

           4 0
 s           4   1.0000000000000000     
   69.137961906196551      -0.20478756370077797     
   11.906129132707308      -0.24997023136827334     
  0.95670827744340703       0.40025880240639616     
  0.36462520496073686       0.15952206667693555     
 p           4   1.0000000000000000     
   8.2124193257781641        1.1321556799186829     
   2.1293576997098116        1.0476840782254817     
  0.75066448202360914       0.54956508217158984     
  0.29885246543283073        8.2908486592766617E-002

[MO]
Sym=     1a
Ene=  -0.78375082494842141     
Spin= Alpha
Occup=     2.00000000
           1  -4.3831823949804075E-002
           2  -4.0300521827268926E-002
           3   2.3257947260459693E-002
           4  -1.7571811865797838E-003
           5 -0.37495348062789879     
           6 -0.21503835227856602     
           7   1.3747259694711819E-002
           8  -9.1439435134092299E-003
           9  -4.3832086275828290E-002
          10  -4.2931250316006780E-002
          11  -1.7937221467427118E-002
          12  -1.8247793818882549E-003
          13 -0.61648056090879855     
          14  0.23162381543255217     
          15  -1.4807509418047963E-002
          16   9.8602329340244776E-003
Sym=     2a
Ene=  -0.73365281639940816     
Spin= Alpha
Occup=     2.00000000
           1 -0.35453751265318895     
           2  -7.3950485491479714E-002
           3  0.14516727143790759     
           4  -3.3616592380597155E-003
           5 -0.28780467747513139     
           6  0.27179119822437514     
           7  -1.7374745688065896E-002
           8   1.1741827746797582E-002
           9 -0.35453743240192825     
          10  -9.1813090323451474E-002
          11 -0.13457060644173113     
          12  -3.8206240665351137E-003
          13  0.24709756912408615     
          14   8.1099391603265916E-002
          15  -5.1843123424961798E-003
          16   3.5302136185245379E-003
Sym=     3a
Ene=  -0.63194623046041554     
Spin= Alpha
Occup=     2.00000000
           1 -0.21811967821901623     
           2  0.13494543385585944     
           3   8.5475194735370630E-002
           4   5.7924554861614021E-003
           5  0.27481845167767832     
           6  0.10232016117482763     
           7  -6.5399106712510655E-003
           8   4.6764456735063631E-003
           9 -0.21812014882770381     
          10  0.12297623545708783     
          11 -0.10196289199421986     
          12   5.4849105215746905E-003
          13 -0.59116115567174499     
          14 -0.58645910987662775     
          15   3.7492875983780920E-002
          16  -2.4717565466997604E-002
Sym=     4a
Ene=  -0.62861194257201147     
Spin= Alpha
Occup=     2.00000000
           1  0.24949669394177182     
           2  0.11542146153519074     
           3  0.11401264671266254     
           4   4.8583229221344938E-003
           5   1.3491686023538149E-007
           6   3.3602870404193984E-002
           7  0.52621882771717621     
           8   8.6341024514310384E-004
           9 -0.24949490217277639     
          10  -9.9982388956287249E-002
          11  0.12778363807534993     
          12  -4.4616496888110653E-003
          13   1.7220143797499699E-006
          14   3.3310546519516780E-002
          15  0.52160343752887195     
          16   8.5594025841471857E-004
Sym=     5a
Ene=  -0.61337188296021872     
Spin= Alpha
Occup=     2.00000000
           1  -1.6086576444951123E-004
           2   7.7314228558593243E-003
           3  -1.2875706150871529E-004
           4 -0.17705861867265399     
           5  -4.3144829293275549E-005
           6   2.3214432946521237E-002
           7  -5.9515660859196177E-004
           8 -0.54074831884021080     
           9  -1.6085898710085198E-004
          10   7.7219645227523887E-003
          11  -2.7701963817940422E-004
          12 -0.17705900006152819     
          13  -2.8429657331894279E-004
          14   2.6663532243170706E-002
          15  -6.6293024776503846E-004
          16 -0.63367697997109507     
Sym=     6a
Ene=  -0.54686290548743099     
Spin= Alpha
Occup=     2.00000000
           1  0.22664487286962484     
           2 -0.44393680930504992     
           3  -8.4629174782065761E-002
           4  -1.9242767443784031E-002
           5 -0.15819916388699296     
           6  0.29805361845742945     
           7  -1.9054256117213741E-002
           8   1.2717761619797523E-002
           9  0.22664662024640339     
          10 -0.42956249827025805     
          11  0.14046754187628044     
          12  -1.8873417887755511E-002
          13 -0.18016668821140247     
          14 -0.38309083648515213     
          15   2.4491833752874753E-002
          16  -1.6152030354135337E-002
Sym=     7a
Ene=  -0.52822902544596184     
Spin= Alpha
Occup=     2.00000000
           1  0.48450166328956706     
           2  -1.8245255908198098E-002
           3  0.29501597680555769     
           4  -1.1077625212639187E-003
           5  -4.0432264780788952E-007
           6  -2.4811803900304419E-003
           7  -3.8868121200748743E-002
           8  -6.3738845582122909E-005
           9 -0.48450020326846605     
          10   5.5618427229335250E-002
          11  0.29029321629246030     
          12   2.0679969482160130E-003
          13  -3.9413420520372381E-007
          14  -3.6858216535236500E-002
          15 -0.57715608075962588     
          16  -9.4710433995876962E-004
Sym=     8a
Ene=  -0.49468229066625347     
Spin= Alpha
Occup=     2.00000000
           1   3.5013701622364461E-005
           2  -2.3423236935867012E-002
           3   5.9654183092125695E-004
           4  0.53786469623536204     
           5  -3.7266895440688985E-006
           6  -3.9549489384252817E-003
           7   9.8173645264132365E-005
           8   9.4087687479532417E-002
           9   3.5004568367291774E-005
          10  -2.3421082292233868E-002
          11   6.2975449335042350E-004
          12  0.53786398992104911     
          13   3.4990557272648097E-006
          14   2.2472635852239738E-002
          15  -5.6172190419100652E-004
          16 -0.53225357057278266     
Sym=     9a
Ene=  -0.42495017102133176     
Spin= Alpha
Occup=     1.00000000
           1 -0.39107431113203389     
           2  -2.1677464764539332E-002
           3 -0.60170490623307871     
           4  -2.6447235172449607E-004
           5  -8.2603851315077095E-003
           6   6.7892364011332583E-003
           7  -4.3233490335102006E-004
           8   3.0055313359697832E-004
           9 -0.39107386330555055     
          10   5.5027339446362400E-002
          11  0.59957219551600527     
          12   1.7063446029294221E-003
          13  -5.0419296442082290E-003
          14   5.4043154649361337E-003
          15  -3.4856456494776011E-004
          16   2.1776619142274516E-004
Sym=    10a
Ene=  -0.39067633909978255     
Spin= Alpha
Occup=     1.00000000
           1  0.18288573231935090     
           2 -0.46753209436037191     
           3  0.18837018944131281     
           4  -2.0432187352031471E-002
           5  -7.3696702238976413E-007
           6  -2.9606973405875484E-002
           7 -0.46363841969146291     
           8  -7.6075038443427340E-004
           9 -0.18288888051012234     
          10  0.48769129437717518     
          11  0.12731093776042443     
          12   2.0950185279944456E-002
          13  -3.0495863468995357E-007
          14   3.6366701885874209E-002
          15  0.56947856711470224     
          16   9.3445804733204214E-004
Sym=    11a
Ene=  -0.28437813829872405     
Spin= Alpha
Occup=     0.00000000
           1   2.2562530385649858E-006
           2   3.4502892757906488E-002
           3  -8.9192582453643209E-004
           4 -0.79807246176459745     
           5   4.6473312478174069E-009
           6  -1.4154258935826807E-008
           7   5.4429743106448348E-006
           8   8.4293394860725494E-006
           9  -2.2588471753849341E-006
          10  -3.4502405115079196E-002
          11   8.9561917052998808E-004
          12  0.79806654794296494     
          13   8.8873634487516371E-011
          14  -1.4257324974160583E-006
          15  -2.6524065736225977E-005
          16  -6.2940034069110374E-006
Sym=    12a
Ene=  -0.26222882791230190     
Spin= Alpha
Occup=     0.00000000
           1   4.1970796332040179E-005
           2  -1.4151261293577511E-002
           3   3.3775223734499124E-004
           4  0.33269735105716258     
           5  -5.3969759723197894E-004
           6   3.8581711542613438E-002
           7  -9.8852338679304946E-004
           8 -0.89907338410954951     
           9   4.1969693522613738E-005
          10  -1.4149390828543974E-002
          11   3.7764524542673012E-004
          12  0.33271301546945076     
          13   1.0084922294027060E-005
          14  -2.6195472731077592E-002
          15   6.7114836469443025E-004
          16  0.61044774855453199     
Sym=    13a
Ene=   -2.2432102866183034E-002
Spin= Alpha
Occup=     0.00000000
           1  -5.1087122961876813E-002
           2 -0.69247953460380030     
           3 -0.23756807213689499     
           4  -2.9666235889975075E-002
           5   1.6316838920412719E-005
           6   5.2591009195132592E-002
           7  0.82363730590323214     
           8   1.3512325299043491E-003
           9   5.1079648699674018E-002
          10  0.65661752530875706     
          11 -0.32381449867490208     
          12   2.8744533146229458E-002
          13  -3.1403767426534484E-006
          14  -2.2199249208006547E-002
          15 -0.34774467386950525     
          16  -5.7028578894057565E-004
Sym=    14a
Ene=    7.6012377592454369E-002
Spin= Alpha
Occup=     0.00000000
           1 -0.30616773132427982     
           2 -0.51683219083885390     
           3  0.16236443845292370     
           4  -2.2397235449061567E-002
           5   1.1109808860019956     
           6 -0.33128521122334187     
           7   2.1165908702218135E-002
           8  -1.4904202711472548E-002
           9 -0.30616678335319436     
          10 -0.53330030571980203     
          11  -9.5221378931541936E-002
          12  -2.2820720039047723E-002
          13 -0.22095674194718423     
          14  0.45698867190990511     
          15  -2.9210089320841792E-002
          16   1.9774920367924654E-002
Sym=    15a
Ene=   0.48748550729202578     
Spin= Alpha
Occup=     0.00000000
           1 -0.82594892376062812     
           2  -7.3320435326899303E-002
           3  0.92828544420060999     
           4  -4.2077948231323825E-003
           5  -2.8973437574621475E-006
           6   1.8988180342079806E-002
           7  0.29733570113489605     
           8   4.8791873573743555E-004
           9  0.82595097473264556     
          10  0.19079574143625622     
          11  0.91140231411060257     
          12   7.2262655213969238E-003
          13   6.0343976721285680E-007
          14  -6.1666233042375210E-003
          15  -9.6551262518312711E-002
          16  -1.5846966706166426E-004
Sym=    16a
Ene=   0.81837334420284780     
Spin= Alpha
Occup=     0.00000000
           1 -0.27289251401849424     
           2 -0.26719680898572806     
           3  0.14333710210508566     
           4  -1.1807520401822197E-002
           5 -0.36526722681417079     
           6  -1.3648793567184665     
           7   8.7254570252383534E-002
           8  -5.8432076696699760E-002
           9 -0.27289200711670730     
          10 -0.28325412155493312     
          11 -0.10814899266857228     
          12  -1.2220077248394962E-002
          13  0.84926989709068912     
          14 -0.85498802834082388     
          15   5.4658720772465079E-002
          16  -3.6349288419667898E-002
