$hessian                                                                        
        0.2241620515  -0.0891337637   0.0095671934  -0.2078929801   0.0756091136
       -0.0082281005   0.0155466614  -0.0133194719   0.0004960343  -0.0318157328
        0.0268441220  -0.0018351272
       -0.0891337637   0.6500560424  -0.0045785176   0.1404698858  -0.0584232297
        0.0061449229  -0.0642026380  -0.5887084665  -0.0021171494   0.0128665159
       -0.0029243462   0.0005507441
        0.0095671934  -0.0045785176   0.0052302225  -0.0082917406   0.0033365527
       -0.0205753777   0.0005363559   0.0000853238   0.0048359079  -0.0018118088
        0.0011566410   0.0105092473
       -0.2078929801   0.1404698858  -0.0082917406   1.3375898060  -0.0781360125
        0.0537097526  -0.2325018026  -0.1180093130  -0.0090681307  -0.8971950233
        0.0556754397  -0.0363498813
        0.0756091136  -0.0584232297   0.0033365527  -0.0781360125   0.1213905430
       -0.0034208346  -0.0531852056  -0.0335292962  -0.0022894426   0.0557121045
       -0.0294380171   0.0023737245
       -0.0082281005   0.0061449229  -0.0205753777   0.0537097526  -0.0034208346
        0.0871965663  -0.0090786233  -0.0050806183  -0.0205993610  -0.0364030289
        0.0023565299  -0.0460218276
        0.0155466614  -0.0642026380   0.0005363559  -0.2325018026  -0.0531852056
       -0.0090786233   0.2534642774   0.1399384543   0.0105605797  -0.0365091361
       -0.0225506107  -0.0020183124
       -0.0133194719  -0.5887084665   0.0000853238  -0.1180093130  -0.0335292962
       -0.0050806183   0.1399384543   0.6206381007   0.0053570862  -0.0086096694
        0.0015996620  -0.0003617917
        0.0004960343  -0.0021171494   0.0048359079  -0.0090681307  -0.0022894426
       -0.0205993610   0.0105605797   0.0053570862   0.0052611861  -0.0019884833
       -0.0009504941   0.0105022670
       -0.0318157328   0.0128665159  -0.0018118088  -0.8971950233   0.0557121045
       -0.0364030289  -0.0365091361  -0.0086096694  -0.0019884833   0.9655198922
       -0.0599689510   0.0402033209
        0.0268441220  -0.0029243462   0.0011566410   0.0556754397  -0.0294380171
        0.0023565299  -0.0225506107   0.0015996620  -0.0009504941  -0.0599689510
        0.0307627014  -0.0025626769
       -0.0018351272   0.0005507441   0.0105092473  -0.0363498813   0.0023737245
       -0.0460218276  -0.0020183124  -0.0003617917   0.0105022670   0.0402033209
       -0.0025626769   0.0250103133
