[Molden Format]
[Title]
[Atoms] AU
C      1     6 -0.25474867761436E+00  0.82954881569726E+00 -0.55857768637055E-06
C      2     6  0.20898782963738E+01 -0.27714568474975E+00 -0.68113651406185E-05
H      3     1 -0.18351296187595E+01 -0.55240313094751E+00  0.73699428269885E-05
[GTO]
           1 0
 s           4   1.0000000000000000     
   51.049363095579913      -0.16312063210127389     
   8.7911227406887544      -0.19911024581000730     
  0.70640422258929825       0.31882047753655751     
  0.26922813413411617       0.12706504184240380     
 p           4   1.0000000000000000     
   5.8263656140800002       0.73716451545209605     
   1.5106896018720002       0.68216371614850257     
  0.53256483288000001       0.35783053929253711     
  0.21202323690600003        5.3983030275847881E-002

           2 0
 s           4   1.0000000000000000     
   51.049363095579913      -0.16312063210127389     
   8.7911227406887544      -0.19911024581000730     
  0.70640422258929825       0.31882047753655751     
  0.26922813413411617       0.12706504184240380     
 p           4   1.0000000000000000     
   5.8263656140800002       0.73716451545209605     
   1.5106896018720002       0.68216371614850257     
  0.53256483288000001       0.35783053929253711     
  0.21202323690600003        5.3983030275847881E-002

           3 0
 s           3   1.0000000000000000     
   3.3702276975336001       0.27359110588908298     
  0.61389118221497996       0.26460540653860526     
  0.16614291148415999        8.2465947534082318E-002

[MO]
Sym=     1a
Ene=  -0.65447427549312209     
Spin= Alpha
Occup=     2.00000000
           1  0.53121927936159563     
           2  0.15625473504365400     
           3 -0.10368012571573450     
           4  -3.6811113535835923E-007
           5  0.49863133622936612     
           6 -0.18233085381528227     
           7   7.0523696348244042E-002
           8   5.1214401102245095E-007
           9  0.15144570283071179     
Sym=     2a
Ene=  -0.55758912943451411     
Spin= Alpha
Occup=     2.00000000
           1 -0.34584840028315794     
           2  0.43435490838468666     
           3   3.3936822207676916E-002
           4  -1.5754132159431343E-006
           5  0.48940301995129426     
           6  0.11072607898164023     
           7   3.8935692075535086E-002
           8  -4.5695141093454136E-007
           9 -0.40388721961644880     
Sym=     3a
Ene=  -0.47934736546333145     
Spin= Alpha
Occup=     1.99999198
           1  0.36463933202115661     
           2  0.17497244425017200     
           3  0.51668362616687891     
           4  -1.5059420916281278E-006
           5 -0.37271795955134951     
           6 -0.14459762647152488     
           7  0.47479525818544571     
           8  -3.1335047736529399E-007
           9 -0.22451284055224779     
Sym=     4a
Ene=  -0.45705305628508458     
Spin= Alpha
Occup=     1.00000802
           1   6.3498368412962260E-009
           2  -2.3756387334859296E-006
           3  -1.1765869497939770E-006
           4 -0.68091458231052426     
           5  -5.2560451092872931E-009
           6  -2.1184944049926398E-006
           7  -1.0584006574328684E-006
           8 -0.60937510714371157     
           9   8.1906481362875458E-010
Sym=     5a
Ene=  -0.41962221649110276     
Spin= Alpha
Occup=     1.00000000
           1  0.16485816759842881     
           2 -0.30557673014297793     
           3  0.42402063314610505     
           4   3.3670176057570148E-007
           5  0.41930953741199062     
           6  0.67741755218469035     
           7   7.0637764609599918E-002
           8  -2.4836194720310418E-006
           9  0.14395170111443864     
Sym=     6a
Ene=  -0.30975268754420698     
Spin= Alpha
Occup=     1.00000000
           1  0.31215484696313106     
           2  -5.5420630716016064E-002
           3  0.48771712255946659     
           4  -6.5266949391929216E-007
           5   6.5143463228078097E-002
           6 -0.26365411085828494     
           7 -0.82422003067476735     
           8   2.3534426123139928E-006
           9 -0.29886310718603021     
Sym=     7a
Ene=  -0.27141587653705418     
Spin= Alpha
Occup=     0.00000000
           1   8.4985710647344848E-010
           2   2.6526751354664006E-006
           3   1.3221277250595558E-006
           4  0.75994990745970159     
           5  -2.8053185850228560E-009
           6  -2.8581020030847096E-006
           7  -1.4212660591332339E-006
           8 -0.81843173755954179     
           9  -3.2737905093498925E-010
Sym=     8a
Ene=   0.13895887662930054     
Spin= Alpha
Occup=     0.00000000
           1 -0.67914784145966867     
           2  0.62015999777282194     
           3  0.64372865370964016     
           4  -3.2859048268287177E-006
           5  -7.5113315876894236E-003
           6 -0.17006367403843201     
           7 -0.13716579600551437     
           8   8.3244149698549269E-007
           9   1.1029832124012204     
Sym=     9a
Ene=   0.35591349798311889     
Spin= Alpha
Occup=     0.00000000
           1  0.65436809964026343     
           2  0.90771138235455406     
           3 -0.34314363673561460     
           4  -2.5672393438938038E-006
           5 -0.72051894513639847     
           6  0.84600638601651934     
           7 -0.41747213847132131     
           8  -2.2228623218895497E-006
           9  0.12280390265880445     
