3
 energy: -4.375933198579 gnorm: 0.107953517223 xtb: 6.2.2 (9d81278992624c895f80dd42a50cac0aa55982e2)
C        -0.19183300000000    0.47982400000000    0.00000000000000
C         1.17151000000000   -0.17857700000000    0.00000000000000
H        -0.97967700000000   -0.30124700000000    0.00000000000000
3
 energy: -4.386451524755 gnorm: 0.046728786438 xtb: 6.2.2 (9d81278992624c895f80dd42a50cac0aa55982e2)
C        -0.15502199630069    0.44949179310763    0.00000000000000
C         1.12652508639885   -0.15666781436161   -0.00000000000000
H        -0.97150309009817   -0.29282397874602    0.00000000000000
3
 energy: -4.387301566758 gnorm: 0.034831758641 xtb: 6.2.2 (9d81278992624c895f80dd42a50cac0aa55982e2)
C        -0.12627284370184    0.43446980306907    0.00000000000000
C         1.08895556974531   -0.14287010106119   -0.00000000000000
H        -0.96268272604348   -0.29159970200787    0.00000000000000
3
 energy: -4.387921961352 gnorm: 0.004868449848 xtb: 6.2.2 (9d81278992624c895f80dd42a50cac0aa55982e2)
C        -0.13666672673626    0.43813105797840    0.00000000000000
C         1.10931677913521   -0.14682380140082   -0.00000000000000
H        -0.97265005239895   -0.29130725657758    0.00000000000000
3
 energy: -4.387936922082 gnorm: 0.000746339777 xtb: 6.2.2 (9d81278992624c895f80dd42a50cac0aa55982e2)
C        -0.13537895146451    0.43896193705168    0.00000000000000
C         1.10609212263227   -0.14684440759942   -0.00000000000000
H        -0.97071317116777   -0.29211752945226    0.00000000000000
3
 energy: -4.387937255778 gnorm: 0.000362580821 xtb: 6.2.2 (9d81278992624c895f80dd42a50cac0aa55982e2)
C        -0.13480950569025    0.43897766347268    0.00000000000000
C         1.10591683850499   -0.14665340351190   -0.00000000000000
H        -0.97110733281474   -0.29232425996078    0.00000000000000
