$hessian                                                                        
        0.4590075757  -0.0721301233  -0.0000014764  -0.3364500557   0.1670593069
        0.0000008829  -0.1225575200  -0.0949291836   0.0000005935
       -0.0721301233   0.2560245509  -0.0000001951   0.1711468951  -0.1164805875
       -0.0000003941  -0.0990167718  -0.1395439634   0.0000005892
       -0.0000014764  -0.0000001951   0.0000000000   0.0000008757  -0.0000003799
       -0.0000000000   0.0000006006   0.0000005749  -0.0000000000
       -0.3364500557   0.1711468951   0.0000008757   0.3802621836  -0.1607041608
       -0.0000010469  -0.0438121278  -0.0104427343   0.0000001712
        0.1670593069  -0.1164805875  -0.0000003799  -0.1607041608   0.0944499033
        0.0000003961  -0.0063551461   0.0220306842  -0.0000000163
        0.0000008829  -0.0000003941  -0.0000000000  -0.0000010469   0.0000003961
        0.0000000000   0.0000001640  -0.0000000020  -0.0000000000
       -0.1225575200  -0.0990167718   0.0000006006  -0.0438121278  -0.0063551461
        0.0000001640   0.1663696478   0.1053719179  -0.0000007646
       -0.0949291836  -0.1395439634   0.0000005749  -0.0104427343   0.0220306842
       -0.0000000020   0.1053719179   0.1175132792  -0.0000005729
        0.0000005935   0.0000005892  -0.0000000000   0.0000001712  -0.0000000163
       -0.0000000000  -0.0000007646  -0.0000005729   0.0000000000
