$hessian                                                                        
        0.3833990077   0.0151218194  -0.1790730167  -0.2488868413  -0.0314170785
        0.2291672621  -0.0985888401   0.0122307723  -0.0432553139  -0.0164263707
        0.0142131900  -0.0009937715  -0.0194969555  -0.0101487033  -0.0058451600
        0.0151218194   0.0335806001  -0.0767938984  -0.0455666234  -0.0070064286
        0.0616914530   0.0207650646  -0.0380122558   0.0075644585   0.0201653175
        0.0034769991   0.0030006089  -0.0104855781   0.0079610853   0.0045373781
       -0.1790730167  -0.0767938984   0.4563348865   0.3004950114   0.0576829277
       -0.3726213393  -0.0866629996   0.0100308870  -0.0611910006  -0.0140958348
        0.0083292509  -0.0105765353  -0.0206631603   0.0007508328  -0.0119460114
       -0.2488868413  -0.0455666234   0.3004950114   0.3804608981   0.0404090121
       -0.3108951224  -0.1258696793   0.0039515262   0.0150564485  -0.0028300925
       -0.0015998840  -0.0027353952  -0.0028742850   0.0028059692  -0.0019209424
       -0.0314170785  -0.0070064286   0.0576829277   0.0404090121   0.0076214916
       -0.0492378130  -0.0079370766  -0.0002698737  -0.0056733447   0.0019061894
       -0.0002535288  -0.0006866660  -0.0029610464  -0.0000916603  -0.0020851040
        0.2291672621   0.0616914530  -0.3726213393  -0.3108951224  -0.0492378130
        0.3358255685   0.0750698262  -0.0090454456   0.0224725453   0.0037863096
       -0.0020794573   0.0072373829   0.0028717245  -0.0013287371   0.0070858426
       -0.0985888401   0.0207650646  -0.0866629996  -0.1258696793  -0.0079370766
        0.0750698262   0.3649975948  -0.0129776339   0.1330837516  -0.0604872481
        0.0812372174  -0.0374036310  -0.0800518273  -0.0810875714  -0.0840869471
        0.0122307723  -0.0380122558   0.0100308870   0.0039515262  -0.0002698737
       -0.0090454456  -0.0129776339   0.5917063907   0.0754413577   0.0884727582
       -0.3301095585   0.0801425588  -0.0916774227  -0.2233147026  -0.1565693579
       -0.0432553139   0.0075644585  -0.0611910006   0.0150564485  -0.0056733447
        0.0224725453   0.1330837516   0.0754413577   0.1883513639  -0.0288817682
        0.0518083266  -0.0312414212  -0.0760031181  -0.1291407981  -0.1183914875
       -0.0164263707   0.0201653175  -0.0140958348  -0.0028300925   0.0019061894
        0.0037863096  -0.0604872481   0.0884727582  -0.0288817682   0.0745987563
       -0.0999747020   0.0364993808   0.0051449550  -0.0105695631   0.0026919126
        0.0142131900   0.0034769991   0.0083292509  -0.0015998840  -0.0002535288
       -0.0020794573   0.0812372174  -0.3301095585   0.0518083266  -0.0999747020
        0.3473272680  -0.0648527788   0.0061241786  -0.0204411798   0.0067946586
       -0.0009937715   0.0030006089  -0.0105765353  -0.0027353952  -0.0006866660
        0.0072373829  -0.0374036310   0.0801425588  -0.0312414212   0.0364993808
       -0.0648527788   0.0299991215   0.0046334170  -0.0176037229   0.0045814521
       -0.0194969555  -0.0104855781  -0.0206631603  -0.0028742850  -0.0029610464
        0.0028717245  -0.0800518273  -0.0916774227  -0.0760031181   0.0051449550
        0.0061241786   0.0046334170   0.0972781127   0.0989998686   0.0891611369
       -0.0101487033   0.0079610853   0.0007508328   0.0028059692  -0.0000916603
       -0.0013287371  -0.0810875714  -0.2233147026  -0.1291407981  -0.0105695631
       -0.0204411798  -0.0176037229   0.0989998686   0.2358864574   0.1473224253
       -0.0058451600   0.0045373781  -0.0119460114  -0.0019209424  -0.0020851040
        0.0070858426  -0.0840869471  -0.1565693579  -0.1183914875   0.0026919126
        0.0067946586   0.0045814521   0.0891611369   0.1473224253   0.1186702041
