$hessian                                                                        
        0.7290981199   0.0472341547   0.0241992561  -0.5851098195  -0.0228042057
       -0.0165395434   0.1490327277  -0.0383815779  -0.0064728155  -0.1886366579
       -0.0046456421  -0.0042712445  -0.1043843701   0.0185972711   0.0030843473
        0.0472341547   0.0129617739   0.0015727565  -0.0350240676  -0.0195757359
       -0.0009183091   0.0215354938   0.0055389361  -0.0008872454  -0.0168959714
        0.0029744000  -0.0002232155  -0.0168496095  -0.0018993741   0.0004560134
        0.0241992561   0.0015727565   0.0109274295  -0.0188588657  -0.0007272452
       -0.0190672347   0.0072831123  -0.0019709915   0.0105424568  -0.0070546104
        0.0001351652   0.0018986460  -0.0055688923   0.0009903150  -0.0043012975
       -0.5851098195  -0.0350240676  -0.0188588657   1.0900297105   0.1099851494
        0.0409720830  -0.2874270757   0.0456124023   0.0063550195  -0.3666957032
       -0.0966122353  -0.0245583650   0.1492028879  -0.0239612487  -0.0039098718
       -0.0228042057  -0.0195757359  -0.0007272452   0.1099851494   0.0536246545
        0.0054895327  -0.0411837391  -0.0131846886   0.0018572331  -0.0821007014
       -0.0260931453  -0.0057068561   0.0361034969   0.0052289153  -0.0009126645
       -0.0165395434  -0.0009183091  -0.0190672347   0.0409720830   0.0054895327
        0.0365881154  -0.0129415403   0.0031010955  -0.0237994354  -0.0214897543
       -0.0060765066  -0.0042368327   0.0099987551  -0.0015958124   0.0105153874
        0.1490327277   0.0215354938   0.0072831123  -0.2874270757  -0.0411837391
       -0.0129415403   1.0877722178  -0.1270985195  -0.0143413715  -0.3641794170
        0.1018996016   0.0151624476  -0.5851984528   0.0448471632   0.0048373519
       -0.0383815779   0.0055389361  -0.0019709915   0.0456124023  -0.0131846886
        0.0031010955  -0.1270985195   0.0573808986   0.0029200709   0.0870928093
       -0.0290290954  -0.0037510394   0.0327748859  -0.0207060507  -0.0002991355
       -0.0064728155  -0.0008872454   0.0105424568   0.0063550195   0.0018572331
       -0.0237994354  -0.0143413715   0.0029200709   0.0351495100   0.0118419835
       -0.0037690664  -0.0034571364   0.0026171839  -0.0001209921  -0.0184353949
       -0.1886366579  -0.0168959714  -0.0070546104  -0.3666957032  -0.0821007014
       -0.0214897543  -0.3641794170   0.0870928093   0.0118419835   1.1078950036
       -0.0081792916   0.0143566337  -0.1883832255   0.0200831551   0.0023457475
       -0.0046456421   0.0029744000   0.0001351652  -0.0966122353  -0.0260931453
       -0.0060765066   0.1018996016  -0.0290290954  -0.0037690664  -0.0081792916
        0.0495087548   0.0094935494   0.0075375675   0.0026390859   0.0002168585
       -0.0042712445  -0.0002232155   0.0018986460  -0.0245583650  -0.0057068561
       -0.0042368327   0.0151624476  -0.0037510394  -0.0034571364   0.0143566337
        0.0094935494   0.0036484173  -0.0006894718   0.0001875615   0.0021469059
       -0.1043843701  -0.0168496095  -0.0055688923   0.1492028879   0.0361034969
        0.0099987551  -0.5851984528   0.0327748859   0.0026171839  -0.1883832255
        0.0075375675  -0.0006894718   0.7287631605  -0.0595663408  -0.0063575749
        0.0185972711  -0.0018993741   0.0009903150  -0.0239612487   0.0052289153
       -0.0015958124   0.0448471632  -0.0207060507  -0.0001209921   0.0200831551
        0.0026390859   0.0001875615  -0.0595663408   0.0147374236   0.0005389281
        0.0030843473   0.0004560134  -0.0043012975  -0.0039098718  -0.0009126645
        0.0105153874   0.0048373519  -0.0002991355  -0.0184353949   0.0023457475
        0.0002168585   0.0021469059  -0.0063575749   0.0005389281   0.0100743992
