 Entering Gaussian System
 *********************************************
 Gaussian 98:
 frequency output generated by the xtb code
 *********************************************
                         Standard orientation:
 --------------------------------------------------------------------
  Center     Atomic     Atomic              Coordinates (Angstroms)
  Number     Number      Type              X           Y           Z
 --------------------------------------------------------------------
    1          6             0       -2.463345   -0.079751   -0.056383
    2          6             0       -1.221460   -0.003453   -0.015182
    3          6             0        1.221393   -0.022613    0.016307
    4          7             0        0.001144    0.226114    0.049394
    5          6             0        2.462267   -0.120297    0.005865
 --------------------------------------------------------------------
     1 basis functions        1 primitive gaussians
     1 alpha electrons        1 beta electrons

 Harmonic frequencies (cm**-1), IR intensities (KM/Mole),
 Raman scattering activities (A**4/amu), Raman depolarization ratios,
 reduced masses (AMU), force constants (mDyne/A) and normal coordinates:
                      1                      2                      3
                        a                      a                      a 
 Frequencies --   105.2886               195.5017               288.3234
 Red. masses --    12.7949                12.1614                12.6302
 Frc consts  --     0.0000                 0.0000                 0.0000
 IR Inten    --     0.2725                 0.5618                 0.4581
 Raman Activ --     0.0000                 0.0000                 0.0000
 Depolar     --     0.0000                 0.0000                 0.0000
 Atom AN      X      Y      Z        X      Y      Z        X      Y      Z
   1   6    -0.11   0.50   0.11     0.01   0.08  -0.39     0.09   0.21   0.05
   2   6    -0.06  -0.17  -0.03    -0.01  -0.11   0.54     0.16  -0.51  -0.10
   3   6     0.06  -0.17  -0.03    -0.01  -0.11   0.54    -0.17  -0.50  -0.10
   4   7    -0.00  -0.61  -0.15     0.00   0.05  -0.27     0.00   0.55   0.10
   5   6     0.12   0.49   0.11     0.00   0.08  -0.39    -0.09   0.21   0.04
                      4                      5                      6
                        a                      a                      a 
 Frequencies --   386.0461               402.4270               879.8899
 Red. masses --    12.0208                12.0108                12.1471
 Frc consts  --     0.0000                 0.0000                 0.0000
 IR Inten    --     0.7953                 0.1473                 0.1703
 Raman Activ --     0.0000                 0.0000                 0.0000
 Depolar     --     0.0000                 0.0000                 0.0000
 Atom AN      X      Y      Z        X      Y      Z        X      Y      Z
   1   6     0.00   0.31   0.07     0.01   0.07  -0.31    -0.56  -0.04  -0.02
   2   6     0.04  -0.61  -0.14    -0.01  -0.14   0.62    -0.37  -0.09  -0.02
   3   6     0.04   0.61   0.14     0.01   0.14  -0.62     0.37  -0.10  -0.01
   4   7    -0.07  -0.00  -0.00    -0.00  -0.00   0.00     0.00   0.26   0.05
   5   6    -0.00  -0.31  -0.07    -0.00  -0.07   0.31     0.56  -0.05  -0.01
                      7                      8                      9
                        a                      a                      a 
 Frequencies --  1484.9231              1749.6342              2052.9298
 Red. masses --    12.6007                12.9484                12.0173
 Frc consts  --     0.0000                 0.0000                 0.0000
 IR Inten    --     3.3712                 2.6507                 0.0211
 Raman Activ --     0.0000                 0.0000                 0.0000
 Depolar     --     0.0000                 0.0000                 0.0000
 Atom AN      X      Y      Z        X      Y      Z        X      Y      Z
   1   6    -0.54  -0.03  -0.02     0.12   0.00   0.00     0.40   0.03   0.01
   2   6     0.25  -0.03  -0.00    -0.50  -0.06  -0.02    -0.58  -0.06  -0.02
   3   6     0.24   0.03   0.01    -0.49   0.07   0.01     0.58  -0.07  -0.01
   4   7     0.54  -0.00   0.01     0.69  -0.01   0.01     0.00   0.06   0.01
   5   6    -0.54   0.04   0.00     0.12  -0.00   0.00    -0.40   0.04   0.00
