$hessian                                                                        
        0.6472679731  -0.2630425574  -0.1631864298  -0.2477890120   0.0044157680
       -0.0261901708  -0.3573326973   0.2608962300   0.2000095425  -0.0183775211
        0.0036121755   0.0007983176  -0.0237687427  -0.0058816162  -0.0114312594
       -0.2630425574   0.3058986082   0.2207041835  -0.0191580824  -0.0557696663
       -0.0215225103   0.2886649359  -0.2574096208  -0.1877525362   0.0169376550
       -0.0001684968   0.0012953447  -0.0234019512   0.0074491756  -0.0127244817
       -0.1631864298   0.2207041835   0.2219085574  -0.0483632884  -0.0182038879
       -0.0601951786   0.2265409835  -0.1917587798  -0.1674848830   0.0132691441
       -0.0005220763   0.0022501161  -0.0282604093  -0.0102194393   0.0035213882
       -0.2477890120  -0.0191580824  -0.0483632884   0.5380599789  -0.0645815835
        0.0064430059  -0.0928195403   0.0427531086   0.0261235709  -0.1180853953
        0.0977355264   0.0779903258  -0.0793660313  -0.0567489691  -0.0621936141
        0.0044157680  -0.0557696663  -0.0182038879  -0.0645815835   0.3144017883
        0.2202240133   0.0269542368   0.0078979985   0.0014651979   0.0969332791
       -0.1457680899  -0.1059400872  -0.0637217004  -0.1207620307  -0.0975452361
       -0.0261901708  -0.0215225103  -0.0601951786   0.0064430059   0.2202240133
        0.2848103591   0.0109879644   0.0037014142   0.0154318911   0.0774289676
       -0.1060738603  -0.1080933522  -0.0686697670  -0.0963290570  -0.1319537194
       -0.3573326973   0.2886649359   0.2265409835  -0.0928195403   0.0269542368
        0.0109879644   0.4589099542  -0.3129869441  -0.2341703873  -0.0068124361
       -0.0007120426  -0.0021383626  -0.0019452804  -0.0019201860  -0.0012201979
        0.2608962300  -0.2574096208  -0.1917587798   0.0427531086   0.0078979985
        0.0037014142  -0.3129869441   0.2477980240   0.1820698411   0.0021342083
        0.0023517242  -0.0003885992   0.0072033971  -0.0006381260   0.0063761237
        0.2000095425  -0.1877525362  -0.1674848830   0.0261235709   0.0014651979
        0.0154318911  -0.2341703873   0.1820698411   0.1499168888   0.0005995740
       -0.0008428982   0.0024659676   0.0074377000   0.0050603954  -0.0003298645
       -0.0183775211   0.0169376550   0.0132691441  -0.1180853953   0.0969332791
        0.0774289676  -0.0068124361   0.0021342083   0.0005995740   0.1373871090
       -0.1091217993  -0.0847522610   0.0058882435  -0.0068833431  -0.0065454246
        0.0036121755  -0.0001684968  -0.0005220763   0.0977355264  -0.1457680899
       -0.1060738603  -0.0007120426   0.0023517242  -0.0008428982  -0.1091217993
        0.1525178211   0.1203844335   0.0084861401  -0.0089329586  -0.0129455987
        0.0007983176   0.0012953447   0.0022501161   0.0779903258  -0.1059400872
       -0.1080933522  -0.0021383626  -0.0003885992   0.0024659676  -0.0847522610
        0.1203844335   0.1107542603   0.0081019804  -0.0153510918  -0.0073769918
       -0.0237687427  -0.0234019512  -0.0282604093  -0.0793660313  -0.0637217004
       -0.0686697670  -0.0019452804   0.0072033971   0.0074377000   0.0058882435
        0.0084861401   0.0081019804   0.0991918109   0.0714341144   0.0813904960
       -0.0058816162   0.0074491756  -0.0102194393  -0.0567489691  -0.1207620307
       -0.0963290570  -0.0019201860  -0.0006381260   0.0050603954  -0.0068833431
       -0.0089329586  -0.0153510918   0.0714341144   0.1228839396   0.1168391928
       -0.0114312594  -0.0127244817   0.0035213882  -0.0621936141  -0.0975452361
       -0.1319537194  -0.0012201979   0.0063761237  -0.0003298645  -0.0065454246
       -0.0129455987  -0.0073769918   0.0813904960   0.1168391928   0.1361391876
