5
 energy: -9.109414401914 gnorm: 0.254881212203 xtb: 6.2.2 (9d81278992624c895f80dd42a50cac0aa55982e2)
C         0.79422000000000   -0.45053900000000    0.56615800000000
C        -0.64864800000000   -0.05946000000000    0.30752600000000
O         1.60293500000000   -0.00791200000000   -0.48102700000000
H        -0.73942300000000    1.04499700000000    0.24004700000000
H        -1.00908400000000   -0.52708600000000   -0.63270400000000
5
 energy: -9.156393896523 gnorm: 0.109469087869 xtb: 6.2.2 (9d81278992624c895f80dd42a50cac0aa55982e2)
C         0.79627472261560   -0.39920601175942    0.47305777234197
C        -0.60691625743655   -0.04372070221829    0.26627998335011
O         1.60982818562775   -0.05061528580866   -0.40623599121762
H        -0.76345695547009    1.04042578640615    0.27405143685188
H        -1.03572969533672   -0.54688378661978   -0.60715320132634
5
 energy: -9.158312351433 gnorm: 0.137933671221 xtb: 6.2.2 (9d81278992624c895f80dd42a50cac0aa55982e2)
C         0.82406008377995   -0.37237158979256    0.41613845253855
C        -0.58600976870650   -0.03400771236875    0.24232365831482
O         1.61756244969792   -0.08105266257817   -0.35380144358032
H        -0.79266836300877    1.03155335067698    0.28504327753193
H        -1.06294440176259   -0.54412138593749   -0.58970394480498
5
 energy: -9.163090754826 gnorm: 0.039642588132 xtb: 6.2.2 (9d81278992624c895f80dd42a50cac0aa55982e2)
C         0.82115933375159   -0.36199509166548    0.39835132619018
C        -0.59491697225149   -0.02193843181642    0.22333474583321
O         1.72777858388791   -0.09903990508796   -0.35546428399494
H        -0.84001626664841    1.04015699965311    0.31027925112549
H        -1.11400467873960   -0.55718357108325   -0.57650103915395
5
 energy: -9.163757584406 gnorm: 0.008515713621 xtb: 6.2.2 (9d81278992624c895f80dd42a50cac0aa55982e2)
C         0.82152510976917   -0.36847602098655    0.40995512387569
C        -0.59399233218572   -0.02138011492717    0.22204030011543
O         1.69251465819948   -0.09115839952909   -0.35881456400301
H        -0.82397902136643    1.03371690674096    0.30378246363733
H        -1.09606841441650   -0.55270237129815   -0.57696332362544
5
 energy: -9.163888363256 gnorm: 0.006958118020 xtb: 6.2.2 (9d81278992624c895f80dd42a50cac0aa55982e2)
C         0.82727332035548   -0.36694798895667    0.40565878778648
C        -0.58886249700493   -0.01505308474197    0.20904523545996
O         1.70303532170414   -0.09624914078537   -0.35316791609519
H        -0.83425151512350    1.03524776176008    0.31130037393597
H        -1.10719462993119   -0.55699754727607   -0.57283648108720
5
 energy: -9.163943921150 gnorm: 0.003326662357 xtb: 6.2.2 (9d81278992624c895f80dd42a50cac0aa55982e2)
C         0.82750090975072   -0.36395083001213    0.40182728356635
C        -0.58977927547985   -0.01060584304514    0.20122435040242
O         1.71072622154444   -0.09977302142977   -0.35111546068846
H        -0.83831886904232    1.03296384822637    0.31647299422913
H        -1.11012898677298   -0.55863415373934   -0.56840916750944
5
 energy: -9.163969839933 gnorm: 0.002444634066 xtb: 6.2.2 (9d81278992624c895f80dd42a50cac0aa55982e2)
C         0.82858247422365   -0.35957306905216    0.40449786077621
C        -0.58851700677374   -0.00844714052069    0.19632593130237
O         1.71198155271753   -0.10567787992475   -0.35361744714522
H        -0.84349018559284    1.03276415779792    0.32257525897253
H        -1.10855683457460   -0.55906606830033   -0.56978160390588
5
 energy: -9.164496659142 gnorm: 0.014083246325 xtb: 6.2.2 (9d81278992624c895f80dd42a50cac0aa55982e2)
C         0.83281246541885   -0.33446596976008    0.41719174689493
C        -0.58866480480299   -0.00843991255798    0.19296606823344
O         1.70900438395849   -0.13508507089754   -0.36887359649104
H        -0.86340127591524    1.02883673585699    0.34212814758879
H        -1.08975076865910   -0.55084578264138   -0.58341236622613
5
 energy: -9.167512130608 gnorm: 0.089713326038 xtb: 6.2.2 (9d81278992624c895f80dd42a50cac0aa55982e2)
C         0.84989515147788   -0.22906762869483    0.46543267602912
C        -0.58862896628192   -0.00911308275206    0.17754701983942
O         1.70184169626241   -0.25316597390011   -0.42659202246410
H        -0.94041115374691    1.01083907700546    0.42201645811537
H        -1.02269672771146   -0.51949239165846   -0.63840413151981
5
 energy: -9.170862900659 gnorm: 0.073908590723 xtb: 6.2.2 (9d81278992624c895f80dd42a50cac0aa55982e2)
C         0.84868720890460   -0.19759376278725    0.45650702234803
C        -0.58001046998818   -0.00399393058867    0.17476940454400
O         1.70977671613616   -0.27288715549111   -0.41973752884550
H        -0.94425053792541    0.99204370051616    0.43573997732791
H        -1.03420291712717   -0.51756885164914   -0.64727887537445
5
 energy: -9.180451227498 gnorm: 0.047356555228 xtb: 6.2.2 (9d81278992624c895f80dd42a50cac0aa55982e2)
C         0.84294271374667   -0.09477914563610    0.39135038055144
C        -0.52294223796464    0.04665407824233    0.13069003376935
O         1.75412432047443   -0.37465538407845   -0.38249328620156
H        -1.02403384681696    0.94014214756003    0.50978965912322
H        -1.05009094943951   -0.51736169608781   -0.64933678724245
5
 energy: -9.182302968613 gnorm: 0.094314024761 xtb: 6.2.2 (9d81278992624c895f80dd42a50cac0aa55982e2)
C         0.84738041347555    0.00342924255341    0.35164036285949
C        -0.50742529179970    0.07514903373986    0.10528160391928
O         1.77446159000223   -0.46286533513815   -0.36476188085587
H        -1.07257910711832    0.88404617635752    0.56570815800759
H        -1.04183760455976   -0.49975911751264   -0.65786824393050
5
 energy: -9.173580426474 gnorm: 0.152596392203 xtb: 6.2.2 (9d81278992624c895f80dd42a50cac0aa55982e2)
C         0.83724783784193    0.06963338604341    0.19949525785812
C        -0.48890069390899    0.13959818940072    0.08696259089901
O         1.76707263529548   -0.49466958993840   -0.25010543122512
H        -1.05620868449877    0.77369948349321    0.56540508975669
H        -1.05921109472965   -0.48826146899894   -0.60175750728871
5
 energy: -9.185431991263 gnorm: 0.051906486986 xtb: 6.2.2 (9d81278992624c895f80dd42a50cac0aa55982e2)
C         0.86984155006898    0.08243377474771    0.19227897354078
C        -0.47717509881728    0.17064829488848    0.02723004228880
O         1.82284016099957   -0.54254198175161   -0.24577416897097
H        -1.13172097026700    0.80703260055741    0.62431210020456
H        -1.08378564198427   -0.51757268844200   -0.59804694706319
5
 energy: -9.186124434154 gnorm: 0.044132732771 xtb: 6.2.2 (9d81278992624c895f80dd42a50cac0aa55982e2)
C         0.87699595806864    0.04519166696148    0.30967728571283
C        -0.53381892646003    0.09647611060821    0.07557903564932
O         1.76133678585635   -0.50118765346385   -0.33265899425531
H        -1.07395914234041    0.87678622641476    0.60286004826634
H        -1.03055467512455   -0.51726635052059   -0.65545737537318
5
 energy: -9.188230381709 gnorm: 0.007315141218 xtb: 6.2.2 (9d81278992624c895f80dd42a50cac0aa55982e2)
C         0.87256478652235    0.06990165247570    0.24955496455666
C        -0.51337405719976    0.12900346364811    0.06618106677424
O         1.77384929227276   -0.52770684791017   -0.29282509249870
H        -1.09803532035232    0.84286501575968    0.61233545460680
H        -1.03500470124303   -0.51406328397332   -0.63524639343901
5
 energy: -9.188337020890 gnorm: 0.015250620821 xtb: 6.2.2 (9d81278992624c895f80dd42a50cac0aa55982e2)
C         0.87272886473180    0.09351587199406    0.23721657245780
C        -0.50813598741285    0.13549403705324    0.06054388900688
O         1.76924221920070   -0.54434456166130   -0.28355233948324
H        -1.09972010273579    0.82787025797992    0.62351104739282
H        -1.03411499378386   -0.51253560536591   -0.63771916937427
5
 energy: -9.188412522350 gnorm: 0.005454369178 xtb: 6.2.2 (9d81278992624c895f80dd42a50cac0aa55982e2)
C         0.87625721214476    0.09443862964612    0.23640870279298
C        -0.50537545081312    0.13830803125117    0.05574041502386
O         1.76447717712218   -0.54673853801375   -0.28084284004935
H        -1.10112594601985    0.82954580303175    0.62717030137765
H        -1.03423299243396   -0.51555392591529   -0.63847657914515
5
 energy: -9.188449544473 gnorm: 0.001500149672 xtb: 6.2.2 (9d81278992624c895f80dd42a50cac0aa55982e2)
C         0.87879226558650    0.09719317950893    0.23167695993980
C        -0.50822212403508    0.13898331898575    0.05827097163684
O         1.76425891789007   -0.55149078415514   -0.27916419725069
H        -1.10487923767241    0.82973619104626    0.62824527311483
H        -1.02994982176908   -0.51442190538579   -0.63902900744079
5
 energy: -9.188457798828 gnorm: 0.001448029751 xtb: 6.2.2 (9d81278992624c895f80dd42a50cac0aa55982e2)
C         0.87961181064118    0.10436039203509    0.22595018278279
C        -0.50872624952330    0.14004711156615    0.05769322856141
O         1.76162071732384   -0.55684668632893   -0.27540111517594
H        -1.10471669552864    0.82749063907654    0.63179176173001
H        -1.02778958291309   -0.51505145634884   -0.64003405789829
5
 energy: -9.188459583384 gnorm: 0.000761781004 xtb: 6.2.2 (9d81278992624c895f80dd42a50cac0aa55982e2)
C         0.87880855403477    0.10342967763350    0.22581387540205
C        -0.50915841638758    0.13617348612839    0.05991945862619
O         1.76229818528807   -0.55480317444992   -0.27515100415866
H        -1.10279481665250    0.82935032663713    0.63047939763878
H        -1.02915350628276   -0.51415031594910   -0.64106172750837
