      -----------------------------------------------------------      
     |                   =====================                   |     
     |                           x T B                           |     
     |                   =====================                   |     
     |                         S. Grimme                         |     
     |          Mulliken Center for Theoretical Chemistry        |     
     |                    University of Bonn                     |     
      -----------------------------------------------------------      

   * xtb version 6.2.2 (9d81278992624c895f80dd42a50cac0aa55982e2) compiled by '@Darwin' on 04/03/2020

   xtb is free software: you can redistribute it and/or modify it under
   the terms of the GNU Lesser General Public License as published by
   the Free Software Foundation, either version 3 of the License, or
   (at your option) any later version.
   
   xtb is distributed in the hope that it will be useful,
   but WITHOUT ANY WARRANTY; without even the implied warranty of
   MERCHANTABILITY or FITNESS FOR A PARTICULAR PURPOSE.  See the
   GNU Lesser General Public License for more details.
   
   Cite this work as:
   * S. Grimme, C. Bannwarth, P. Shushkov, J. Chem. Theory Comput., 2017,
     13, 1989-2009. DOI: 10.1021/acs.jctc.7b00118
   * C. Bannwarth, S. Ehlert and S. Grimme., J. Chem. Theory Comput., 2019,
     15, 1652-1671. DOI: 10.1021/acs.jctc.8b01176
   * P. Pracht, E. Caldeweyher, S. Ehlert, S. Grimme, ChemRxiv, 2019, preprint.
     DOI: 10.26434/chemrxiv.8326202.v1
   
   for DFT-D4:
   * E. Caldeweyher, C. Bannwarth and S. Grimme, J. Chem. Phys., 2017,
     147, 034112. DOI: 10.1063/1.4993215
   * E. Caldeweyher, S. Ehlert, A. Hansen, H. Neugebauer, S. Spicher,
     C. Bannwarth and S. Grimme, J. Chem. Phys., 2019, 150, 154122.
     DOI: 10.1063/1.5090222
   
   for sTDA-xTB:
   * S. Grimme and C. Bannwarth, J. Chem. Phys., 2016, 145, 054103.
     DOI: 10.1063/1.4959605
   
   in the mass-spec context:
   * V. Asgeirsson, C. Bauer and S. Grimme, Chem. Sci., 2017, 8, 4879.
     DOI: 10.1039/c7sc00601b
   
   for metadynamics refer to:
   * S. Grimme, J. Chem. Theory Comput., 2019, 155, 2847-2862
     DOI: 10.1021/acs.jctc.9b00143
   
   with help from (in alphabetical order)
   C. Bannwarth, F. Bohle, G. Brandenburg, E. Caldeweyher, M. Checinski,
   S. Dohm, S. Ehlert, S. Ehrlich, F. März, H. Neugebauer, J. Pisarek,
   P. Pracht, P. Shushkov, and S. Spicher.
   
 * started run on 2020/05/12 at 11:45:14.106     

           -------------------------------------------------
          |                Calculation Setup                |
           -------------------------------------------------

          program call               : xtb --input H2C2O1_3_S_2.input H2C2O1_3_S_2.xyz --ohess --molden --namespace H2C2O1_3_S_2 output.out
          calculation namespace      : H2C2O1_3_S_2
          coordinate file            : H2C2O1_3_S_2.xyz
          number of atoms            :                     5
          number of electrons        :                    16
          charge                     :                     0
          spin                       :                   1.0
          first test random number   :      0.58178691269160

   ID    Z sym.   atoms
    1    6 C      1, 2
    2    8 O      3
    3    1 H      4, 5

           -------------------------------------------------
          |                 G F N 2 - x T B                 |
           -------------------------------------------------

        Reference                      10.1021/acs.jctc.8b01176
      * Hamiltonian:
        H0-scaling (s, p, d)           1.850000    2.230000    2.230000
        zeta-weighting                 0.500000
      * Dispersion:
        s8                             2.700000
        a1                             0.520000
        a2                             5.000000
        s9                             5.000000
      * Repulsion:
        kExp                           1.500000    1.000000
        rExp                           1.000000
      * Coulomb:
        alpha                          2.000000
        third order                    shell-resolved
        anisotropic                    true
        a3                             3.000000
        a5                             4.000000
        cn-shift                       1.200000
        cn-exp                         4.000000
        max-rad                        5.000000


          ...................................................
          :                      SETUP                      :
          :.................................................:
          :  # basis functions                  14          :
          :  # atomic orbitals                  14          :
          :  # shells                            8          :
          :  # electrons                        16          :
          :  max. iterations                   250          :
          :  Hamiltonian                  GFN2-xTB          :
          :  restarted?                      false          :
          :  GBSA solvation                  false          :
          :  PC potential                    false          :
          :  electronic temp.          300.0000000     K    :
          :  accuracy                    1.0000000          :
          :  -> integral cutoff          0.2500000E+02      :
          :  -> integral neglect         0.1000000E-07      :
          :  -> SCF convergence          0.1000000E-05 Eh   :
          :  -> wf. convergence          0.1000000E-03 e    :
          :  Broyden damping             0.4000000          :
          ...................................................

 iter      E             dE          RMSdq      gap      omega  full diag
   1     -9.1272879 -0.912729E+01  0.667E+00    1.60       0.0  T
   2     -9.1057610  0.215268E-01  0.377E+00    1.16       1.0  T
   3     -9.0962277  0.953333E-02  0.441E+00    1.49       1.0  T
   4     -9.1604821 -0.642544E-01  0.410E-01    1.30       1.0  T
   5     -9.1609106 -0.428532E-03  0.152E-01    1.31       1.0  T
   6     -9.1609344 -0.237903E-04  0.607E-02    1.31       1.0  T
   7     -9.1609299  0.450987E-05  0.463E-02    1.32       1.0  T
   8     -9.1609405 -0.105992E-04  0.367E-03    1.31      12.2  T
   9     -9.1609405  0.289324E-07  0.414E-03    1.31      10.8  T
  10     -9.1609406 -0.101516E-06  0.428E-04    1.31     104.5  T
  11     -9.1609406 -0.690784E-09  0.325E-04    1.31     137.5  T

   *** convergence criteria satisfied after 11 iterations ***

         #    Occupation            Energy/Eh            Energy/eV
      -------------------------------------------------------------
         1        2.0000           -0.7134448             -19.4138
       ...           ...                  ...                  ...
         3        2.0000           -0.5910873             -16.0843
         4        2.0000           -0.5422969             -14.7566
         5        2.0000           -0.5373302             -14.6215
         6        2.0000           -0.5151165             -14.0170
         7        2.0000           -0.4948445             -13.4654
         8        1.0000           -0.3963554             -10.7854
         9        1.0000           -0.3830182             -10.4225 (HOMO)
        10                         -0.3348648              -9.1121 (LUMO)
        11                          0.0796062               2.1662
        12                          0.0978705               2.6632
        13                          0.1327783               3.6131
        14                          0.1570409               4.2733
      -------------------------------------------------------------
                  HL-Gap            0.0481534 Eh            1.3103 eV
             Fermi-level           -0.4022707 Eh          -10.9463 eV

 transition dipole moment (au) for excitation:           8           9
     X       Y       Z   
   1.0955  -0.2384   0.0910  total (au/Debye):    1.125   2.859
 dE (eV)             :    0.363
 oscillator strength :  0.15911E-01

 SCC (total)                   0 d,  0 h,  0 min,  0.003 sec
 SCC setup                      ...        0 min,  0.000 sec (  2.655%)
 Dispersion                     ...        0 min,  0.000 sec (  0.420%)
 integral evaluation            ...        0 min,  0.001 sec ( 22.638%)
 zeroth order Hamiltonian       ...        0 min,  0.000 sec (  0.513%)
 iterations                     ...        0 min,  0.001 sec ( 31.530%)
 molecular gradient             ...        0 min,  0.001 sec ( 22.332%)
 printout                       ...        0 min,  0.001 sec ( 19.556%)

         :::::::::::::::::::::::::::::::::::::::::::::::::::::
         ::                     SUMMARY                     ::
         :::::::::::::::::::::::::::::::::::::::::::::::::::::
         :: total energy              -9.109414401197 Eh    ::
         :: gradient norm              0.254876977923 Eh/a0 ::
         :: HOMO-LUMO gap              1.310320456290 eV    ::
         ::.................................................::
         :: SCC energy                -9.160940581282 Eh    ::
         :: -> isotropic ES            0.016502435552 Eh    ::
         :: -> anisotropic ES         -0.000565559846 Eh    ::
         :: -> anisotropic XC          0.006047690590 Eh    ::
         :: -> dispersion             -0.001376541209 Eh    ::
         :: repulsion energy           0.051526141943 Eh    ::
         :: add. restraining           0.000000000000 Eh    ::
         :::::::::::::::::::::::::::::::::::::::::::::::::::::

      ----------------------------------------------------------- 
     |                   =====================                   |
     |                        A N C O P T                        |
     |                   =====================                   |
     |               Approximate Normal Coordinate               |
     |                Rational Function Optimizer                |
      ----------------------------------------------------------- 

          ...................................................
          :                      SETUP                      :
          :.................................................:
          :   optimization level            normal          :
          :   max. optcycles                   200          :
          :   ANC micro-cycles                  20          :
          :   degrees of freedom                 9          :
          :.................................................:
          :   RF solver                   davidson          :
          :   write xtbopt.log                true          :
          :   linear?                        false          :
          :   energy convergence         0.5000000E-05 Eh   :
          :   grad. convergence          0.1000000E-02 Eh/α :
          :   maximium RF displ.         1.0000000          :
          :   Hlow (freq-cutoff)         0.1000000E-01      :
          :   Hmax (freq-cutoff)         5.0000000          :
          :   S6 in model hess.         20.0000000          :
          ...................................................

generating ANC from model Hessian ...
Using Lindh-Hessian (1995)
 Shifting diagonal of input Hessian by    0.0000000000000000     
 Lowest  eigenvalues of input Hessian
   -0.000000   -0.000000   -0.000000    0.000000    0.000000    0.000000
    0.012290    0.033110    0.082580    0.099076    0.152091    0.533556
    0.956273    0.976081    1.245135
 Highest eigenvalues
    0.099076    0.152091    0.533556    0.956273    0.976081    1.245135


........................................................................
.............................. CYCLE    1 ..............................
........................................................................
   1     -9.1609406 -0.916094E+01  0.329E-05    1.31       0.0  T
   2     -9.1609406  0.802558E-11  0.471E-05    1.31     949.4  T
   3     -9.1609406 -0.142482E-10  0.399E-06    1.31   11204.6  T
     SCC iter.                  ...        0 min,  0.000 sec
     gradient                   ...        0 min,  0.001 sec
 * total energy  :    -9.1094144 Eh     change       -0.7173195E-09 Eh
   gradient norm :     0.2548812 Eh/α   predicted     0.0000000E+00 (-100.00%)
   displ. norm   :     0.3045441 α      lambda       -0.6362338E-01
   maximum displ.:     0.1578583 α      in ANC's #2, #9, #6, ...

........................................................................
.............................. CYCLE    2 ..............................
........................................................................
   1     -9.2342546 -0.923425E+01  0.156E+00    1.53       0.0  T
   2     -9.2354278 -0.117326E-02  0.932E-01    1.43       1.0  T
   3     -9.2357905 -0.362643E-03  0.677E-01    1.42       1.0  T
   4     -9.2365913 -0.800880E-03  0.112E-01    1.42       1.0  T
   5     -9.2366341 -0.427896E-04  0.386E-02    1.40       1.2  T
   6     -9.2366345 -0.391958E-06  0.116E-02    1.40       3.9  T
   7     -9.2366346 -0.300673E-07  0.339E-03    1.40      13.2  T
   8     -9.2366346 -0.552714E-07  0.791E-04    1.40      56.5  T
   9     -9.2366346 -0.406139E-09  0.407E-05    1.40    1100.1  T
     SCC iter.                  ...        0 min,  0.001 sec
     gradient                   ...        0 min,  0.001 sec
 * total energy  :    -9.1563939 Eh     change       -0.4697949E-01 Eh
   gradient norm :     0.1094281 Eh/α   predicted    -0.3476213E-01 ( -26.01%)
   displ. norm   :     0.2042170 α      lambda       -0.1800159E-01
   maximum displ.:     0.1277669 α      in ANC's #9, #2, #6, ...

........................................................................
.............................. CYCLE    3 ..............................
........................................................................
   1     -9.2740469 -0.927405E+01  0.107E+00    1.64       0.0  T
   2     -9.2750932 -0.104625E-02  0.611E-01    1.56       1.0  T
   3     -9.2751999 -0.106750E-03  0.359E-01    1.56       1.0  T
   4     -9.2753007 -0.100812E-03  0.624E-02    1.55       1.0  T
   5     -9.2753102 -0.949872E-05  0.230E-02    1.55       1.9  T
   6     -9.2753105 -0.276016E-06  0.751E-03    1.55       6.0  T
   7     -9.2753105 -0.116882E-07  0.115E-03    1.55      39.1  T
   8     -9.2753105 -0.451054E-08  0.374E-04    1.55     119.6  T
   9     -9.2753105 -0.737295E-10  0.172E-05    1.55    2598.2  T
     SCC iter.                  ...        0 min,  0.001 sec
     gradient                   ...        0 min,  0.001 sec
 * total energy  :    -9.1583124 Eh     change       -0.1918455E-02 Eh
   gradient norm :     0.1376501 Eh/α   predicted    -0.9376166E-02 ( 388.74%)
   displ. norm   :     0.2631863 α      lambda       -0.1386742E-01
   maximum displ.:     0.2467024 α      in ANC's #2, #5, #9, ...

........................................................................
.............................. CYCLE    4 ..............................
........................................................................
   1     -9.2527241 -0.925272E+01  0.716E-01    0.98       0.0  T
   2     -9.2530439 -0.319782E-03  0.471E-01    1.04       1.0  T
   3     -9.2530112  0.327163E-04  0.244E-01    1.03       1.0  T
   4     -9.2531062 -0.950261E-04  0.620E-02    1.02       1.0  T
   5     -9.2531194 -0.131894E-04  0.179E-02    1.03       2.5  T
   6     -9.2531196 -0.235082E-06  0.597E-03    1.03       7.5  T
   7     -9.2531196 -0.915785E-08  0.417E-04    1.03     107.3  T
   8     -9.2531196 -0.263213E-09  0.189E-04    1.03     236.1  T
     SCC iter.                  ...        0 min,  0.001 sec
     gradient                   ...        0 min,  0.001 sec
 * total energy  :    -9.1630908 Eh     change       -0.4778403E-02 Eh
   gradient norm :     0.0395494 Eh/α   predicted    -0.7413984E-02 (  55.16%)
   displ. norm   :     0.0882199 α      lambda       -0.1285163E-02
   maximum displ.:     0.0813559 α      in ANC's #2, #5, #6, ...

........................................................................
.............................. CYCLE    5 ..............................
........................................................................
   1     -9.2603234 -0.926032E+01  0.271E-01    1.20       0.0  T
   2     -9.2603505 -0.271008E-04  0.171E-01    1.19       1.0  T
   3     -9.2603464  0.406004E-05  0.558E-02    1.20       1.0  T
   4     -9.2603525 -0.610656E-05  0.166E-02    1.19       2.7  T
   5     -9.2603536 -0.104700E-05  0.459E-03    1.19       9.7  T
   6     -9.2603536 -0.560078E-08  0.439E-04    1.19     101.8  T
   7     -9.2603536 -0.152207E-09  0.997E-05    1.19     448.5  T
     SCC iter.                  ...        0 min,  0.001 sec
     gradient                   ...        0 min,  0.001 sec
 * total energy  :    -9.1637576 Eh     change       -0.6668296E-03 Eh
   gradient norm :     0.0085130 Eh/α   predicted    -0.6475837E-03 (  -2.89%)
   displ. norm   :     0.0528176 α      lambda       -0.2212993E-03
   maximum displ.:     0.0471409 α      in ANC's #2, #4, #5, ...

........................................................................
.............................. CYCLE    6 ..............................
........................................................................
   1     -9.2614169 -0.926142E+01  0.131E-01    1.18       0.0  T
   2     -9.2614245 -0.759586E-05  0.779E-02    1.17       1.0  T
   3     -9.2614230  0.152602E-05  0.403E-02    1.17       1.1  T
   4     -9.2614260 -0.300031E-05  0.778E-03    1.17       5.7  T
   5     -9.2614262 -0.210157E-06  0.226E-03    1.17      19.8  T
   6     -9.2614262 -0.186609E-08  0.567E-04    1.17      78.9  T
   7     -9.2614262 -0.132296E-09  0.459E-05    1.17     974.4  T
     SCC iter.                  ...        0 min,  0.000 sec
     gradient                   ...        0 min,  0.001 sec
 * total energy  :    -9.1638884 Eh     change       -0.1307788E-03 Eh
   gradient norm :     0.0069226 Eh/α   predicted    -0.1109565E-03 ( -15.16%)
   displ. norm   :     0.0305111 α      lambda       -0.9707318E-04
   maximum displ.:     0.0238172 α      in ANC's #2, #6, #4, ...

........................................................................
.............................. CYCLE    7 ..............................
........................................................................
   1     -9.2623859 -0.926239E+01  0.941E-02    1.14       0.0  T
   2     -9.2623872 -0.131544E-05  0.563E-02    1.14       1.0  T
   3     -9.2623855  0.163257E-05  0.276E-02    1.14       1.6  T
   4     -9.2623878 -0.228151E-05  0.263E-03    1.14      17.0  T
   5     -9.2623878 -0.101523E-07  0.134E-03    1.14      33.5  T
   6     -9.2623878 -0.130167E-08  0.444E-04    1.14     100.6  T
   7     -9.2623878 -0.651923E-10  0.331E-05    1.14    1349.4  T
     SCC iter.                  ...        0 min,  0.000 sec
     gradient                   ...        0 min,  0.001 sec
 * total energy  :    -9.1639439 Eh     change       -0.5555789E-04 Eh
   gradient norm :     0.0033155 Eh/α   predicted    -0.4858317E-04 ( -12.55%)
   displ. norm   :     0.0245649 α      lambda       -0.2072606E-04
   maximum displ.:     0.0197759 α      in ANC's #1, #2, #4, ...

........................................................................
.............................. CYCLE    8 ..............................
........................................................................
   1     -9.2621029 -0.926210E+01  0.104E-01    1.13       0.0  T
   2     -9.2621033 -0.377407E-06  0.647E-02    1.13       1.0  T
   3     -9.2621035 -0.198995E-06  0.545E-03    1.13       8.2  T
   4     -9.2621036 -0.562507E-07  0.336E-03    1.13      13.3  T
   5     -9.2621036 -0.121342E-07  0.117E-03    1.13      38.3  T
   6     -9.2621036 -0.121285E-08  0.280E-04    1.13     159.8  T
   7     -9.2621036 -0.562714E-10  0.554E-05    1.13     807.9  T
     SCC iter.                  ...        0 min,  0.000 sec
     gradient                   ...        0 min,  0.001 sec
 * total energy  :    -9.1639698 Eh     change       -0.2591878E-04 Eh
   gradient norm :     0.0024118 Eh/α   predicted    -0.1037029E-04 ( -59.99%)
   displ. norm   :     0.1090215 α      lambda       -0.1683556E-03
   maximum displ.:     0.1072221 α      in ANC's #1, #3, #2, ...

........................................................................
.............................. CYCLE    9 ..............................
........................................................................
   1     -9.2619993 -0.926200E+01  0.522E-01    1.16       0.0  T
   2     -9.2620224 -0.230618E-04  0.319E-01    1.17       1.0  T
   3     -9.2620276 -0.518403E-05  0.426E-02    1.17       1.0  T
   4     -9.2620300 -0.238324E-05  0.151E-02    1.17       3.0  T
   5     -9.2620299  0.702992E-07  0.662E-03    1.17       6.8  T
   6     -9.2620301 -0.164329E-06  0.135E-03    1.17      33.1  T
   7     -9.2620301 -0.116985E-08  0.260E-04    1.17     172.2  T
   8     -9.2620301 -0.934719E-11  0.106E-04    1.17     420.7  T
     SCC iter.                  ...        0 min,  0.001 sec
     gradient                   ...        0 min,  0.001 sec
 * total energy  :    -9.1644967 Eh     change       -0.5268192E-03 Eh
   gradient norm :     0.0139430 Eh/α   predicted    -0.8517776E-04 ( -83.83%)
   displ. norm   :     0.4327092 α      lambda       -0.3488394E-02
   maximum displ.:     0.4213204 α      in ANC's #1, #3, #2, ...

........................................................................
.............................. CYCLE   10 ..............................
........................................................................
   1     -9.2494269 -0.924943E+01  0.186E+00    1.61       0.0  T
   2     -9.2516665 -0.223959E-02  0.104E+00    1.69       1.0  T
   3     -9.2519753 -0.308859E-03  0.657E-01    1.66       1.0  T
   4     -9.2525176 -0.542271E-03  0.679E-02    1.69       1.0  T
   5     -9.2525183 -0.699171E-06  0.421E-02    1.69       1.1  T
   6     -9.2525235 -0.514132E-05  0.123E-02    1.69       3.6  T
   7     -9.2525235 -0.581696E-07  0.270E-03    1.69      16.6  T
   8     -9.2525235 -0.149491E-07  0.688E-04    1.69      65.0  T
   9     -9.2525235 -0.203281E-09  0.716E-05    1.69     624.8  T
     SCC iter.                  ...        0 min,  0.001 sec
     gradient                   ...        0 min,  0.001 sec
 * total energy  :    -9.1675121 Eh     change       -0.3015471E-02 Eh
   gradient norm :     0.0893451 Eh/α   predicted    -0.2070769E-02 ( -31.33%)
   displ. norm   :     0.0935366 α      lambda       -0.3791729E-02
   maximum displ.:     0.0484090 α      in ANC's #3, #2, #1, ...

........................................................................
.............................. CYCLE   11 ..............................
........................................................................
   1     -9.2577269 -0.925773E+01  0.379E-01    1.77       0.0  T
   2     -9.2577772 -0.503253E-04  0.221E-01    1.77       1.0  T
   3     -9.2577680  0.917254E-05  0.126E-01    1.77       1.0  T
   4     -9.2577976 -0.295739E-04  0.128E-02    1.77       3.5  T
   5     -9.2577976  0.302764E-07  0.756E-03    1.77       5.9  T
   6     -9.2577977 -0.166427E-06  0.213E-03    1.77      21.0  T
   7     -9.2577977 -0.354152E-08  0.360E-04    1.77     124.1  T
   8     -9.2577977 -0.200373E-09  0.104E-04    1.77     428.8  T
     SCC iter.                  ...        0 min,  0.001 sec
     gradient                   ...        0 min,  0.001 sec
 * total energy  :    -9.1708629 Eh     change       -0.3350770E-02 Eh
   gradient norm :     0.0732748 Eh/α   predicted    -0.1912452E-02 ( -42.93%)
   displ. norm   :     0.4272789 α      lambda       -0.1409664E-01
   maximum displ.:     0.2554522 α      in ANC's #2, #1, #6, ...

........................................................................
.............................. CYCLE   12 ..............................
........................................................................
   1     -9.2748947 -0.927489E+01  0.150E+00    2.17       0.0  T
   2     -9.2759190 -0.102431E-02  0.876E-01    2.13       1.0  T
   3     -9.2759104  0.861373E-05  0.538E-01    2.16       1.0  T
   4     -9.2763809 -0.470463E-03  0.672E-02    2.14       1.0  T
   5     -9.2763933 -0.124530E-04  0.359E-02    2.14       1.2  T
   6     -9.2763940 -0.705529E-06  0.656E-03    2.14       6.8  T
   7     -9.2763941 -0.100980E-06  0.196E-03    2.14      22.8  T
   8     -9.2763942 -0.102087E-07  0.296E-04    2.14     151.1  T
   9     -9.2763942 -0.294964E-10  0.535E-05    2.14     835.8  T
     SCC iter.                  ...        0 min,  0.001 sec
     gradient                   ...        0 min,  0.001 sec
 * total energy  :    -9.1804512 Eh     change       -0.9588327E-02 Eh
   gradient norm :     0.0467645 Eh/α   predicted    -0.8335118E-02 ( -13.07%)
   displ. norm   :     0.3301878 α      lambda       -0.5370244E-02
   maximum displ.:     0.2058047 α      in ANC's #1, #6, #2, ...

........................................................................
.............................. CYCLE   13 ..............................
........................................................................
   1     -9.2750880 -0.927509E+01  0.986E-01    2.59       0.0  T
   2     -9.2754974 -0.409461E-03  0.618E-01    2.54       1.0  T
   3     -9.2754661  0.313245E-04  0.392E-01    2.59       1.0  T
   4     -9.2757761 -0.309984E-03  0.840E-02    2.57       1.0  T
   5     -9.2758033 -0.272334E-04  0.295E-02    2.57       1.5  T
   6     -9.2758037 -0.361457E-06  0.641E-03    2.57       7.0  T
   7     -9.2758037 -0.288131E-07  0.110E-03    2.57      40.8  T
   8     -9.2758037 -0.123943E-08  0.432E-04    2.57     103.5  T
   9     -9.2758037 -0.571827E-10  0.325E-05    2.57    1374.9  T
     SCC iter.                  ...        0 min,  0.001 sec
     gradient                   ...        0 min,  0.001 sec
 * total energy  :    -9.1823030 Eh     change       -0.1851741E-02 Eh
   gradient norm :     0.0901417 Eh/α   predicted    -0.2977863E-02 (  60.81%)
   displ. norm   :     0.4732070 α      lambda       -0.1913070E-01
   maximum displ.:     0.3064322 α      in ANC's #6, #9, #5, ...

........................................................................
.............................. CYCLE   14 ..............................
........................................................................
   1     -9.3246995 -0.932470E+01  0.154E+00    2.66       0.0  T
   2     -9.3251338 -0.434289E-03  0.943E-01    2.68       1.0  T
   3     -9.3248227  0.311057E-03  0.443E-01    2.63       1.0  T
   4     -9.3253660 -0.543269E-03  0.627E-02    2.65       1.0  T
   5     -9.3253675 -0.146376E-05  0.297E-02    2.65       1.5  T
   6     -9.3253682 -0.690619E-06  0.949E-03    2.65       4.7  T
   7     -9.3253682 -0.376814E-07  0.221E-03    2.65      20.2  T
   8     -9.3253682 -0.179817E-07  0.678E-04    2.65      65.9  T
   9     -9.3253682 -0.680522E-09  0.124E-04    2.65     360.6  T
     SCC iter.                  ...        0 min,  0.001 sec
     gradient                   ...        0 min,  0.001 sec
 * total energy  :    -9.1735804 Eh     change        0.8722542E-02 Eh
   gradient norm :     0.1521064 Eh/α   predicted    -0.1170727E-01 (-234.22%)
   displ. norm   :     0.2873903 α      lambda       -0.2889702E-01
   maximum displ.:     0.2349334 α      in ANC's #2, #1, #4, ...

........................................................................
.............................. CYCLE   15 ..............................
........................................................................
   1     -9.2903853 -0.929039E+01  0.590E-01    2.57       0.0  T
   2     -9.2905703 -0.184997E-03  0.338E-01    2.54       1.0  T
   3     -9.2905866 -0.163619E-04  0.231E-01    2.56       1.0  T
   4     -9.2906808 -0.941322E-04  0.427E-02    2.55       1.0  T
   5     -9.2906840 -0.320344E-05  0.205E-02    2.55       2.2  T
   6     -9.2906843 -0.331618E-06  0.574E-03    2.55       7.8  T
   7     -9.2906843 -0.139205E-07  0.125E-03    2.55      35.8  T
   8     -9.2906843 -0.244101E-08  0.374E-04    2.55     119.5  T
   9     -9.2906843 -0.127438E-09  0.873E-05    2.55     512.3  T
     SCC iter.                  ...        0 min,  0.001 sec
     gradient                   ...        0 min,  0.001 sec
 * total energy  :    -9.1854320 Eh     change       -0.1185156E-01 Eh
   gradient norm :     0.0516637 Eh/α   predicted    -0.1564185E-01 (  31.98%)
   displ. norm   :     0.4395463 α      lambda       -0.9654632E-02
   maximum displ.:     0.2860542 α      in ANC's #2, #6, #9, ...

........................................................................
.............................. CYCLE   16 ..............................
........................................................................
   1     -9.2807072 -0.928071E+01  0.126E+00    2.51       0.0  T
   2     -9.2809072 -0.199946E-03  0.767E-01    2.53       1.0  T
   3     -9.2808259  0.813370E-04  0.229E-01    2.53       1.0  T
   4     -9.2809956 -0.169762E-03  0.500E-02    2.54       1.0  T
   5     -9.2809965 -0.830291E-06  0.244E-02    2.54       1.8  T
   6     -9.2809977 -0.122541E-05  0.948E-03    2.54       4.7  T
   7     -9.2809978 -0.762073E-07  0.246E-03    2.54      18.2  T
   8     -9.2809978 -0.208724E-07  0.676E-04    2.54      66.1  T
   9     -9.2809978 -0.110578E-08  0.128E-04    2.54     348.6  T
     SCC iter.                  ...        0 min,  0.001 sec
     gradient                   ...        0 min,  0.001 sec
 * total energy  :    -9.1861244 Eh     change       -0.6924429E-03 Eh
   gradient norm :     0.0430767 Eh/α   predicted    -0.5759959E-02 ( 731.83%)
   displ. norm   :     0.1937726 α      lambda       -0.4147424E-02
   maximum displ.:     0.1198497 α      in ANC's #6, #2, #9, ...

........................................................................
.............................. CYCLE   17 ..............................
........................................................................
   1     -9.2929158 -0.929292E+01  0.602E-01    2.58       0.0  T
   2     -9.2929488 -0.329101E-04  0.371E-01    2.57       1.0  T
   3     -9.2929410  0.778778E-05  0.888E-02    2.57       1.0  T
   4     -9.2929671 -0.261459E-04  0.250E-02    2.57       1.8  T
   5     -9.2929673 -0.214733E-06  0.127E-02    2.56       3.5  T
   6     -9.2929677 -0.355724E-06  0.395E-03    2.57      11.3  T
   7     -9.2929677 -0.907347E-08  0.661E-04    2.57      67.7  T
   8     -9.2929677 -0.111993E-08  0.252E-04    2.57     177.6  T
     SCC iter.                  ...        0 min,  0.001 sec
     gradient                   ...        0 min,  0.001 sec
 * total energy  :    -9.1882304 Eh     change       -0.2105948E-02 Eh
   gradient norm :     0.0072838 Eh/α   predicted    -0.2151575E-02 (   2.17%)
   displ. norm   :     0.0745682 α      lambda       -0.2980498E-03
   maximum displ.:     0.0400688 α      in ANC's #6, #9, #1, ...

........................................................................
.............................. CYCLE   18 ..............................
........................................................................
   1     -9.2921685 -0.929217E+01  0.222E-01    2.63       0.0  T
   2     -9.2921806 -0.121217E-04  0.140E-01    2.62       1.0  T
   3     -9.2921723  0.834634E-05  0.743E-02    2.63       1.0  T
   4     -9.2921878 -0.155301E-04  0.112E-02    2.63       4.0  T
   5     -9.2921880 -0.244974E-06  0.626E-03    2.63       7.1  T
   6     -9.2921881 -0.196817E-07  0.803E-04    2.63      55.7  T
   7     -9.2921881 -0.433330E-09  0.166E-04    2.63     269.6  T
     SCC iter.                  ...        0 min,  0.000 sec
     gradient                   ...        0 min,  0.001 sec
 * total energy  :    -9.1883370 Eh     change       -0.1066392E-03 Eh
   gradient norm :     0.0135647 Eh/α   predicted    -0.1498523E-03 (  40.52%)
   displ. norm   :     0.0203719 α      lambda       -0.1559386E-03
   maximum displ.:     0.0115081 α      in ANC's #5, #4, #9, ...

........................................................................
.............................. CYCLE   19 ..............................
........................................................................
   1     -9.2924252 -0.929243E+01  0.633E-02    2.64       0.0  T
   2     -9.2924286 -0.341729E-05  0.420E-02    2.64       1.1  T
   3     -9.2924291 -0.458608E-06  0.215E-02    2.64       2.1  T
   4     -9.2924296 -0.531962E-06  0.532E-03    2.64       8.4  T
   5     -9.2924297 -0.461743E-07  0.219E-03    2.64      20.4  T
   6     -9.2924297 -0.101165E-07  0.661E-04    2.64      67.7  T
   7     -9.2924297 -0.152305E-09  0.938E-05    2.64     476.9  T
     SCC iter.                  ...        0 min,  0.001 sec
     gradient                   ...        0 min,  0.001 sec
 * total energy  :    -9.1884125 Eh     change       -0.7550146E-04 Eh
   gradient norm :     0.0053423 Eh/α   predicted    -0.7800076E-04 (   3.31%)
   displ. norm   :     0.0200014 α      lambda       -0.6343480E-04
   maximum displ.:     0.0117780 α      in ANC's #9, #1, #5, ...

........................................................................
.............................. CYCLE   20 ..............................
........................................................................
   1     -9.2920735 -0.929207E+01  0.506E-02    2.62       0.0  T
   2     -9.2920741 -0.643128E-06  0.315E-02    2.62       1.4  T
   3     -9.2920738  0.381468E-06  0.168E-02    2.62       2.7  T
   4     -9.2920745 -0.740196E-06  0.237E-03    2.62      18.8  T
   5     -9.2920745 -0.106539E-07  0.142E-03    2.62      31.5  T
   6     -9.2920745 -0.159359E-08  0.353E-04    2.62     126.8  T
   7     -9.2920745 -0.839968E-10  0.366E-05    2.62    1223.2  T
     SCC iter.                  ...        0 min,  0.000 sec
     gradient                   ...        0 min,  0.001 sec
 * total energy  :    -9.1884495 Eh     change       -0.3702212E-04 Eh
   gradient norm :     0.0014101 Eh/α   predicted    -0.3172863E-04 ( -14.30%)
   displ. norm   :     0.0239095 α      lambda       -0.1303799E-04
   maximum displ.:     0.0149978 α      in ANC's #9, #1, #6, ...
 * RMSD in coord.:     0.9472401 α      energy gain  -0.7903514E-01 Eh

generating ANC from model Hessian ...
Using Lindh-Hessian (1995)
 Shifting diagonal of input Hessian by    0.0000000000000000     
 Lowest  eigenvalues of input Hessian
   -0.000000   -0.000000   -0.000000   -0.000000    0.000000    0.000000
    0.032876    0.079125    0.099467    0.151247    0.286400    0.495019
    1.203949    1.344169    2.164778
 Highest eigenvalues
    0.151247    0.286400    0.495019    1.203949    1.344169    2.164778


........................................................................
.............................. CYCLE   21 ..............................
........................................................................
   1     -9.2919338 -0.929193E+01  0.711E-02    2.62       0.0  T
   2     -9.2919342 -0.340528E-06  0.450E-02    2.62       1.0  T
   3     -9.2919344 -0.239738E-06  0.422E-03    2.62      10.6  T
   4     -9.2919344 -0.320521E-07  0.257E-03    2.62      17.4  T
   5     -9.2919344 -0.503344E-08  0.560E-04    2.62      79.9  T
   6     -9.2919344 -0.681926E-09  0.207E-04    2.62     215.9  T
     SCC iter.                  ...        0 min,  0.000 sec
     gradient                   ...        0 min,  0.001 sec
 * total energy  :    -9.1884578 Eh     change       -0.8254354E-05 Eh
   gradient norm :     0.0014480 Eh/α   predicted     0.0000000E+00 (-100.00%)
   displ. norm   :     0.0117980 α      lambda       -0.4796218E-05
   maximum displ.:     0.0096849 α      in ANC's #1, #2, #4, ...

........................................................................
.............................. CYCLE   22 ..............................
........................................................................
   1     -9.2922567 -0.929226E+01  0.289E-02    2.63       0.0  T
   2     -9.2922567 -0.393787E-07  0.177E-02    2.63       2.5  T
   3     -9.2922566  0.960984E-07  0.529E-03    2.63       8.5  T
   4     -9.2922568 -0.123343E-06  0.791E-04    2.63      56.5  T
   5     -9.2922568 -0.162290E-09  0.273E-04    2.63     163.7  T
     SCC iter.                  ...        0 min,  0.000 sec
     gradient                   ...        0 min,  0.001 sec
 * total energy  :    -9.1884596 Eh     change       -0.1784556E-05 Eh
   gradient norm :     0.0007618 Eh/α   predicted    -0.2399608E-05 (  34.47%)
   displ. norm   :     0.0083877 α      lambda       -0.2910302E-05
   maximum displ.:     0.0059395 α      in ANC's #1, #2, #3, ...

   *** GEOMETRY OPTIMIZATION CONVERGED AFTER 22 ITERATIONS ***

------------------------------------------------------------------------
 total energy gain   :        -0.0790452 Eh      -49.6016 kcal/mol
 total RMSD          :         0.9438793 a0        0.4995 Å
 total power (kW/mol):        -9.4333226 (step)-4174.5129 (real)
------------------------------------------------------------------------

 ANCopt (total)                0 d,  0 h,  0 min,  0.050 sec
 optimizer setup                ...        0 min,  0.000 sec (  0.142%)
 model hessian                  ...        0 min,  0.000 sec (  0.318%)
 ANC generation                 ...        0 min,  0.000 sec (  0.219%)
 coordinate transformation      ...        0 min,  0.000 sec (  0.114%)
 single point calculation       ...        0 min,  0.047 sec ( 95.135%)
 optimization log               ...        0 min,  0.001 sec (  1.302%)
 hessian update                 ...        0 min,  0.000 sec (  0.112%)
 rational function              ...        0 min,  0.001 sec (  1.150%)

================
 final structure:
================
5
 xtb: 6.2.2 (9d81278992624c895f80dd42a50cac0aa55982e2)
C         0.87880855403477    0.10342967763350    0.22581387540205
C        -0.50915841638758    0.13617348612839    0.05991945862619
O         1.76229818528807   -0.55480317444992   -0.27515100415866
H        -1.10279481665250    0.82935032663713    0.63047939763878
H        -1.02915350628276   -0.51415031594910   -0.64106172750837

 Bond Distances (Angstroems)
 ---------------------------
C1-C2=1.3982         C1-O3=1.2103         C2-C1=1.3982         C2-H4=1.0763         C2-H5=1.0884         O3-C1=1.2103         
H4-C2=1.0763         H5-C2=1.0884         
 C  H  Rav=1.0824 sigma=0.0061  Rmin=1.0763  Rmax=1.0884     2
 C  C  Rav=1.3982 sigma=0.0000  Rmin=1.3982  Rmax=1.3982     1
 O  C  Rav=1.2103 sigma=0.0000  Rmin=1.2103  Rmax=1.2103     1

 selected bond angles (degree)
 --------------------
O3-C1-C2=133.49                H4-C2-C1=119.98                H5-C2-C1=122.46                H5-C2-H4=117.56                

 selected dihedral angles (degree)
 ---------------------------------
H4-C2-C1-O3=180.21            H5-C2-C1-O3=359.63            
           -------------------------------------------------
          |                Final Singlepoint                |
           -------------------------------------------------

          ...................................................
          :                      SETUP                      :
          :.................................................:
          :  # basis functions                  14          :
          :  # atomic orbitals                  14          :
          :  # shells                            8          :
          :  # electrons                        16          :
          :  max. iterations                   250          :
          :  Hamiltonian                  GFN2-xTB          :
          :  restarted?                      false          :
          :  GBSA solvation                  false          :
          :  PC potential                    false          :
          :  electronic temp.          300.0000000     K    :
          :  accuracy                    1.0000000          :
          :  -> integral cutoff          0.2500000E+02      :
          :  -> integral neglect         0.1000000E-07      :
          :  -> SCF convergence          0.1000000E-05 Eh   :
          :  -> wf. convergence          0.1000000E-03 e    :
          :  Broyden damping             0.4000000          :
          ...................................................

 iter      E             dE          RMSdq      gap      omega  full diag
   1     -9.2922568 -0.929226E+01  0.685E-05    2.63       0.0  T
   2     -9.2922568 -0.323297E-11  0.357E-05    2.63    1252.4  T
   3     -9.2922568 -0.389022E-12  0.165E-05    2.63    2715.8  T

   *** convergence criteria satisfied after 3 iterations ***

         #    Occupation            Energy/Eh            Energy/eV
      -------------------------------------------------------------
         1        2.0000           -0.7222295             -19.6529
       ...           ...                  ...                  ...
         3        2.0000           -0.5895128             -16.0415
         4        2.0000           -0.5506997             -14.9853
         5        2.0000           -0.5432958             -14.7838
         6        2.0000           -0.5343141             -14.5394
         7        2.0000           -0.4904954             -13.3471
         8        1.0000           -0.4110041             -11.1840
         9        1.0000           -0.3065576              -8.3419 (HOMO)
        10                         -0.2100730              -5.7164 (LUMO)
        11                          0.0996516               2.7117
        12                          0.2128563               5.7921
        13                          0.3241361               8.8202
        14                          0.6519629              17.7408
      -------------------------------------------------------------
                  HL-Gap            0.0964847 Eh            2.6255 eV
             Fermi-level           -0.3545325 Eh           -9.6473 eV

 transition dipole moment (au) for excitation:           8           9
     X       Y       Z   
  -0.0005   0.0097  -0.0103  total (au/Debye):    0.014   0.036
 dE (eV)             :    2.842
 oscillator strength :  0.19719E-04

 SCC (total)                   0 d,  0 h,  0 min,  0.002 sec
 SCC setup                      ...        0 min,  0.000 sec (  2.253%)
 Dispersion                     ...        0 min,  0.000 sec (  0.458%)
 integral evaluation            ...        0 min,  0.001 sec ( 30.551%)
 zeroth order Hamiltonian       ...        0 min,  0.000 sec (  0.449%)
 iterations                     ...        0 min,  0.000 sec (  9.937%)
 molecular gradient             ...        0 min,  0.001 sec ( 30.015%)
 printout                       ...        0 min,  0.001 sec ( 25.890%)

         :::::::::::::::::::::::::::::::::::::::::::::::::::::
         ::                     SUMMARY                     ::
         :::::::::::::::::::::::::::::::::::::::::::::::::::::
         :: total energy              -9.188459589520 Eh    ::
         :: gradient norm              0.000760945955 Eh/a0 ::
         :: HOMO-LUMO gap              2.625481250109 eV    ::
         ::.................................................::
         :: SCC energy                -9.292256750948 Eh    ::
         :: -> isotropic ES            0.014316312929 Eh    ::
         :: -> anisotropic ES          0.000011866116 Eh    ::
         :: -> anisotropic XC          0.005071349970 Eh    ::
         :: -> dispersion             -0.001375034660 Eh    ::
         :: repulsion energy           0.103797147725 Eh    ::
         :: add. restraining           0.000000000000 Eh    ::
         :::::::::::::::::::::::::::::::::::::::::::::::::::::

           ------------------------------------------------- 
          |                Numerical Hessian                |
           ------------------------------------------------- 
step length          :   0.00500
SCC accuracy         :   0.30000
Hessian scale factor :   1.00000
frozen atoms in %    :   0.00000    0
RMS gradient         :   0.00076
estimated CPU  time      0.00 min
estimated wall time      0.00 min

writing file <hessian>.

 projected vibrational frequencies (cm-1)
eigval :       -0.00    -0.00    -0.00    -0.00     0.00     0.00
eigval :      413.75   420.45   795.50   965.69  1149.25  1353.31
eigval :     1755.11  2917.91  3120.41
           -------------------------------------------------
          |                Property Printout                |
           -------------------------------------------------

    * Orbital Energies and Occupations

         #    Occupation            Energy/Eh            Energy/eV
      -------------------------------------------------------------
         1        2.0000           -0.7222295             -19.6529
         2        2.0000           -0.6497396             -17.6803
         3        2.0000           -0.5895128             -16.0415
         4        2.0000           -0.5506996             -14.9853
         5        2.0000           -0.5432959             -14.7838
         6        2.0000           -0.5343140             -14.5394
         7        2.0000           -0.4904954             -13.3471
         8        1.0000           -0.4110040             -11.1840
         9        1.0000           -0.3065576              -8.3419 (HOMO)
        10                         -0.2100729              -5.7164 (LUMO)
        11                          0.0996517               2.7117
        12                          0.2128564               5.7921
        13                          0.3241362               8.8202
        14                          0.6519629              17.7408
      -------------------------------------------------------------
                  HL-Gap            0.0964847 Eh            2.6255 eV
             Fermi-level           -0.3545325 Eh           -9.6473 eV

     #   Z        covCN         q      C6AA      α(0)
     1   6 C      1.836     0.122    28.164     8.574
     2   6 C      2.831    -0.046    29.144     8.846
     3   8 O      0.856    -0.252    18.933     5.834
     4   1 H      0.926     0.088     1.894     2.152
     5   1 H      0.925     0.088     1.897     2.154

 Mol. C6AA /au·bohr⁶  :        315.191063
 Mol. C8AA /au·bohr⁸  :       7471.261451
 Mol. α(0) /au        :         27.559611


Wiberg/Mayer (AO) data.
largest (>0.10) Wiberg bond orders for each atom
          total WBO             WBO to atom ...
     1  C   3.068        O    3 1.817    C    2 1.249
     2  C   3.181        C    1 1.249    H    4 0.975    H    5 0.939
     3  O   1.850        C    1 1.817
     4  H   0.988        C    2 0.975
     5  H   0.943        C    2 0.939

MOs/occ written to file <molden.input>


molecular dipole:
                 x           y           z       tot (Debye)
 q only:       -0.948       0.329       0.176
   full:       -1.165       0.283       0.101       3.058
molecular quadrupole (traceless):
                xx          xy          yy          xz          yz          zz
 q only:       -1.899       1.212       0.812       0.773       0.211       1.087
  q+dip:       -2.090       1.280       0.920       0.877       0.734       1.170
   full:       -2.971       1.575       1.294       0.814      -0.306       1.677

           -------------------------------------------------
          |                Geometry Summary                 |
           -------------------------------------------------

      molecular mass/u    :       42.0367582
   center of mass at/Å    :        0.7252363      -0.1351476      -0.0233402
  moments of inertia/u·Å² :        0.3962569E+01   0.4642648E+02   0.5038898E+02
rotational constants/cm⁻¹ :        0.4254218E+01   0.3631038E+00   0.3345500E+00

 * 2 selected distances

     #   Z        #   Z                                     value/Å
     2   6 C      4   1 H                                 1.0763071 (min)
     2   6 C      5   1 H                                 1.0884349 (max)

 * 1 distinct bonds (by element types)

   Z      Z             #   av. dist./Å        max./Å        min./Å
   1 H    6 C           2     1.0823710     1.0884349     1.0763071

           -------------------------------------------------
          |               Frequency Printout                |
           -------------------------------------------------
 projected vibrational frequencies (cm-1)
eigval :       -0.00    -0.00    -0.00    -0.00     0.00     0.00
eigval :      413.75   420.45   795.50   965.69  1149.25  1353.31
eigval :     1755.11  2917.91  3120.41
 reduced masses (amu)
   1:  8.05   2: 13.88   3: 12.08   4: 11.16   5: 14.78   6: 10.66   7:  4.75   8: 10.11
   9:  4.53  10:  5.62  11: 10.51  12:  2.97  13: 13.49  14:  1.68  15:  1.84
 IR intensities (amu)
   1:  0.14   2:  0.21   3:  0.11   4:  0.19   5:  0.19   6:  0.13   7:  0.08   8:  0.31
   9:  0.25  10:  0.27  11:  0.12  12:  0.07  13:  1.38  14:  0.17  15:  0.06
 Raman intensities (amu)
   1:  0.00   2:  0.00   3:  0.00   4:  0.00   5:  0.00   6:  0.00   7:  0.00   8:  0.00
   9:  0.00  10:  0.00  11:  0.00  12:  0.00  13:  0.00  14:  0.00  15:  0.00
Molecule has the following symmetry elements: (sigma) 
It seems to be the Cs point group
 output can be read by thermo (or use thermo option).
 writing <g98.out> molden fake output.
 recommended (thermochemical) frequency scaling factor: 1.0
           -------------------------------------------------
          |             Thermodynamic Functions             |
           -------------------------------------------------

cs  symmetry found (for desy threshold:  0.10E+00) used in thermo

          ...................................................
          :                      SETUP                      :
          :.................................................:
          :  # frequencies                           9      :
          :  # imaginary freq.                       0      :
          :  linear?                             false      :
          :  only rotor calc.                    false      :
          :  symmetry                               cs      :
          :  rotational number                       1      :
          :  scaling factor                  1.0000000      :
          :  rotor cutoff                   50.0000000 cm⁻¹ :
          :  imag. cutoff                  -20.0000000 cm⁻¹ :
          :.................................................:

    mode    ω/cm⁻¹     T·S(HO)/kcal·mol⁻¹    T·S(FR)/kcal·mol⁻¹   T·S(vib)
   ------------------------------------------------------------------------
   ------------------------------------------------------------------------

   temp. (K)  partition function   enthalpy   heat capacity  entropy
                                   cal/mol     cal/K/mol   cal/K/mol   J/K/mol
 298.15  VIB   1.38                  463.857      4.336      2.199
         ROT  0.735E+04              888.752      2.981     20.674
         INT  0.102E+05             1352.609      7.316     22.873
         TR   0.264E+27             1481.254      4.968     37.118
         TOT                        2833.8629    12.2846    59.9910   251.0025

   temp. (K)  partition function   enthalpy   heat capacity  entropy
                                   cal/mol     cal/K/mol   cal/K/mol   J/K/mol
 120.00  VIB   1.01                   16.366      0.694      0.164
         ROT  0.188E+04              357.707      2.981     17.961
         INT  0.190E+04              374.073      3.675     18.124
         TR   0.673E+26              596.178      4.968     32.599
         TOT                         970.2513     8.6434    50.7230   212.2250

   temp. (K)  partition function   enthalpy   heat capacity  entropy
                                   cal/mol     cal/K/mol   cal/K/mol   J/K/mol
 100.00  VIB   1.00                    5.952      0.360      0.070
         ROT  0.143E+04              298.089      2.981     17.417
         INT  0.144E+04              304.041      3.340     17.487
         TR   0.512E+26              496.815      4.968     31.693
         TOT                         800.8560     8.3085    49.1801   205.7695

   temp. (K)  partition function   enthalpy   heat capacity  entropy
                                   cal/mol     cal/K/mol   cal/K/mol   J/K/mol
  80.00  VIB   1.00                    1.321      0.124      0.019
         ROT  0.102E+04              238.471      2.981     16.752
         INT  0.102E+04              239.793      3.105     16.771
         TR   0.367E+26              397.452      4.968     30.585
         TOT                         637.2445     8.0731    47.3561   198.1378

   temp. (K)  partition function   enthalpy   heat capacity  entropy
                                   cal/mol     cal/K/mol   cal/K/mol   J/K/mol
  60.00  VIB   1.00                    0.108      0.018      0.002
         ROT   664.                  178.853      2.981     15.895
         INT   664.                  178.962      2.999     15.896
         TR   0.238E+26              298.089      4.968     29.157
         TOT                         477.0508     7.9671    45.0531   188.5023

   temp. (K)  partition function   enthalpy   heat capacity  entropy
                                   cal/mol     cal/K/mol   cal/K/mol   J/K/mol
  40.00  VIB   1.00                    0.001      0.000     -0.000
         ROT   361.                  119.236      2.981     14.686
         INT   361.                  119.236      2.981     14.686
         TR   0.130E+26              198.726      4.968     27.143
         TOT                         317.9623     7.9493    41.8289   175.0121

   temp. (K)  partition function   enthalpy   heat capacity  entropy
                                   cal/mol     cal/K/mol   cal/K/mol   J/K/mol
  20.00  VIB   1.00                    0.000      0.000     -0.001
         ROT   128.                   59.618      2.981     12.620
         INT   128.                   59.618      2.981     12.619
         TR   0.458E+25               99.363      4.968     23.701
         TOT                         158.9808     7.9490    36.3204   151.9646

   temp. (K)  partition function   enthalpy   heat capacity  entropy
                                   cal/mol     cal/K/mol   cal/K/mol   J/K/mol
  10.00  VIB   1.00                    0.000      0.000     -0.001
         ROT   45.2                   29.809      2.981     10.554
         INT   45.2                   29.809      2.981     10.553
         TR   0.162E+25               49.681      4.968     20.259
         TOT                          79.4904     7.9490    30.8119   128.9171

       T/K    H(0)-H(T)+PV         H(T)/Eh          T*S/Eh         G(T)/Eh
   ------------------------------------------------------------------------
    298.15    0.451605E-02    0.338848E-01    0.285037E-01    0.538109E-02
    120.00    0.154619E-02    0.309149E-01    0.969987E-02    0.212150E-01
    100.00    0.127625E-02    0.306450E-01    0.783735E-02    0.228076E-01
     80.00    0.101551E-02    0.303842E-01    0.603734E-02    0.243469E-01
     60.00    0.760229E-03    0.301290E-01    0.430780E-02    0.258211E-01
     40.00    0.506705E-03    0.298754E-01    0.266634E-02    0.272091E-01
     20.00    0.253352E-03    0.296221E-01    0.115761E-02    0.284645E-01
     10.00    0.126676E-03    0.294954E-01    0.491019E-03    0.290044E-01 (used)
   ------------------------------------------------------------------------

         :::::::::::::::::::::::::::::::::::::::::::::::::::::
         ::                  THERMODYNAMIC                  ::
         :::::::::::::::::::::::::::::::::::::::::::::::::::::
         :: total free energy          -9.159455209851 Eh   ::
         ::.................................................::
         :: total energy               -9.188459589164 Eh   ::
         :: zero point energy           0.029368722684 Eh   ::
         :: G(RRHO) w/o ZPVE           -0.000364343372 Eh   ::
         :: G(RRHO) contrib.            0.029004379313 Eh   ::
         :::::::::::::::::::::::::::::::::::::::::::::::::::::

optimized geometry written to: xtbopt.xyz


           -------------------------------------------------
          | TOTAL ENERGY               -9.188459589164 Eh   |
          | TOTAL ENTHALPY             -9.158964190464 Eh   |
          | TOTAL FREE ENERGY          -9.159455209851 Eh   |
          | GRADIENT NORM               0.000761100499 Eh/α |
          | HOMO-LUMO GAP               2.625482232581 eV   |
           -------------------------------------------------

------------------------------------------------------------------------
 * finished run on 2020/05/12 at 11:45:14.240     
------------------------------------------------------------------------
 total:
 * wall-time:     0 d,  0 h,  0 min,  0.133 sec
 *  cpu-time:     0 d,  0 h,  0 min,  0.133 sec
 * ratio c/w:     0.997 speedup
 SCF:
 * wall-time:     0 d,  0 h,  0 min,  0.003 sec
 *  cpu-time:     0 d,  0 h,  0 min,  0.003 sec
 * ratio c/w:     1.000 speedup
 ANC optimizer:
 * wall-time:     0 d,  0 h,  0 min,  0.053 sec
 *  cpu-time:     0 d,  0 h,  0 min,  0.053 sec
 * ratio c/w:     0.998 speedup
 numerical hessian:
 * wall-time:     0 d,  0 h,  0 min,  0.060 sec
 *  cpu-time:     0 d,  0 h,  0 min,  0.060 sec
 * ratio c/w:     0.996 speedup

