[Molden Format]
[Title]
[Atoms] AU
C      1     6  0.16607098419430E+01  0.19544579507542E+00  0.42672020196207E+00
C      2     6 -0.96216812910045E+00  0.25733580587276E+00  0.11323426531276E+00
O      3     8  0.33302533065257E+01 -0.10484443001902E+01 -0.51996978748388E+00
H      4     1 -0.20839676167746E+01  0.15672578243957E+01  0.11914378173104E+01
H      5     1 -0.19448274025937E+01 -0.97159512515369E+00 -0.12114224971014E+01
[GTO]
           1 0
 s           4   1.0000000000000000     
   51.049363095579913      -0.16312063210127389     
   8.7911227406887544      -0.19911024581000730     
  0.70640422258929825       0.31882047753655751     
  0.26922813413411617       0.12706504184240380     
 p           4   1.0000000000000000     
   5.8263656140800002       0.73716451545209605     
   1.5106896018720002       0.68216371614850257     
  0.53256483288000001       0.35783053929253711     
  0.21202323690600003        5.3983030275847881E-002

           2 0
 s           4   1.0000000000000000     
   51.049363095579913      -0.16312063210127389     
   8.7911227406887544      -0.19911024581000730     
  0.70640422258929825       0.31882047753655751     
  0.26922813413411617       0.12706504184240380     
 p           4   1.0000000000000000     
   5.8263656140800002       0.73716451545209605     
   1.5106896018720002       0.68216371614850257     
  0.53256483288000001       0.35783053929253711     
  0.21202323690600003        5.3983030275847881E-002

           3 0
 s           4   1.0000000000000000     
   69.137961906196551      -0.20478756370077797     
   11.906129132707308      -0.24997023136827334     
  0.95670827744340703       0.40025880240639616     
  0.36462520496073686       0.15952206667693555     
 p           4   1.0000000000000000     
   8.2124193257781641        1.1321556799186829     
   2.1293576997098116        1.0476840782254817     
  0.75066448202360914       0.54956508217158984     
  0.29885246543283073        8.2908486592766617E-002

           4 0
 s           3   1.0000000000000000     
   3.3702276975336001       0.27359110588908298     
  0.61389118221497996       0.26460540653860526     
  0.16614291148415999        8.2465947534082318E-002

           5 0
 s           3   1.0000000000000000     
   3.3702276975336001       0.27359110588908298     
  0.61389118221497996       0.26460540653860526     
  0.16614291148415999        8.2465947534082318E-002

[MO]
Sym=     1a
Ene=  -0.72222954464352163     
Spin= Alpha
Occup=     2.00000000
           1 -0.34005508964033421     
           2 -0.14403284845892281     
           3  0.11999968012404272     
           4   9.3759393473225358E-002
           5  -5.8283868928986682E-002
           6  -6.0521159952631791E-002
           7   1.3380732583990557E-002
           8   4.1601183939520021E-003
           9 -0.66775973253383147     
          10  0.15958932964112507     
          11 -0.11421497070178969     
          12  -8.5982135811689162E-002
          13  -4.4294417720096473E-003
          14  -7.8167457445584686E-003
Sym=     2a
Ene=  -0.64973957592919229     
Spin= Alpha
Occup=     2.00000000
           1  0.30948307295991950     
           2 -0.26079856781626642     
           3   3.0369167562453270E-002
           4  -8.2924470376588098E-003
           5  0.51931937966989083     
           6  0.12175685778147921     
           7   2.5279550075367916E-003
           8   1.9181995161901961E-002
           9 -0.29434209092346786     
          10 -0.17551402144305386     
          11   4.0973995872032140E-002
          12   1.4001445232051718E-002
          13  0.15269732049716722     
          14  0.14645401220610349     
Sym=     3a
Ene=  -0.58951283713656633     
Spin= Alpha
Occup=     2.00000000
           1  0.32460893853277983     
           2   7.4197794130075767E-002
           3   2.9170151726916945E-002
           4   3.8961191843176139E-002
           5 -0.29102493573277455     
           6  0.24385852679347683     
           7  -3.8324171332013764E-003
           8   3.2239089033329844E-002
           9 -0.47805360662666746     
          10 -0.31366177335051104     
          11  0.29744522950468905     
          12  0.23917141874453590     
          13 -0.19891898254303036     
          14 -0.20519467359187327     
Sym=     4a
Ene=  -0.55069964916192204     
Spin= Alpha
Occup=     2.00000000
           1   9.9029938460651362E-002
           2  0.24262162567486162     
           3  0.21054564461440295     
           4  0.23340193371201651     
           5   8.7009642698489792E-002
           6 -0.19143815235588724     
           7  0.24146687044497128     
           8  0.20149228972678868     
           9  -2.1208968510557775E-002
          10  0.31219053889384257     
          11  0.31477974218972232     
          12  0.34212085603261555     
          13  0.30610182892640647     
          14  -7.1823232750234653E-002
Sym=     5a
Ene=  -0.54329586906016814     
Spin= Alpha
Occup=     2.00000000
           1   5.7527963914343408E-004
           2  -5.2444177301400725E-002
           3 -0.34153582017056267     
           4  0.36085196138528791     
           5   8.2896052872610143E-004
           6  -2.0287218488025019E-002
           7 -0.14243483288922346     
           8  0.15353138143665734     
           9   1.9770703908613182E-003
          10  -7.0764017286186989E-002
          11 -0.49005290072549473     
          12  0.51281997489563513     
          13   1.0267236896637712E-003
          14  -2.4824723593524808E-003
Sym=     6a
Ene=  -0.53431402341866907     
Spin= Alpha
Occup=     2.00000000
           1  0.11046789355967264     
           2 -0.27456159791693258     
           3  0.12475825855156791     
           4   7.5523544929204267E-002
           5  -4.0056569213705220E-002
           6  0.34839694661942960     
           7  0.23231268670516442     
           8  0.27066328035760745     
           9  0.25897573815752128     
          10  0.20438545383637585     
          11 -0.26120721779008704     
          12 -0.22644093276580940     
          13   4.1188069391869690E-002
          14 -0.38762823856132927     
Sym=     7a
Ene=  -0.49049539515235885     
Spin= Alpha
Occup=     2.00000000
           1  0.14783691406652585     
           2  -9.1885392505041241E-002
           3  0.20465820070064922     
           4  0.18174793052210911     
           5   7.6981200308165035E-002
           6  0.25149681497322779     
           7 -0.26086270911584936     
           8 -0.21248971242290510     
           9  0.11881001997494070     
          10  0.59836981244932941     
          11  0.10335209371026438     
          12  0.18333154147895420     
          13 -0.35222450668700767     
          14  0.20644929296737244     
Sym=     8a
Ene=  -0.41100395773470233     
Spin= Alpha
Occup=     1.00000000
           1   8.5500134295463082E-004
           2   2.1879176870808630E-002
           3  0.14872212900643625     
           4 -0.15484394306721247     
           5  -3.0039758723550010E-003
           6   8.7183047437524266E-002
           7  0.57171166522491501     
           8 -0.59928422424494343     
           9   1.5939088797526835E-004
          10  -5.1325424391206333E-002
          11 -0.34277839057054105     
          12  0.35835709418492995     
          13   4.8345942577933469E-004
          14   9.0384039169509318E-004
Sym=     9a
Ene=  -0.30655764342035713     
Spin= Alpha
Occup=     1.00000000
           1  0.40535181182029345     
           2  0.24276974017149536     
           3  0.49625688817474967     
           4  0.50884467805133715     
           5 -0.16756830102124329     
           6 -0.18290411910603740     
           7  -1.8719018752794265E-002
           8  -4.2399220695085886E-002
           9   2.6515414943257112E-002
          10 -0.29960037910419823     
          11 -0.36838264320262759     
          12 -0.39494300079819028     
          13  -8.3522685934900337E-002
          14  0.24978905971579865     
Sym=    10a
Ene=  -0.21007294674811505     
Spin= Alpha
Occup=     0.00000000
           1  -4.5622254653899841E-004
           2  -9.1772240543228717E-002
           3 -0.61147051350407056     
           4  0.64082132426634875     
           5  -2.5881338637530503E-003
           6   5.7997747049578850E-002
           7  0.37615527318207043     
           8 -0.39400078287600698     
           9  -7.6093556688359315E-005
          10   5.6014534031610094E-002
          11  0.37209618706193187     
          12 -0.39003772608797010     
          13   1.4095150324939163E-003
          14   1.5282727730734119E-003
Sym=    11a
Ene=    9.9651746999289206E-002
Spin= Alpha
Occup=     0.00000000
           1 -0.27365679898480660     
           2  0.22524694487191618     
           3  0.12555297736591373     
           4  0.15384872304797628     
           5   1.0975141845282606     
           6 -0.29548478200464212     
           7   5.4764697421298816E-002
           8   2.5216234091006871E-003
           9   9.2173905287146626E-002
          10 -0.20180315118514344     
          11   2.7207951483203333E-002
          12  -3.6350183709915706E-003
          13 -0.78772294683431177     
          14 -0.64982820410728781     
Sym=    12a
Ene=   0.21285636203707067     
Spin= Alpha
Occup=     0.00000000
           1 -0.44408277796787610     
           2  -6.3583413352290591E-002
           3   5.0949106959395120E-002
           4   3.8553864042262499E-002
           5  -5.3915012882826165E-002
           6  0.25900840929854929     
           7  0.69831339501418699     
           8  0.70466706943043300     
           9  0.20840649729079028     
          10 -0.23147665134805390     
          11  0.16756312441321602     
          12  0.12694492465952734     
          13 -0.63250378163105858     
          14  0.92296188458403172     
Sym=    13a
Ene=   0.32413620431645496     
Spin= Alpha
Occup=     0.00000000
           1  0.81525451642006663     
           2 -0.56009550065243374     
           3 -0.24099048648557111     
           4 -0.30843827758776315     
           5 -0.21060701639953056     
           6 -0.97299935382703218     
           7  0.34532392879460339     
           8  0.18848976619907082     
           9 -0.15988824477610275     
          10  0.32470271983009269     
          11  -6.3797238377691856E-002
          12  -1.4734852419012665E-002
          13 -0.58782165542027875     
          14  -3.2947811915993394E-003
Sym=    14a
Ene=   0.65196286792587244     
Spin= Alpha
Occup=     0.00000000
           1  0.38810613726538867     
           2   1.0416002507203459     
           3 -0.53134858086212478     
           4 -0.35789778135524336     
           5  0.32484461896627376     
           6  0.39627948167489907     
           7  0.23439949671624627     
           8  0.28004488369595432     
           9 -0.74288145925397975     
          10  0.54645318621461103     
          11 -0.46993596634028251     
          12 -0.36958884397721425     
          13 -0.13011284581419386     
          14  0.22315107929379413     
