 Entering Gaussian System, Link 0=g16
 Input=C8N_2X.com
 Output=C8N_2X.log
 Initial command:
 /home/spantaleone/g16/l1.exe "/scratch/cnt0027/pag0797/spantaleone/GAUSSIAN/gauss_scratch/Gau-24219.inp" -scrdir="/scratch/cnt0027/pag0797/spantaleone/GAUSSIAN/gauss_scratch/"
 Entering Link 1 = /home/spantaleone/g16/l1.exe PID=     24220.
  
 Copyright (c) 1988-2017, Gaussian, Inc.  All Rights Reserved.
  
 This is part of the Gaussian(R) 16 program.  It is based on
 the Gaussian(R) 09 system (copyright 2009, Gaussian, Inc.),
 the Gaussian(R) 03 system (copyright 2003, Gaussian, Inc.),
 the Gaussian(R) 98 system (copyright 1998, Gaussian, Inc.),
 the Gaussian(R) 94 system (copyright 1995, Gaussian, Inc.),
 the Gaussian 92(TM) system (copyright 1992, Gaussian, Inc.),
 the Gaussian 90(TM) system (copyright 1990, Gaussian, Inc.),
 the Gaussian 88(TM) system (copyright 1988, Gaussian, Inc.),
 the Gaussian 86(TM) system (copyright 1986, Carnegie Mellon
 University), and the Gaussian 82(TM) system (copyright 1983,
 Carnegie Mellon University). Gaussian is a federally registered
 trademark of Gaussian, Inc.
  
 This software contains proprietary and confidential information,
 including trade secrets, belonging to Gaussian, Inc.
  
 This software is provided under written license and may be
 used, copied, transmitted, or stored only in accord with that
 written license.
  
 The following legend is applicable only to US Government
 contracts under FAR:
  
                    RESTRICTED RIGHTS LEGEND
  
 Use, reproduction and disclosure by the US Government is
 subject to restrictions as set forth in subparagraphs (a)
 and (c) of the Commercial Computer Software - Restricted
 Rights clause in FAR 52.227-19.
  
 Gaussian, Inc.
 340 Quinnipiac St., Bldg. 40, Wallingford CT 06492
  
  
 ---------------------------------------------------------------
 Warning -- This program may not be used in any manner that
 competes with the business of Gaussian, Inc. or will provide
 assistance to any competitor of Gaussian, Inc.  The licensee
 of this program is prohibited from giving any competitor of
 Gaussian, Inc. access to this program.  By using this program,
 the user acknowledges that Gaussian, Inc. is engaged in the
 business of creating and licensing software in the field of
 computational chemistry and represents and warrants to the
 licensee that it is not a competitor of Gaussian, Inc. and that
 it will not use this program in any manner prohibited above.
 ---------------------------------------------------------------
  

 Cite this work as:
 Gaussian 16, Revision B.01,
 M. J. Frisch, G. W. Trucks, H. B. Schlegel, G. E. Scuseria, 
 M. A. Robb, J. R. Cheeseman, G. Scalmani, V. Barone, 
 G. A. Petersson, H. Nakatsuji, X. Li, M. Caricato, A. V. Marenich, 
 J. Bloino, B. G. Janesko, R. Gomperts, B. Mennucci, H. P. Hratchian, 
 J. V. Ortiz, A. F. Izmaylov, J. L. Sonnenberg, D. Williams-Young, 
 F. Ding, F. Lipparini, F. Egidi, J. Goings, B. Peng, A. Petrone, 
 T. Henderson, D. Ranasinghe, V. G. Zakrzewski, J. Gao, N. Rega, 
 G. Zheng, W. Liang, M. Hada, M. Ehara, K. Toyota, R. Fukuda, 
 J. Hasegawa, M. Ishida, T. Nakajima, Y. Honda, O. Kitao, H. Nakai, 
 T. Vreven, K. Throssell, J. A. Montgomery, Jr., J. E. Peralta, 
 F. Ogliaro, M. J. Bearpark, J. J. Heyd, E. N. Brothers, K. N. Kudin, 
 V. N. Staroverov, T. A. Keith, R. Kobayashi, J. Normand, 
 K. Raghavachari, A. P. Rendell, J. C. Burant, S. S. Iyengar, 
 J. Tomasi, M. Cossi, J. M. Millam, M. Klene, C. Adamo, R. Cammi, 
 J. W. Ochterski, R. L. Martin, K. Morokuma, O. Farkas, 
 J. B. Foresman, and D. J. Fox, Gaussian, Inc., Wallingford CT, 2016.
 
 ******************************************
 Gaussian 16:  ES64L-G16RevB.01 20-Dec-2017
                12-Oct-2020 
 ******************************************
 %nosave
 %nproc=24
 Will use up to   24 processors via shared memory.
 %mem=8gb
 %chk=input
 ----------------------------------------------------------------
 #P M062X/cc-pvtz nosymm opt(noeigentest) optcyc=120 freq scf=xqc
 ----------------------------------------------------------------
 1/6=120,11=1,18=20,19=15,26=3,38=1/1,3;
 2/9=110,12=2,15=1,17=6,18=5,40=1/2;
 3/5=16,6=1,11=2,25=1,30=1,71=1,74=-55/1,2,3;
 4//1;
 5/5=2,8=3,13=1,38=5/2,8;
 6/7=2,8=2,9=2,10=2,28=1/1;
 7/30=1/1,2,3,16;
 1/6=120,11=1,18=20,19=15,26=3/3(2);
 2/9=110,15=1/2;
 99//99;
 2/9=110,15=1/2;
 3/5=16,6=1,11=2,25=1,30=1,71=1,74=-55/1,2,3;
 4/5=5,16=3,69=1/1;
 5/5=2,8=3,13=1,38=5/2,8;
 7/30=1/1,2,3,16;
 1/6=120,11=1,18=20,19=15,26=3/3(-5);
 2/9=110,15=1/2;
 6/7=2,8=2,9=2,10=2,19=2,28=1/1;
 99/9=1/99;
 Leave Link    1 at Mon Oct 12 17:22:16 2020, MaxMem=  1073741824 cpu:               2.7 elap:               0.1
 (Enter /home/spantaleone/g16/l101.exe)
 -----
 Title
 -----
 Symbolic Z-matrix:
 Charge =  0 Multiplicity = 2
 C
 C                    1    B1
 C                    2    B2       1    A2
 C                    3    B3       2    A3       1    D3       0
 C                    4    B4       3    A4       2    D4       0
 C                    5    B5       4    A5       3    D5       0
 N                    6    B6       5    A6       4    D6       0
 C                    1    B7       2    A7       3    D7       0
 C                    8    B8       1    A8       2    D8       0
       Variables:
  B1                    1.28099                  
  B2                    1.28098                  
  A2                  179.97438                  
  B3                    1.28088                  
  A3                  179.97438                  
  D3                  359.99987                  
  B4                    1.2811                   
  A4                  179.97438                  
  D4                  359.99988                  
  B5                    1.2811                   
  A5                  179.97438                  
  D5                  359.99991                  
  B6                    1.25683                  
  A6                  179.97438                  
  D6                  359.99994                  
  B7                    1.28121                  
  A7                  179.97438                  
  D7                  359.99986                  
  B8                    1.30497                  
  A8                  179.97438                  
  D8                  359.99988                  
 
 ITRead=  0  0  0  0  0  0  0  0  0
 MicOpt= -1 -1 -1 -1 -1 -1 -1 -1 -1
 NAtoms=      9 NQM=        9 NQMF=       0 NMMI=      0 NMMIF=      0
                NMic=       0 NMicF=      0.
                    Isotopes and Nuclear Properties:
 (Nuclear quadrupole moments (NQMom) in fm**2, nuclear magnetic moments (NMagM)
  in nuclear magnetons)

  Atom         1           2           3           4           5           6           7           8           9
 IAtWgt=          12          12          12          12          12          12          14          12          12
 AtmWgt=  12.0000000  12.0000000  12.0000000  12.0000000  12.0000000  12.0000000  14.0030740  12.0000000  12.0000000
 NucSpn=           0           0           0           0           0           0           2           0           0
 AtZEff=  -0.0000000  -0.0000000  -0.0000000  -0.0000000  -0.0000000  -0.0000000  -0.0000000  -0.0000000  -0.0000000
 NQMom=    0.0000000   0.0000000   0.0000000   0.0000000   0.0000000   0.0000000   2.0440000   0.0000000   0.0000000
 NMagM=    0.0000000   0.0000000   0.0000000   0.0000000   0.0000000   0.0000000   0.4037610   0.0000000   0.0000000
 AtZNuc=   6.0000000   6.0000000   6.0000000   6.0000000   6.0000000   6.0000000   7.0000000   6.0000000   6.0000000
 Leave Link  101 at Mon Oct 12 17:22:17 2020, MaxMem=  1073741824 cpu:               9.6 elap:               0.4
 (Enter /home/spantaleone/g16/l103.exe)

 GradGradGradGradGradGradGradGradGradGradGradGradGradGradGradGradGradGrad
 Berny optimization.
 Initialization pass.
                           ----------------------------
                           !    Initial Parameters    !
                           ! (Angstroms and Degrees)  !
 --------------------------                            --------------------------
 ! Name  Definition              Value          Derivative Info.                !
 --------------------------------------------------------------------------------
 ! R1    R(1,2)                  1.281          estimate D2E/DX2                !
 ! R2    R(1,8)                  1.2812         estimate D2E/DX2                !
 ! R3    R(2,3)                  1.281          estimate D2E/DX2                !
 ! R4    R(3,4)                  1.2809         estimate D2E/DX2                !
 ! R5    R(4,5)                  1.2811         estimate D2E/DX2                !
 ! R6    R(5,6)                  1.2811         estimate D2E/DX2                !
 ! R7    R(6,7)                  1.2568         estimate D2E/DX2                !
 ! R8    R(8,9)                  1.305          estimate D2E/DX2                !
 ! A1    L(2,1,8,-2,-1)        180.0256         estimate D2E/DX2                !
 ! A2    L(1,2,3,-2,-1)        179.9744         estimate D2E/DX2                !
 ! A3    L(2,3,4,-2,-1)        179.9744         estimate D2E/DX2                !
 ! A4    L(3,4,5,-2,-1)        179.9744         estimate D2E/DX2                !
 ! A5    L(4,5,6,-2,-1)        179.9744         estimate D2E/DX2                !
 ! A6    L(5,6,7,-2,-1)        179.9744         estimate D2E/DX2                !
 ! A7    L(1,8,9,-2,-1)        180.0256         estimate D2E/DX2                !
 ! A8    L(2,1,8,-1,-2)        180.0            estimate D2E/DX2                !
 ! A9    L(1,2,3,-1,-2)        180.0            estimate D2E/DX2                !
 ! A10   L(2,3,4,-1,-2)        180.0            estimate D2E/DX2                !
 ! A11   L(3,4,5,-1,-2)        180.0            estimate D2E/DX2                !
 ! A12   L(4,5,6,-1,-2)        180.0            estimate D2E/DX2                !
 ! A13   L(5,6,7,-1,-2)        180.0            estimate D2E/DX2                !
 ! A14   L(1,8,9,-1,-2)        180.0            estimate D2E/DX2                !
 --------------------------------------------------------------------------------
 Trust Radius=3.00D-01 FncErr=1.00D-07 GrdErr=1.00D-06 EigMax=2.50D+02 EigMin=1.00D-04
 Number of steps in this run=    100 maximum allowed number of steps=    100.
 GradGradGradGradGradGradGradGradGradGradGradGradGradGradGradGradGradGrad

 Leave Link  103 at Mon Oct 12 17:22:17 2020, MaxMem=  1073741824 cpu:               0.3 elap:               0.0
 (Enter /home/spantaleone/g16/l202.exe)
                          Input orientation:                          
 ---------------------------------------------------------------------
 Center     Atomic      Atomic             Coordinates (Angstroms)
 Number     Number       Type             X           Y           Z
 ---------------------------------------------------------------------
      1          6           0        0.000000    0.000000    0.000000
      2          6           0        0.000000    0.000000    1.280990
      3          6           0        0.000573    0.000000    2.561970
      4          6           0        0.001718   -0.000000    3.842849
      5          6           0        0.003437   -0.000000    5.123948
      6          6           0        0.005728   -0.000000    6.405046
      7          7           0        0.008538   -0.000000    7.661873
      8          6           0        0.000573    0.000000   -1.281210
      9          6           0        0.001740    0.000000   -2.586179
 ---------------------------------------------------------------------
                    Distance matrix (angstroms):
                    1          2          3          4          5
     1  C    0.000000
     2  C    1.280990   0.000000
     3  C    2.561970   1.280980   0.000000
     4  C    3.842850   2.561860   1.280880   0.000000
     5  C    5.123949   3.842960   2.561980   1.281100   0.000000
     6  C    6.405049   5.124059   3.843080   2.562200   1.281100
     7  N    7.661878   6.380889   5.099909   3.819030   2.537930
     8  C    1.281210   2.562200   3.843180   5.124059   6.405159
     9  C    2.586180   3.867170   5.148149   6.429029   7.710128
                    6          7          8          9
     6  C    0.000000
     7  N    1.256830   0.000000
     8  C    7.686258   8.943086   0.000000
     9  C    8.991226  10.248055   1.304970   0.000000
 Symmetry turned off by external request.
 This structure is nearly, but not quite of a higher symmetry.
 Consider Symm=Loose if the higher symmetry is desired.
 Stoichiometry    C8N(2)
 Framework group  CS[SG(C8N)]
 Deg. of freedom    15
 Full point group                 CS      NOp   2
 Rotational constants (GHZ):     1596585.2738201           0.4099496           0.4099495
 Leave Link  202 at Mon Oct 12 17:22:17 2020, MaxMem=  1073741824 cpu:               0.3 elap:               0.0
 (Enter /home/spantaleone/g16/l301.exe)
 Standard basis: CC-pVTZ (5D, 7F)
 Ernie: Thresh=  0.10000D-02 Tol=  0.10000D-05 Strict=F.
 Ernie:  27 primitive shells out of 234 were deleted.
   270 basis functions,   468 primitive gaussians,   315 cartesian basis functions
    28 alpha electrons       27 beta electrons
       nuclear repulsion energy       251.6136962997 Hartrees.
 IExCor= 4336 DFT=T Ex+Corr=M062X ExCW=0 ScaHFX=  0.540000
 ScaDFX=  1.000000  1.000000  1.000000  1.000000 ScalE2=  1.000000  1.000000
 IRadAn=      5 IRanWt=     -1 IRanGd=            0 ICorTp=0 IEmpDi=  4
 NAtoms=    9 NActive=    9 NUniq=    9 SFac= 1.00D+00 NAtFMM=   60 NAOKFM=F Big=F
 Integral buffers will be    131072 words long.
 Raffenetti 2 integral format.
 Two-electron integral symmetry is turned off.
 Leave Link  301 at Mon Oct 12 17:22:17 2020, MaxMem=  1073741824 cpu:               1.4 elap:               0.1
 (Enter /home/spantaleone/g16/l302.exe)
 NPDir=0 NMtPBC=     1 NCelOv=     1 NCel=       1 NClECP=     1 NCelD=      1
         NCelK=      1 NCelE2=     1 NClLst=     1 CellRange=     0.0.
 One-electron integrals computed using PRISM.
 NBasis=   270 RedAO= T EigKep=  1.26D-05  NBF=   270
 NBsUse=   270 1.00D-06 EigRej= -1.00D+00 NBFU=   270
 Precomputing XC quadrature grid using
 IXCGrd= 4 IRadAn=           5 IRanWt=          -1 IRanGd=           0 AccXCQ= 0.00D+00.
 Generated NRdTot=       0 NPtTot=           0 NUsed=           0 NTot=          32
 NSgBfM=   312   312   312   312   312 MxSgAt=     9 MxSgA2=     9.
 Leave Link  302 at Mon Oct 12 17:22:17 2020, MaxMem=  1073741824 cpu:               7.9 elap:               0.3
 (Enter /home/spantaleone/g16/l303.exe)
 DipDrv:  MaxL=1.
 Leave Link  303 at Mon Oct 12 17:22:18 2020, MaxMem=  1073741824 cpu:               1.3 elap:               0.1
 (Enter /home/spantaleone/g16/l401.exe)
 ExpMin= 1.21D-01 ExpMax= 1.14D+04 ExpMxC= 3.89D+02 IAcc=3 IRadAn=         5 AccDes= 0.00D+00
 Harris functional with IExCor= 1009 and IRadAn=       5 diagonalized for initial guess.
 HarFok:  IExCor= 1009 AccDes= 0.00D+00 IRadAn=         5 IDoV= 1 UseB2=F ITyADJ=14
 ICtDFT=  3500011 ScaDFX=  1.000000  1.000000  1.000000  1.000000
 FoFCou: FMM=F IPFlag=           0 FMFlag=      100000 FMFlg1=           0
         NFxFlg=           0 DoJE=T BraDBF=F KetDBF=T FulRan=T
         wScrn=  0.000000 ICntrl=       500 IOpCl=  0 I1Cent=   200000004 NGrid=           0
         NMat0=    1 NMatS0=      1 NMatT0=    0 NMatD0=    1 NMtDS0=    0 NMtDT0=    0
 Symmetry not used in FoFCou.
 Harris En= -359.010762627303    
 JPrj=0 DoOrth=F DoCkMO=F.
 Initial guess <Sx>= 0.0000 <Sy>= 0.0000 <Sz>= 0.5000 <S**2>= 0.7500 S= 0.5000
 Leave Link  401 at Mon Oct 12 17:22:18 2020, MaxMem=  1073741824 cpu:              17.0 elap:               0.7
 (Enter /home/spantaleone/g16/l502.exe)
 Two-electron integral symmetry not used.
 UHF open shell SCF:
 Using DIIS extrapolation, IDIIS=  1040.
 NGot=  1073741824 LenX=  1073533830 LenY=  1073434164
 Requested convergence on RMS density matrix=1.00D-08 within  32 cycles.
 Requested convergence on MAX density matrix=1.00D-06.
 Requested convergence on             energy=1.00D-06.
 No special actions if energy rises.
 Fock matrices will be formed incrementally for  20 cycles.
 Integral accuracy reduced to 1.0D-05 until final iterations.

 Cycle   1  Pass 0  IDiag  1:
 FoFJK:  IHMeth= 1 ICntrl=       0 DoSepK=F KAlg= 0 I1Cent=           0 FoldK=F
 IRaf= 820000000 NMat=       1 IRICut=       1 DoRegI=T DoRafI=F ISym2E= 0 IDoP0=0 IntGTp=1.
 FoFCou: FMM=F IPFlag=           0 FMFlag=      100000 FMFlg1=           0
         NFxFlg=           0 DoJE=F BraDBF=F KetDBF=F FulRan=T
         wScrn=  0.000000 ICntrl=         0 IOpCl=  1 I1Cent=           0 NGrid=           0
         NMat0=    1 NMatS0=      1 NMatT0=    0 NMatD0=    1 NMtDS0=    0 NMtDT0=    0
 Symmetry not used in FoFCou.
 E= -359.068878611399    
 DIIS: error= 2.82D-02 at cycle   1 NSaved=   1.
 NSaved= 1 IEnMin= 1 EnMin= -359.068878611399     IErMin= 1 ErrMin= 2.82D-02
 ErrMax= 2.82D-02  0.00D+00 EMaxC= 1.00D-01 BMatC= 6.35D-01 BMatP= 6.35D-01
 IDIUse=3 WtCom= 7.18D-01 WtEn= 2.82D-01
 Coeff-Com:  0.100D+01
 Coeff-En:   0.100D+01
 Coeff:      0.100D+01
 Gap=     0.098 Goal=   None    Shift=    0.000
 Gap=     0.170 Goal=   None    Shift=    0.000
 GapD=    0.098 DampG=0.500 DampE=0.500 DampFc=0.2500 IDamp=-1.
 Damping current iteration by 2.50D-01
 RMSDP=1.49D-02 MaxDP=8.76D-01              OVMax= 2.57D-01

 Cycle   2  Pass 0  IDiag  1:
 RMSU=  3.64D-03    CP:  1.05D+00
 E= -359.107714201634     Delta-E=       -0.038835590235 Rises=F Damp=T
 DIIS: error= 1.97D-02 at cycle   2 NSaved=   2.
 NSaved= 2 IEnMin= 2 EnMin= -359.107714201634     IErMin= 2 ErrMin= 1.97D-02
 ErrMax= 1.97D-02  0.00D+00 EMaxC= 1.00D-01 BMatC= 2.81D-01 BMatP= 6.35D-01
 IDIUse=3 WtCom= 8.03D-01 WtEn= 1.97D-01
 Coeff-Com: -0.153D+01 0.253D+01
 Coeff-En:   0.000D+00 0.100D+01
 Coeff:     -0.123D+01 0.223D+01
 Gap=     0.135 Goal=   None    Shift=    0.000
 Gap=     0.187 Goal=   None    Shift=    0.000
 RMSDP=3.74D-03 MaxDP=2.81D-01 DE=-3.88D-02 OVMax= 2.77D-01

 Cycle   3  Pass 0  IDiag  1:
 RMSU=  3.16D-03    CP:  1.10D+00  1.51D+00
 E= -359.148525139051     Delta-E=       -0.040810937417 Rises=F Damp=F
 DIIS: error= 3.03D-02 at cycle   3 NSaved=   3.
 NSaved= 3 IEnMin= 3 EnMin= -359.148525139051     IErMin= 2 ErrMin= 1.97D-02
 ErrMax= 3.03D-02  0.00D+00 EMaxC= 1.00D-01 BMatC= 1.24D-01 BMatP= 2.81D-01
 IDIUse=3 WtCom= 6.97D-01 WtEn= 3.03D-01
 Coeff-Com: -0.102D+01 0.157D+01 0.451D+00
 Coeff-En:   0.000D+00 0.000D+00 0.100D+01
 Coeff:     -0.711D+00 0.109D+01 0.618D+00
 Gap=     0.126 Goal=   None    Shift=    0.000
 Gap=     0.184 Goal=   None    Shift=    0.000
 RMSDP=4.85D-03 MaxDP=2.70D-01 DE=-4.08D-02 OVMax= 2.43D-01

 Cycle   4  Pass 0  IDiag  1:
 RMSU=  1.78D-03    CP:  1.17D+00  2.70D+00  7.09D-01
 E= -359.168991944618     Delta-E=       -0.020466805567 Rises=F Damp=F
 DIIS: error= 1.90D-02 at cycle   4 NSaved=   4.
 NSaved= 4 IEnMin= 4 EnMin= -359.168991944618     IErMin= 4 ErrMin= 1.90D-02
 ErrMax= 1.90D-02  0.00D+00 EMaxC= 1.00D-01 BMatC= 7.64D-02 BMatP= 1.24D-01
 IDIUse=3 WtCom= 8.10D-01 WtEn= 1.90D-01
 Coeff-Com: -0.214D+00 0.333D+00 0.429D+00 0.451D+00
 Coeff-En:   0.000D+00 0.000D+00 0.398D+00 0.602D+00
 Coeff:     -0.173D+00 0.270D+00 0.423D+00 0.480D+00
 Gap=     0.109 Goal=   None    Shift=    0.000
 Gap=     0.168 Goal=   None    Shift=    0.000
 RMSDP=2.74D-03 MaxDP=1.63D-01 DE=-2.05D-02 OVMax= 1.07D-01

 Cycle   5  Pass 0  IDiag  1:
 RMSU=  2.57D-04    CP:  1.13D+00  2.00D+00  9.16D-01  6.83D-01
 E= -359.197566581878     Delta-E=       -0.028574637260 Rises=F Damp=F
 DIIS: error= 2.28D-03 at cycle   5 NSaved=   5.
 NSaved= 5 IEnMin= 5 EnMin= -359.197566581878     IErMin= 5 ErrMin= 2.28D-03
 ErrMax= 2.28D-03  0.00D+00 EMaxC= 1.00D-01 BMatC= 1.23D-03 BMatP= 7.64D-02
 IDIUse=3 WtCom= 9.77D-01 WtEn= 2.28D-02
 Coeff-Com:  0.291D-01-0.466D-01 0.868D-01 0.161D+00 0.769D+00
 Coeff-En:   0.000D+00 0.000D+00 0.000D+00 0.000D+00 0.100D+01
 Coeff:      0.284D-01-0.456D-01 0.848D-01 0.158D+00 0.775D+00
 Gap=     0.106 Goal=   None    Shift=    0.000
 Gap=     0.167 Goal=   None    Shift=    0.000
 RMSDP=6.54D-04 MaxDP=3.40D-02 DE=-2.86D-02 OVMax= 1.99D-02

 Cycle   6  Pass 0  IDiag  1:
 RMSU=  2.12D-04    CP:  1.12D+00  1.85D+00  9.10D-01  6.29D-01  1.57D+00
 E= -359.198058693433     Delta-E=       -0.000492111554 Rises=F Damp=F
 DIIS: error= 2.25D-03 at cycle   6 NSaved=   6.
 NSaved= 6 IEnMin= 6 EnMin= -359.198058693433     IErMin= 6 ErrMin= 2.25D-03
 ErrMax= 2.25D-03  0.00D+00 EMaxC= 1.00D-01 BMatC= 9.18D-04 BMatP= 1.23D-03
 IDIUse=3 WtCom= 9.77D-01 WtEn= 2.25D-02
 Coeff-Com:  0.137D-01-0.245D-01-0.438D-01-0.288D-01 0.494D+00 0.589D+00
 Coeff-En:   0.000D+00 0.000D+00 0.000D+00 0.000D+00 0.000D+00 0.100D+01
 Coeff:      0.134D-01-0.239D-01-0.428D-01-0.282D-01 0.483D+00 0.599D+00
 Gap=     0.108 Goal=   None    Shift=    0.000
 Gap=     0.170 Goal=   None    Shift=    0.000
 RMSDP=6.95D-04 MaxDP=3.08D-02 DE=-4.92D-04 OVMax= 1.44D-02

 Cycle   7  Pass 0  IDiag  1:
 RMSU=  2.37D-04    CP:  1.11D+00  1.72D+00  8.52D-01  4.70D-01  2.03D+00
                    CP:  2.24D+00
 E= -359.198441919732     Delta-E=       -0.000383226300 Rises=F Damp=F
 DIIS: error= 1.57D-03 at cycle   7 NSaved=   7.
 NSaved= 7 IEnMin= 7 EnMin= -359.198441919732     IErMin= 7 ErrMin= 1.57D-03
 ErrMax= 1.57D-03  0.00D+00 EMaxC= 1.00D-01 BMatC= 3.25D-04 BMatP= 9.18D-04
 IDIUse=3 WtCom= 9.84D-01 WtEn= 1.57D-02
 Coeff-Com: -0.731D-03-0.196D-02-0.509D-01-0.559D-01 0.147D+00 0.421D+00
 Coeff-Com:  0.542D+00
 Coeff-En:   0.000D+00 0.000D+00 0.000D+00 0.000D+00 0.000D+00 0.000D+00
 Coeff-En:   0.100D+01
 Coeff:     -0.719D-03-0.193D-02-0.501D-01-0.550D-01 0.145D+00 0.414D+00
 Coeff:      0.549D+00
 Gap=     0.109 Goal=   None    Shift=    0.000
 Gap=     0.171 Goal=   None    Shift=    0.000
 RMSDP=1.41D-03 MaxDP=6.21D-02 DE=-3.83D-04 OVMax= 8.48D-03

 Cycle   8  Pass 0  IDiag  1:
 RMSU=  3.20D-04    CP:  1.09D+00  1.42D+00  7.54D-01  2.14D-01  2.73D+00
                    CP:  3.00D+00  2.51D+00
 E= -359.198649927698     Delta-E=       -0.000208007966 Rises=F Damp=F
 DIIS: error= 6.79D-04 at cycle   8 NSaved=   8.
 NSaved= 8 IEnMin= 8 EnMin= -359.198649927698     IErMin= 8 ErrMin= 6.79D-04
 ErrMax= 6.79D-04  0.00D+00 EMaxC= 1.00D-01 BMatC= 1.19D-04 BMatP= 3.25D-04
 IDIUse=3 WtCom= 9.93D-01 WtEn= 6.79D-03
 Coeff-Com: -0.178D-02 0.183D-02-0.226D-01-0.266D-01-0.285D-01 0.121D+00
 Coeff-Com:  0.315D+00 0.641D+00
 Coeff-En:   0.000D+00 0.000D+00 0.000D+00 0.000D+00 0.000D+00 0.000D+00
 Coeff-En:   0.000D+00 0.100D+01
 Coeff:     -0.177D-02 0.182D-02-0.224D-01-0.264D-01-0.283D-01 0.121D+00
 Coeff:      0.313D+00 0.644D+00
 Gap=     0.110 Goal=   None    Shift=    0.000
 Gap=     0.171 Goal=   None    Shift=    0.000
 RMSDP=1.81D-03 MaxDP=8.42D-02 DE=-2.08D-04 OVMax= 8.70D-03

 Cycle   9  Pass 0  IDiag  1:
 RMSU=  5.18D-04    CP:  1.06D+00  1.07D+00  6.08D-01 -1.32D-01  3.00D+00
                    CP:  3.00D+00  3.00D+00  3.00D+00
 E= -359.198786188208     Delta-E=       -0.000136260510 Rises=F Damp=F
 DIIS: error= 6.52D-04 at cycle   9 NSaved=   9.
 NSaved= 9 IEnMin= 9 EnMin= -359.198786188208     IErMin= 9 ErrMin= 6.52D-04
 ErrMax= 6.52D-04  0.00D+00 EMaxC= 1.00D-01 BMatC= 1.05D-04 BMatP= 1.19D-04
 IDIUse=3 WtCom= 9.93D-01 WtEn= 6.52D-03
 Coeff-Com:  0.500D-03-0.133D-02-0.160D-01-0.175D-01-0.191D-01 0.885D-01
 Coeff-Com:  0.220D+00 0.445D+00 0.300D+00
 Coeff-En:   0.000D+00 0.000D+00 0.000D+00 0.000D+00 0.000D+00 0.000D+00
 Coeff-En:   0.000D+00 0.000D+00 0.100D+01
 Coeff:      0.497D-03-0.132D-02-0.159D-01-0.174D-01-0.190D-01 0.880D-01
 Coeff:      0.219D+00 0.442D+00 0.304D+00
 Gap=     0.110 Goal=   None    Shift=    0.000
 Gap=     0.171 Goal=   None    Shift=    0.000
 RMSDP=8.19D-04 MaxDP=3.95D-02 DE=-1.36D-04 OVMax= 2.88D-03

 Failed to achieve initial convergence to 1.0D-08 in 10 cycles.
 Switch to full accuracy anyway.
 Cycle  10  Pass 1  IDiag  1:
 E= -359.198725047404     Delta-E=        0.000061140804 Rises=F Damp=F
 DIIS: error= 6.68D-04 at cycle   1 NSaved=   1.
 NSaved= 1 IEnMin= 1 EnMin= -359.198725047404     IErMin= 1 ErrMin= 6.68D-04
 ErrMax= 6.68D-04  0.00D+00 EMaxC= 1.00D-01 BMatC= 9.17D-05 BMatP= 9.17D-05
 IDIUse=3 WtCom= 9.93D-01 WtEn= 6.68D-03
 Coeff-Com:  0.100D+01
 Coeff-En:   0.100D+01
 Coeff:      0.100D+01
 Gap=     0.110 Goal=   None    Shift=    0.000
 Gap=     0.172 Goal=   None    Shift=    0.000
 RMSDP=8.19D-04 MaxDP=3.95D-02 DE= 6.11D-05 OVMax= 1.00D-02

 Cycle  11  Pass 1  IDiag  1:
 RMSU=  2.14D-03    CP:  1.01D+00
 E= -359.198826735120     Delta-E=       -0.000101687717 Rises=F Damp=F
 DIIS: error= 4.98D-04 at cycle   2 NSaved=   2.
 NSaved= 2 IEnMin= 2 EnMin= -359.198826735120     IErMin= 2 ErrMin= 4.98D-04
 ErrMax= 4.98D-04  0.00D+00 EMaxC= 1.00D-01 BMatC= 2.94D-05 BMatP= 9.17D-05
 IDIUse=3 WtCom= 9.95D-01 WtEn= 4.98D-03
 Coeff-Com: -0.604D-01 0.106D+01
 Coeff-En:   0.000D+00 0.100D+01
 Coeff:     -0.601D-01 0.106D+01
 Gap=     0.110 Goal=   None    Shift=    0.000
 Gap=     0.172 Goal=   None    Shift=    0.000
 RMSDP=1.40D-04 MaxDP=7.93D-03 DE=-1.02D-04 OVMax= 9.30D-03

 Cycle  12  Pass 1  IDiag  1:
 RMSU=  6.82D-05    CP:  1.01D+00  1.05D+00
 E= -359.198908921645     Delta-E=       -0.000082186524 Rises=F Damp=F
 DIIS: error= 6.10D-04 at cycle   3 NSaved=   3.
 NSaved= 3 IEnMin= 3 EnMin= -359.198908921645     IErMin= 2 ErrMin= 4.98D-04
 ErrMax= 6.10D-04  0.00D+00 EMaxC= 1.00D-01 BMatC= 2.65D-05 BMatP= 2.94D-05
 IDIUse=3 WtCom= 9.94D-01 WtEn= 6.10D-03
 Coeff-Com: -0.871D-01 0.367D+00 0.720D+00
 Coeff-En:   0.000D+00 0.000D+00 0.100D+01
 Coeff:     -0.866D-01 0.365D+00 0.722D+00
 Gap=     0.110 Goal=   None    Shift=    0.000
 Gap=     0.172 Goal=   None    Shift=    0.000
 RMSDP=4.87D-05 MaxDP=3.26D-03 DE=-8.22D-05 OVMax= 8.29D-03

 Cycle  13  Pass 1  IDiag  1:
 RMSU=  1.55D-05    CP:  1.02D+00  1.07D+00  1.53D+00
 E= -359.198963872989     Delta-E=       -0.000054951345 Rises=F Damp=F
 DIIS: error= 4.32D-04 at cycle   4 NSaved=   4.
 NSaved= 4 IEnMin= 4 EnMin= -359.198963872989     IErMin= 4 ErrMin= 4.32D-04
 ErrMax= 4.32D-04  0.00D+00 EMaxC= 1.00D-01 BMatC= 2.39D-05 BMatP= 2.65D-05
 IDIUse=3 WtCom= 9.96D-01 WtEn= 4.32D-03
 Coeff-Com:  0.948D-02-0.183D+01 0.929D+00 0.189D+01
 Coeff-En:   0.000D+00 0.000D+00 0.000D+00 0.100D+01
 Coeff:      0.944D-02-0.183D+01 0.925D+00 0.189D+01
 Gap=     0.111 Goal=   None    Shift=    0.000
 Gap=     0.173 Goal=   None    Shift=    0.000
 RMSDP=1.41D-04 MaxDP=7.89D-03 DE=-5.50D-05 OVMax= 3.19D-02

 Cycle  14  Pass 1  IDiag  1:
 RMSU=  7.80D-05    CP:  1.02D+00  1.08D+00  2.95D+00  3.00D+00
 E= -359.199181230425     Delta-E=       -0.000217357436 Rises=F Damp=F
 DIIS: error= 4.72D-04 at cycle   5 NSaved=   5.
 NSaved= 5 IEnMin= 5 EnMin= -359.199181230425     IErMin= 4 ErrMin= 4.32D-04
 ErrMax= 4.72D-04  0.00D+00 EMaxC= 1.00D-01 BMatC= 1.88D-05 BMatP= 2.39D-05
 IDIUse=3 WtCom= 9.95D-01 WtEn= 4.72D-03
 Coeff-Com:  0.444D-01-0.166D+01 0.431D+00 0.155D+01 0.635D+00
 Coeff-En:   0.000D+00 0.000D+00 0.000D+00 0.000D+00 0.100D+01
 Coeff:      0.442D-01-0.165D+01 0.429D+00 0.154D+01 0.637D+00
 Gap=     0.112 Goal=   None    Shift=    0.000
 Gap=     0.174 Goal=   None    Shift=    0.000
 RMSDP=8.66D-05 MaxDP=4.33D-03 DE=-2.17D-04 OVMax= 1.96D-02

 Cycle  15  Pass 1  IDiag  1:
 RMSU=  4.24D-05    CP:  1.02D+00  1.07D+00  3.00D+00  3.00D+00  1.93D+00
 E= -359.199292983792     Delta-E=       -0.000111753366 Rises=F Damp=F
 DIIS: error= 3.89D-04 at cycle   6 NSaved=   6.
 NSaved= 6 IEnMin= 6 EnMin= -359.199292983792     IErMin= 6 ErrMin= 3.89D-04
 ErrMax= 3.89D-04  0.00D+00 EMaxC= 1.00D-01 BMatC= 1.20D-05 BMatP= 1.88D-05
 IDIUse=3 WtCom= 9.96D-01 WtEn= 3.89D-03
 Coeff-Com:  0.560D-02 0.389D+00-0.278D+00-0.532D+00 0.192D+00 0.122D+01
 Coeff-En:   0.000D+00 0.000D+00 0.000D+00 0.000D+00 0.000D+00 0.100D+01
 Coeff:      0.558D-02 0.388D+00-0.277D+00-0.530D+00 0.191D+00 0.122D+01
 Gap=     0.112 Goal=   None    Shift=    0.000
 Gap=     0.175 Goal=   None    Shift=    0.000
 RMSDP=9.88D-05 MaxDP=5.61D-03 DE=-1.12D-04 OVMax= 2.01D-02

 Cycle  16  Pass 1  IDiag  1:
 RMSU=  2.07D-05    CP:  1.02D+00  1.07D+00  3.00D+00  3.00D+00  2.98D+00
                    CP:  2.12D+00
 E= -359.199392898940     Delta-E=       -0.000099915148 Rises=F Damp=F
 DIIS: error= 3.83D-04 at cycle   7 NSaved=   7.
 NSaved= 7 IEnMin= 7 EnMin= -359.199392898940     IErMin= 7 ErrMin= 3.83D-04
 ErrMax= 3.83D-04  0.00D+00 EMaxC= 1.00D-01 BMatC= 1.13D-05 BMatP= 1.20D-05
 IDIUse=3 WtCom= 9.96D-01 WtEn= 3.83D-03
 Coeff-Com: -0.952D-01 0.419D+01-0.133D+01-0.422D+01-0.107D+01 0.191D+01
 Coeff-Com:  0.162D+01
 Coeff-En:   0.000D+00 0.000D+00 0.000D+00 0.000D+00 0.000D+00 0.000D+00
 Coeff-En:   0.100D+01
 Coeff:     -0.949D-01 0.418D+01-0.133D+01-0.421D+01-0.107D+01 0.190D+01
 Coeff:      0.162D+01
 Gap=     0.113 Goal=   None    Shift=    0.000
 Gap=     0.176 Goal=   None    Shift=    0.000
 RMSDP=2.95D-04 MaxDP=1.94D-02 DE=-9.99D-05 OVMax= 5.18D-02

 Cycle  17  Pass 1  IDiag  1:
 RMSU=  2.63D-04    CP:  1.01D+00  1.03D+00  3.00D+00  3.00D+00  3.00D+00
                    CP:  3.00D+00  3.00D+00
 E= -359.199594927053     Delta-E=       -0.000202028113 Rises=F Damp=F
 DIIS: error= 2.90D-04 at cycle   8 NSaved=   8.
 NSaved= 8 IEnMin= 8 EnMin= -359.199594927053     IErMin= 8 ErrMin= 2.90D-04
 ErrMax= 2.90D-04  0.00D+00 EMaxC= 1.00D-01 BMatC= 4.39D-06 BMatP= 1.13D-05
 IDIUse=3 WtCom= 9.97D-01 WtEn= 2.90D-03
 Coeff-Com:  0.203D-02-0.356D+00-0.644D-01 0.601D+00 0.285D+00-0.904D+00
 Coeff-Com: -0.587D-01 0.150D+01
 Coeff-En:   0.000D+00 0.000D+00 0.000D+00 0.000D+00 0.000D+00 0.000D+00
 Coeff-En:   0.000D+00 0.100D+01
 Coeff:      0.202D-02-0.355D+00-0.642D-01 0.599D+00 0.284D+00-0.901D+00
 Coeff:     -0.586D-01 0.149D+01
 Gap=     0.114 Goal=   None    Shift=    0.000
 Gap=     0.177 Goal=   None    Shift=    0.000
 RMSDP=1.64D-04 MaxDP=1.16D-02 DE=-2.02D-04 OVMax= 2.76D-02

 Cycle  18  Pass 1  IDiag  1:
 RMSU=  9.50D-05    CP:  1.01D+00  1.05D+00  3.00D+00  3.00D+00  3.00D+00
                    CP:  3.00D+00  3.00D+00  1.49D+00
 E= -359.199650160120     Delta-E=       -0.000055233066 Rises=F Damp=F
 DIIS: error= 1.28D-04 at cycle   9 NSaved=   9.
 NSaved= 9 IEnMin= 9 EnMin= -359.199650160120     IErMin= 9 ErrMin= 1.28D-04
 ErrMax= 1.28D-04  0.00D+00 EMaxC= 1.00D-01 BMatC= 3.32D-06 BMatP= 4.39D-06
 IDIUse=3 WtCom= 9.99D-01 WtEn= 1.28D-03
 Coeff-Com:  0.670D-01-0.310D+01 0.755D+00 0.335D+01 0.110D+01-0.184D+01
 Coeff-Com: -0.127D+01 0.111D+01 0.830D+00
 Coeff-En:   0.000D+00 0.000D+00 0.000D+00 0.000D+00 0.000D+00 0.000D+00
 Coeff-En:   0.000D+00 0.000D+00 0.100D+01
 Coeff:      0.669D-01-0.309D+01 0.754D+00 0.335D+01 0.109D+01-0.184D+01
 Coeff:     -0.127D+01 0.111D+01 0.831D+00
 Gap=     0.114 Goal=   None    Shift=    0.000
 Gap=     0.178 Goal=   None    Shift=    0.000
 RMSDP=8.25D-05 MaxDP=6.90D-03 DE=-5.52D-05 OVMax= 7.94D-03

 Cycle  19  Pass 1  IDiag  1:
 RMSU=  9.17D-06    CP:  1.01D+00  1.07D+00  3.00D+00  3.00D+00  3.00D+00
                    CP:  3.00D+00  3.00D+00  1.61D+00  1.63D+00
 E= -359.199660309662     Delta-E=       -0.000010149543 Rises=F Damp=F
 DIIS: error= 6.65D-05 at cycle  10 NSaved=  10.
 NSaved=10 IEnMin=10 EnMin= -359.199660309662     IErMin=10 ErrMin= 6.65D-05
 ErrMax= 6.65D-05  0.00D+00 EMaxC= 1.00D-01 BMatC= 8.60D-07 BMatP= 3.32D-06
 IDIUse=1 WtCom= 1.00D+00 WtEn= 0.00D+00
 Coeff-Com:  0.306D-01-0.135D+01 0.436D+00 0.130D+01 0.415D+00-0.437D+00
 Coeff-Com: -0.696D+00 0.101D-01 0.369D+00 0.922D+00
 Coeff:      0.306D-01-0.135D+01 0.436D+00 0.130D+01 0.415D+00-0.437D+00
 Coeff:     -0.696D+00 0.101D-01 0.369D+00 0.922D+00
 Gap=     0.114 Goal=   None    Shift=    0.000
 Gap=     0.178 Goal=   None    Shift=    0.000
 RMSDP=3.40D-05 MaxDP=2.13D-03 DE=-1.01D-05 OVMax= 5.32D-03

 Cycle  20  Pass 1  IDiag  1:
 RMSU=  7.68D-06    CP:  1.01D+00  1.07D+00  3.00D+00  3.00D+00  3.00D+00
                    CP:  3.00D+00  3.00D+00  1.73D+00  1.73D+00  1.33D+00
 E= -359.199663953694     Delta-E=       -0.000003644031 Rises=F Damp=F
 DIIS: error= 4.15D-05 at cycle  11 NSaved=  11.
 NSaved=11 IEnMin=11 EnMin= -359.199663953694     IErMin=11 ErrMin= 4.15D-05
 ErrMax= 4.15D-05  0.00D+00 EMaxC= 1.00D-01 BMatC= 4.10D-07 BMatP= 8.60D-07
 IDIUse=1 WtCom= 1.00D+00 WtEn= 0.00D+00
 Coeff-Com:  0.542D-02-0.206D+00 0.145D+00 0.778D-01 0.169D-01 0.169D+00
 Coeff-Com: -0.196D+00-0.272D+00 0.439D-01 0.589D+00 0.627D+00
 Coeff:      0.542D-02-0.206D+00 0.145D+00 0.778D-01 0.169D-01 0.169D+00
 Coeff:     -0.196D+00-0.272D+00 0.439D-01 0.589D+00 0.627D+00
 Gap=     0.115 Goal=   None    Shift=    0.000
 Gap=     0.178 Goal=   None    Shift=    0.000
 RMSDP=2.06D-05 MaxDP=1.51D-03 DE=-3.64D-06 OVMax= 3.20D-03

 Cycle  21  Pass 1  IDiag  1:
 RMSU=  1.79D-06    CP:  1.01D+00  1.06D+00  3.00D+00  3.00D+00  3.00D+00
                    CP:  3.00D+00  3.00D+00  1.80D+00  1.76D+00  1.41D+00
                    CP:  1.51D+00
 E= -359.199665050526     Delta-E=       -0.000001096832 Rises=F Damp=F
 DIIS: error= 1.98D-05 at cycle  12 NSaved=  12.
 NSaved=12 IEnMin=12 EnMin= -359.199665050526     IErMin=12 ErrMin= 1.98D-05
 ErrMax= 1.98D-05  0.00D+00 EMaxC= 1.00D-01 BMatC= 7.94D-08 BMatP= 4.10D-07
 IDIUse=1 WtCom= 1.00D+00 WtEn= 0.00D+00
 Coeff-Com: -0.222D-02 0.105D+00-0.224D-01-0.131D+00-0.376D-01 0.936D-01
 Coeff-Com:  0.503D-01-0.662D-01-0.718D-01-0.150D+00 0.160D+00 0.107D+01
 Coeff:     -0.222D-02 0.105D+00-0.224D-01-0.131D+00-0.376D-01 0.936D-01
 Coeff:      0.503D-01-0.662D-01-0.718D-01-0.150D+00 0.160D+00 0.107D+01
 Gap=     0.115 Goal=   None    Shift=    0.000
 Gap=     0.178 Goal=   None    Shift=    0.000
 RMSDP=1.28D-05 MaxDP=1.06D-03 DE=-1.10D-06 OVMax= 1.49D-03

 Cycle  22  Pass 1  IDiag  1:
 RMSU=  9.51D-07    CP:  1.01D+00  1.06D+00  3.00D+00  3.00D+00  3.00D+00
                    CP:  3.00D+00  3.00D+00  1.83D+00  1.74D+00  1.48D+00
                    CP:  2.01D+00  1.59D+00
 E= -359.199665343644     Delta-E=       -0.000000293118 Rises=F Damp=F
 DIIS: error= 1.38D-05 at cycle  13 NSaved=  13.
 NSaved=13 IEnMin=13 EnMin= -359.199665343644     IErMin=13 ErrMin= 1.38D-05
 ErrMax= 1.38D-05  0.00D+00 EMaxC= 1.00D-01 BMatC= 3.44D-08 BMatP= 7.94D-08
 IDIUse=1 WtCom= 1.00D+00 WtEn= 0.00D+00
 Coeff-Com:  0.695D-03-0.325D-01-0.620D-02 0.491D-01 0.225D-01-0.459D-01
 Coeff-Com:  0.107D-01 0.449D-01-0.246D-01-0.206D+00-0.106D+00 0.524D+00
 Coeff-Com:  0.769D+00
 Coeff:      0.695D-03-0.325D-01-0.620D-02 0.491D-01 0.225D-01-0.459D-01
 Coeff:      0.107D-01 0.449D-01-0.246D-01-0.206D+00-0.106D+00 0.524D+00
 Coeff:      0.769D+00
 Gap=     0.115 Goal=   None    Shift=    0.000
 Gap=     0.178 Goal=   None    Shift=    0.000
 RMSDP=2.44D-06 MaxDP=1.47D-04 DE=-2.93D-07 OVMax= 3.67D-04

 Cycle  23  Pass 1  IDiag  1:
 RMSU=  5.67D-07    CP:  1.01D+00  1.06D+00  3.00D+00  3.00D+00  3.00D+00
                    CP:  3.00D+00  3.00D+00  1.84D+00  1.75D+00  1.53D+00
                    CP:  2.14D+00  1.91D+00  1.44D+00
 E= -359.199665399906     Delta-E=       -0.000000056262 Rises=F Damp=F
 DIIS: error= 8.20D-06 at cycle  14 NSaved=  14.
 NSaved=14 IEnMin=14 EnMin= -359.199665399906     IErMin=14 ErrMin= 8.20D-06
 ErrMax= 8.20D-06  0.00D+00 EMaxC= 1.00D-01 BMatC= 2.01D-08 BMatP= 3.44D-08
 IDIUse=1 WtCom= 1.00D+00 WtEn= 0.00D+00
 Coeff-Com:  0.125D-02-0.624D-01 0.108D-01 0.767D-01 0.272D-01-0.597D-01
 Coeff-Com: -0.196D-01 0.529D-01 0.158D-01-0.704D-01-0.145D+00-0.115D+00
 Coeff-Com:  0.561D+00 0.727D+00
 Coeff:      0.125D-02-0.624D-01 0.108D-01 0.767D-01 0.272D-01-0.597D-01
 Coeff:     -0.196D-01 0.529D-01 0.158D-01-0.704D-01-0.145D+00-0.115D+00
 Coeff:      0.561D+00 0.727D+00
 Gap=     0.115 Goal=   None    Shift=    0.000
 Gap=     0.178 Goal=   None    Shift=    0.000
 RMSDP=3.47D-06 MaxDP=2.59D-04 DE=-5.63D-08 OVMax= 5.65D-04

 Cycle  24  Pass 1  IDiag  1:
 RMSU=  3.97D-07    CP:  1.01D+00  1.06D+00  3.00D+00  3.00D+00  3.00D+00
                    CP:  3.00D+00  3.00D+00  1.85D+00  1.75D+00  1.56D+00
                    CP:  2.25D+00  2.05D+00  1.80D+00  1.43D+00
 E= -359.199665434894     Delta-E=       -0.000000034988 Rises=F Damp=F
 DIIS: error= 4.09D-06 at cycle  15 NSaved=  15.
 NSaved=15 IEnMin=15 EnMin= -359.199665434894     IErMin=15 ErrMin= 4.09D-06
 ErrMax= 4.09D-06  0.00D+00 EMaxC= 1.00D-01 BMatC= 4.15D-09 BMatP= 2.01D-08
 IDIUse=1 WtCom= 1.00D+00 WtEn= 0.00D+00
 Coeff-Com:  0.103D-02-0.490D-01 0.185D-01 0.475D-01 0.149D-01-0.229D-01
 Coeff-Com: -0.298D-01 0.132D-01 0.250D-01 0.421D-01-0.488D-01-0.271D+00
 Coeff-Com:  0.805D-01 0.386D+00 0.793D+00
 Coeff:      0.103D-02-0.490D-01 0.185D-01 0.475D-01 0.149D-01-0.229D-01
 Coeff:     -0.298D-01 0.132D-01 0.250D-01 0.421D-01-0.488D-01-0.271D+00
 Coeff:      0.805D-01 0.386D+00 0.793D+00
 Gap=     0.115 Goal=   None    Shift=    0.000
 Gap=     0.178 Goal=   None    Shift=    0.000
 RMSDP=1.88D-06 MaxDP=1.45D-04 DE=-3.50D-08 OVMax= 3.04D-04

 Cycle  25  Pass 1  IDiag  1:
 RMSU=  1.94D-07    CP:  1.01D+00  1.06D+00  3.00D+00  3.00D+00  3.00D+00
                    CP:  3.00D+00  3.00D+00  1.85D+00  1.77D+00  1.58D+00
                    CP:  2.26D+00  2.15D+00  2.01D+00  1.89D+00  1.31D+00
 E= -359.199665441336     Delta-E=       -0.000000006442 Rises=F Damp=F
 DIIS: error= 2.03D-06 at cycle  16 NSaved=  16.
 NSaved=16 IEnMin=16 EnMin= -359.199665441336     IErMin=16 ErrMin= 2.03D-06
 ErrMax= 2.03D-06  0.00D+00 EMaxC= 1.00D-01 BMatC= 6.76D-10 BMatP= 4.15D-09
 IDIUse=1 WtCom= 1.00D+00 WtEn= 0.00D+00
 Coeff-Com:  0.193D-03-0.733D-02 0.570D-02 0.215D-02 0.193D-02 0.492D-02
 Coeff-Com: -0.981D-02-0.538D-02 0.562D-02 0.342D-01 0.139D-01-0.892D-01
 Coeff-Com: -0.863D-01-0.150D-01 0.273D+00 0.872D+00
 Coeff:      0.193D-03-0.733D-02 0.570D-02 0.215D-02 0.193D-02 0.492D-02
 Coeff:     -0.981D-02-0.538D-02 0.562D-02 0.342D-01 0.139D-01-0.892D-01
 Coeff:     -0.863D-01-0.150D-01 0.273D+00 0.872D+00
 Gap=     0.115 Goal=   None    Shift=    0.000
 Gap=     0.178 Goal=   None    Shift=    0.000
 RMSDP=5.39D-07 MaxDP=3.16D-05 DE=-6.44D-09 OVMax= 4.34D-05

 Cycle  26  Pass 1  IDiag  1:
 RMSU=  1.02D-07    CP:  1.01D+00  1.06D+00  3.00D+00  3.00D+00  3.00D+00
                    CP:  3.00D+00  3.00D+00  1.85D+00  1.77D+00  1.59D+00
                    CP:  2.25D+00  2.19D+00  2.09D+00  2.05D+00  1.43D+00
                    CP:  1.55D+00
 E= -359.199665442325     Delta-E=       -0.000000000989 Rises=F Damp=F
 DIIS: error= 9.51D-07 at cycle  17 NSaved=  17.
 NSaved=17 IEnMin=17 EnMin= -359.199665442325     IErMin=17 ErrMin= 9.51D-07
 ErrMax= 9.51D-07  0.00D+00 EMaxC= 1.00D-01 BMatC= 1.48D-10 BMatP= 6.76D-10
 IDIUse=1 WtCom= 1.00D+00 WtEn= 0.00D+00
 Coeff-Com: -0.155D-03 0.775D-02-0.247D-02-0.891D-02-0.969D-03 0.411D-02
 Coeff-Com:  0.335D-02-0.143D-02-0.396D-02-0.787D-03 0.122D-01 0.254D-01
 Coeff-Com: -0.232D-01-0.693D-01-0.119D+00 0.198D+00 0.980D+00
 Coeff:     -0.155D-03 0.775D-02-0.247D-02-0.891D-02-0.969D-03 0.411D-02
 Coeff:      0.335D-02-0.143D-02-0.396D-02-0.787D-03 0.122D-01 0.254D-01
 Coeff:     -0.232D-01-0.693D-01-0.119D+00 0.198D+00 0.980D+00
 Gap=     0.115 Goal=   None    Shift=    0.000
 Gap=     0.178 Goal=   None    Shift=    0.000
 RMSDP=2.02D-07 MaxDP=1.14D-05 DE=-9.89D-10 OVMax= 3.21D-05

 Cycle  27  Pass 1  IDiag  1:
 RMSU=  4.32D-08    CP:  1.01D+00  1.06D+00  3.00D+00  3.00D+00  3.00D+00
                    CP:  3.00D+00  3.00D+00  1.85D+00  1.77D+00  1.59D+00
                    CP:  2.24D+00  2.19D+00  2.11D+00  2.11D+00  1.47D+00
                    CP:  1.82D+00  1.36D+00
 E= -359.199665442584     Delta-E=       -0.000000000260 Rises=F Damp=F
 DIIS: error= 3.94D-07 at cycle  18 NSaved=  18.
 NSaved=18 IEnMin=18 EnMin= -359.199665442584     IErMin=18 ErrMin= 3.94D-07
 ErrMax= 3.94D-07  0.00D+00 EMaxC= 1.00D-01 BMatC= 4.43D-11 BMatP= 1.48D-10
 IDIUse=1 WtCom= 1.00D+00 WtEn= 0.00D+00
 Coeff-Com:  0.244D-04-0.109D-02-0.102D-02 0.245D-02 0.118D-02-0.227D-02
 Coeff-Com:  0.138D-02 0.127D-02-0.189D-02-0.987D-02-0.167D-02 0.309D-01
 Coeff-Com:  0.269D-01-0.134D-01-0.129D+00-0.195D+00 0.333D+00 0.958D+00
 Coeff:      0.244D-04-0.109D-02-0.102D-02 0.245D-02 0.118D-02-0.227D-02
 Coeff:      0.138D-02 0.127D-02-0.189D-02-0.987D-02-0.167D-02 0.309D-01
 Coeff:      0.269D-01-0.134D-01-0.129D+00-0.195D+00 0.333D+00 0.958D+00
 Gap=     0.115 Goal=   None    Shift=    0.000
 Gap=     0.178 Goal=   None    Shift=    0.000
 RMSDP=1.88D-07 MaxDP=1.44D-05 DE=-2.60D-10 OVMax= 2.51D-05

 Cycle  28  Pass 1  IDiag  1:
 RMSU=  2.40D-08    CP:  1.01D+00  1.06D+00  3.00D+00  3.00D+00  3.00D+00
                    CP:  3.00D+00  3.00D+00  1.85D+00  1.77D+00  1.59D+00
                    CP:  2.24D+00  2.19D+00  2.12D+00  2.14D+00  1.49D+00
                    CP:  1.94D+00  1.58D+00  1.42D+00
 E= -359.199665442624     Delta-E=       -0.000000000039 Rises=F Damp=F
 DIIS: error= 2.63D-07 at cycle  19 NSaved=  19.
 NSaved=19 IEnMin=19 EnMin= -359.199665442624     IErMin=19 ErrMin= 2.63D-07
 ErrMax= 2.63D-07  0.00D+00 EMaxC= 1.00D-01 BMatC= 9.89D-12 BMatP= 4.43D-11
 IDIUse=1 WtCom= 1.00D+00 WtEn= 0.00D+00
 Coeff-Com:  0.286D-04-0.170D-02 0.955D-03 0.168D-02-0.342D-03-0.101D-02
 Coeff-Com: -0.950D-03 0.106D-02 0.168D-02 0.679D-03-0.323D-02-0.119D-01
 Coeff-Com:  0.161D-02 0.129D-01 0.469D-01-0.136D-01-0.252D+00 0.485D-01
 Coeff-Com:  0.117D+01
 Coeff:      0.286D-04-0.170D-02 0.955D-03 0.168D-02-0.342D-03-0.101D-02
 Coeff:     -0.950D-03 0.106D-02 0.168D-02 0.679D-03-0.323D-02-0.119D-01
 Coeff:      0.161D-02 0.129D-01 0.469D-01-0.136D-01-0.252D+00 0.485D-01
 Coeff:      0.117D+01
 Gap=     0.115 Goal=   None    Shift=    0.000
 Gap=     0.178 Goal=   None    Shift=    0.000
 RMSDP=2.67D-07 MaxDP=2.01D-05 DE=-3.91D-11 OVMax= 4.29D-05

 Cycle  29  Pass 1  IDiag  1:
 RMSU=  1.49D-08    CP:  1.01D+00  1.06D+00  3.00D+00  3.00D+00  3.00D+00
                    CP:  3.00D+00  3.00D+00  1.85D+00  1.77D+00  1.59D+00
                    CP:  2.24D+00  2.20D+00  2.12D+00  2.14D+00  1.51D+00
                    CP:  1.96D+00  1.59D+00  1.63D+00  1.24D+00
 E= -359.199665442642     Delta-E=       -0.000000000018 Rises=F Damp=F
 DIIS: error= 1.25D-07 at cycle  20 NSaved=  20.
 NSaved=20 IEnMin=20 EnMin= -359.199665442642     IErMin=20 ErrMin= 1.25D-07
 ErrMax= 1.25D-07  0.00D+00 EMaxC= 1.00D-01 BMatC= 3.37D-12 BMatP= 9.89D-12
 IDIUse=1 WtCom= 1.00D+00 WtEn= 0.00D+00
 Coeff-Com: -0.501D-05 0.253D-03 0.270D-04-0.343D-03-0.475D-04 0.393D-03
 Coeff-Com: -0.815D-05-0.431D-03-0.204D-03 0.463D-03-0.167D-03-0.378D-03
 Coeff-Com:  0.131D-03 0.461D-02 0.636D-02-0.777D-03-0.556D-01-0.832D-01
 Coeff-Com:  0.236D+00 0.893D+00
 Coeff:     -0.501D-05 0.253D-03 0.270D-04-0.343D-03-0.475D-04 0.393D-03
 Coeff:     -0.815D-05-0.431D-03-0.204D-03 0.463D-03-0.167D-03-0.378D-03
 Coeff:      0.131D-03 0.461D-02 0.636D-02-0.777D-03-0.556D-01-0.832D-01
 Coeff:      0.236D+00 0.893D+00
 Gap=     0.115 Goal=   None    Shift=    0.000
 Gap=     0.178 Goal=   None    Shift=    0.000
 RMSDP=1.38D-07 MaxDP=8.58D-06 DE=-1.82D-11 OVMax= 2.46D-05

 Cycle  30  Pass 1  IDiag  1:
 Restarting incremental Fock formation.
 E= -359.199665442649     Delta-E=       -0.000000000007 Rises=F Damp=F
 DIIS: error= 5.59D-08 at cycle  21 NSaved=  20.
 NSaved=20 IEnMin=20 EnMin= -359.199665442649     IErMin=20 ErrMin= 5.59D-08
 ErrMax= 5.59D-08  0.00D+00 EMaxC= 1.00D-01 BMatC= 9.96D-13 BMatP= 3.37D-12
 IDIUse=1 WtCom= 1.00D+00 WtEn= 0.00D+00
 Coeff-Com:  0.105D-03-0.295D-05-0.191D-03 0.977D-05 0.777D-04 0.119D-03
 Coeff-Com: -0.203D-03-0.466D-04 0.552D-03 0.434D-03-0.140D-03-0.250D-02
 Coeff-Com: -0.883D-03 0.316D-02 0.115D-01 0.452D-02-0.268D-01-0.183D+00
 Coeff-Com:  0.314D+00 0.879D+00
 Coeff:      0.105D-03-0.295D-05-0.191D-03 0.977D-05 0.777D-04 0.119D-03
 Coeff:     -0.203D-03-0.466D-04 0.552D-03 0.434D-03-0.140D-03-0.250D-02
 Coeff:     -0.883D-03 0.316D-02 0.115D-01 0.452D-02-0.268D-01-0.183D+00
 Coeff:      0.314D+00 0.879D+00
 Gap=     0.115 Goal=   None    Shift=    0.000
 Gap=     0.178 Goal=   None    Shift=    0.000
 RMSDP=3.68D-08 MaxDP=2.51D-06 DE=-6.93D-12 OVMax= 6.53D-06

 Cycle  31  Pass 1  IDiag  1:
 RMSU=  3.64D-08    CP:  1.00D+00
 E= -359.199665442650     Delta-E=       -0.000000000001 Rises=F Damp=F
 DIIS: error= 1.78D-08 at cycle  22 NSaved=  20.
 NSaved=20 IEnMin=20 EnMin= -359.199665442650     IErMin=20 ErrMin= 1.78D-08
 ErrMax= 1.78D-08  0.00D+00 EMaxC= 1.00D-01 BMatC= 5.26D-14 BMatP= 9.96D-13
 IDIUse=1 WtCom= 1.00D+00 WtEn= 0.00D+00
 Coeff-Com: -0.426D-04 0.515D-04-0.123D-06-0.560D-04 0.638D-04 0.137D-04
 Coeff-Com: -0.167D-04-0.131D-03 0.374D-04 0.628D-03 0.823D-04-0.709D-03
 Coeff-Com: -0.231D-02-0.221D-03 0.148D-01 0.185D-01-0.852D-01-0.119D+00
 Coeff-Com: -0.710D-01 0.124D+01
 Coeff:     -0.426D-04 0.515D-04-0.123D-06-0.560D-04 0.638D-04 0.137D-04
 Coeff:     -0.167D-04-0.131D-03 0.374D-04 0.628D-03 0.823D-04-0.709D-03
 Coeff:     -0.231D-02-0.221D-03 0.148D-01 0.185D-01-0.852D-01-0.119D+00
 Coeff:     -0.710D-01 0.124D+01
 Gap=     0.115 Goal=   None    Shift=    0.000
 Gap=     0.178 Goal=   None    Shift=    0.000
 RMSDP=3.73D-09 MaxDP=2.21D-07 DE=-1.36D-12 OVMax= 5.28D-07

 SCF Done:  E(UM062X) =  -359.199665443     A.U. after   31 cycles
            NFock= 31  Conv=0.37D-08     -V/T= 2.0065
 <Sx>= 0.0000 <Sy>= 0.0000 <Sz>= 0.5000 <S**2>= 1.0205 S= 0.6272
 <L.S>= 0.000000000000E+00
 KE= 3.568706952874D+02 PE=-1.335475206682D+03 EE= 3.677911496518D+02
 Annihilation of the first spin contaminant:
 S**2 before annihilation     1.0205,   after     0.8083
 Leave Link  502 at Mon Oct 12 17:23:17 2020, MaxMem=  1073741824 cpu:            1416.6 elap:              59.1
 (Enter /home/spantaleone/g16/l508.exe)
 QCSCF skips out because SCF is already converged.
 Leave Link  508 at Mon Oct 12 17:23:18 2020, MaxMem=  1073741824 cpu:               0.0 elap:               0.0
 (Enter /home/spantaleone/g16/l601.exe)
 Copying SCF densities to generalized density rwf, IOpCl= 1 IROHF=0.

 **********************************************************************

            Population analysis using the SCF Density.

 **********************************************************************

 Alpha  occ. eigenvalues --  -14.83950 -10.66481 -10.65946 -10.65362 -10.64664
 Alpha  occ. eigenvalues --  -10.64527 -10.63694 -10.63127 -10.58760  -1.04617
 Alpha  occ. eigenvalues --   -0.99521  -0.96204  -0.91719  -0.86486  -0.80230
 Alpha  occ. eigenvalues --   -0.74351  -0.69950  -0.53308  -0.52762  -0.51127
 Alpha  occ. eigenvalues --   -0.49982  -0.49078  -0.44588  -0.43112  -0.39103
 Alpha  occ. eigenvalues --   -0.37227  -0.35019  -0.29382
 Alpha virt. eigenvalues --   -0.17905  -0.08171  -0.06511   0.03799   0.04990
 Alpha virt. eigenvalues --    0.10085   0.12627   0.15468   0.15804   0.16172
 Alpha virt. eigenvalues --    0.19516   0.21587   0.23050   0.24383   0.24855
 Alpha virt. eigenvalues --    0.25070   0.26405   0.26526   0.28362   0.28399
 Alpha virt. eigenvalues --    0.28636   0.32245   0.32530   0.34059   0.37187
 Alpha virt. eigenvalues --    0.37434   0.38365   0.43141   0.43474   0.43892
 Alpha virt. eigenvalues --    0.48265   0.48297   0.50391   0.50656   0.51902
 Alpha virt. eigenvalues --    0.51948   0.57423   0.57478   0.58560   0.58779
 Alpha virt. eigenvalues --    0.59509   0.61201   0.64449   0.65001   0.65107
 Alpha virt. eigenvalues --    0.66099   0.66289   0.66669   0.71164   0.74151
 Alpha virt. eigenvalues --    0.74214   0.75039   0.75280   0.77627   0.80499
 Alpha virt. eigenvalues --    0.80564   0.82927   0.84161   0.86194   0.86239
 Alpha virt. eigenvalues --    0.90364   0.97965   1.00781   1.00801   1.00950
 Alpha virt. eigenvalues --    1.01308   1.04103   1.09737   1.10740   1.11047
 Alpha virt. eigenvalues --    1.11958   1.16591   1.16592   1.16676   1.24326
 Alpha virt. eigenvalues --    1.24770   1.24995   1.28017   1.28025   1.33040
 Alpha virt. eigenvalues --    1.39245   1.39337   1.50830   1.50840   1.57009
 Alpha virt. eigenvalues --    1.57148   1.61947   1.65246   1.65454   1.75937
 Alpha virt. eigenvalues --    1.76087   1.81230   1.85920   1.93630   1.93957
 Alpha virt. eigenvalues --    1.96068   2.02213   2.09300   2.20089   2.21147
 Alpha virt. eigenvalues --    2.27282   2.29091   2.29204   2.30383   2.31000
 Alpha virt. eigenvalues --    2.31352   2.32227   2.32308   2.34868   2.35257
 Alpha virt. eigenvalues --    2.35300   2.36806   2.37811   2.38097   2.40259
 Alpha virt. eigenvalues --    2.40340   2.41305   2.41667   2.42801   2.44100
 Alpha virt. eigenvalues --    2.44195   2.47553   2.47767   2.47897   2.48021
 Alpha virt. eigenvalues --    2.55466   2.57948   2.58204   2.61028   2.61411
 Alpha virt. eigenvalues --    2.61479   2.61669   2.65389   2.67126   2.67230
 Alpha virt. eigenvalues --    2.69235   2.69429   2.70261   2.70659   2.72960
 Alpha virt. eigenvalues --    2.73180   2.74397   2.74502   2.74841   2.75052
 Alpha virt. eigenvalues --    2.77538   2.77836   2.80902   2.81898   2.82064
 Alpha virt. eigenvalues --    2.84978   2.85178   2.91334   2.92288   2.92342
 Alpha virt. eigenvalues --    2.93700   2.93823   2.94094   2.98463   2.98495
 Alpha virt. eigenvalues --    3.00338   3.01329   3.02094   3.02166   3.03214
 Alpha virt. eigenvalues --    3.05190   3.05528   3.10398   3.12397   3.12513
 Alpha virt. eigenvalues --    3.13140   3.13444   3.22430   3.22715   3.23047
 Alpha virt. eigenvalues --    3.23242   3.28265   3.28481   3.28624   3.32470
 Alpha virt. eigenvalues --    3.32702   3.42156   3.42426   3.48146   3.48238
 Alpha virt. eigenvalues --    3.50130   3.55204   3.55657   3.61173   3.61228
 Alpha virt. eigenvalues --    3.61327   3.80906   3.89544   3.89549   3.95038
 Alpha virt. eigenvalues --    3.95856   3.95978   4.07942   4.08804   4.12473
 Alpha virt. eigenvalues --    4.24315   4.25036   4.31862   4.32042   4.40650
 Alpha virt. eigenvalues --    4.45916   4.46069   4.47682   4.54319   4.55198
 Alpha virt. eigenvalues --    4.61515   4.61574   4.67510   4.83367   4.84366
 Alpha virt. eigenvalues --    4.85136   4.90559   5.08587   5.09582   5.11678
 Alpha virt. eigenvalues --    5.28428   5.36228   5.43457   5.44001   5.66730
 Alpha virt. eigenvalues --    5.72718   5.76035   5.77094   5.93224   5.96453
 Alpha virt. eigenvalues --    5.97381   5.98167   6.08305   6.08643  11.30590
 Alpha virt. eigenvalues --   12.03421  12.75803  13.66100  14.65101  15.07360
 Alpha virt. eigenvalues --   15.14643  15.17110
  Beta  occ. eigenvalues --  -14.83287 -10.66211 -10.65590 -10.65027 -10.64887
  Beta  occ. eigenvalues --  -10.64750 -10.63939 -10.62957 -10.58899  -1.02884
  Beta  occ. eigenvalues --   -0.98988  -0.95536  -0.90765  -0.85916  -0.79756
  Beta  occ. eigenvalues --   -0.73897  -0.69584  -0.52197  -0.51808  -0.49018
  Beta  occ. eigenvalues --   -0.48399  -0.47962  -0.42517  -0.42032  -0.38380
  Beta  occ. eigenvalues --   -0.34667  -0.34104
  Beta virt. eigenvalues --   -0.16272  -0.15441  -0.06254  -0.05609   0.05293
  Beta virt. eigenvalues --    0.05862   0.09877   0.12443   0.15797   0.16575
  Beta virt. eigenvalues --    0.17081   0.19721   0.21663   0.23131   0.24679
  Beta virt. eigenvalues --    0.25714   0.25816   0.26158   0.26568   0.28333
  Beta virt. eigenvalues --    0.28450   0.28536   0.32327   0.32427   0.34196
  Beta virt. eigenvalues --    0.37242   0.37311   0.38526   0.43301   0.43377
  Beta virt. eigenvalues --    0.43774   0.48520   0.48520   0.50471   0.50549
  Beta virt. eigenvalues --    0.52184   0.52191   0.57699   0.57717   0.58718
  Beta virt. eigenvalues --    0.58828   0.59678   0.61283   0.64752   0.64838
  Beta virt. eigenvalues --    0.64846   0.66294   0.66435   0.66537   0.71033
  Beta virt. eigenvalues --    0.74651   0.74667   0.75081   0.75320   0.77804
  Beta virt. eigenvalues --    0.80738   0.81187   0.82673   0.84075   0.86620
  Beta virt. eigenvalues --    0.86621   0.90774   0.98102   1.01221   1.01224
  Beta virt. eigenvalues --    1.01226   1.01514   1.05095   1.09443   1.11041
  Beta virt. eigenvalues --    1.11411   1.11667   1.17110   1.17112   1.17163
  Beta virt. eigenvalues --    1.24680   1.25046   1.25454   1.28827   1.28829
  Beta virt. eigenvalues --    1.33521   1.39420   1.39892   1.50608   1.51071
  Beta virt. eigenvalues --    1.57161   1.57630   1.62764   1.65887   1.66347
  Beta virt. eigenvalues --    1.75927   1.76342   1.80854   1.86013   1.93320
  Beta virt. eigenvalues --    1.93828   1.96326   2.02770   2.09688   2.20336
  Beta virt. eigenvalues --    2.21944   2.27248   2.29564   2.29588   2.31460
  Beta virt. eigenvalues --    2.31521   2.31986   2.32151   2.32395   2.34969
  Beta virt. eigenvalues --    2.35698   2.35698   2.37259   2.38814   2.39322
  Beta virt. eigenvalues --    2.40780   2.40781   2.41584   2.42198   2.42598
  Beta virt. eigenvalues --    2.44630   2.44661   2.48160   2.48438   2.48488
  Beta virt. eigenvalues --    2.48788   2.56005   2.57740   2.57743   2.61568
  Beta virt. eigenvalues --    2.62058   2.62070   2.62083   2.65548   2.67062
  Beta virt. eigenvalues --    2.67626   2.69669   2.69673   2.71297   2.71304
  Beta virt. eigenvalues --    2.73583   2.73586   2.74449   2.74953   2.75738
  Beta virt. eigenvalues --    2.75742   2.78382   2.78386   2.80878   2.82449
  Beta virt. eigenvalues --    2.82451   2.84849   2.85583   2.90777   2.90777
  Beta virt. eigenvalues --    2.91373   2.94246   2.94248   2.94283   2.98429
  Beta virt. eigenvalues --    2.98948   3.02551   3.02552   3.02685   3.02712
  Beta virt. eigenvalues --    3.03478   3.05537   3.06386   3.10655   3.12735
  Beta virt. eigenvalues --    3.12741   3.14659   3.14663   3.23037   3.23041
  Beta virt. eigenvalues --    3.23246   3.23863   3.28226   3.29032   3.29720
  Beta virt. eigenvalues --    3.33204   3.33211   3.42523   3.43197   3.48845
  Beta virt. eigenvalues --    3.49453   3.50771   3.55397   3.56329   3.61705
  Beta virt. eigenvalues --    3.61963   3.61968   3.81568   3.92336   3.92337
  Beta virt. eigenvalues --    3.95479   3.96723   3.96746   4.08363   4.09254
  Beta virt. eigenvalues --    4.12730   4.25735   4.26446   4.33185   4.33188
  Beta virt. eigenvalues --    4.41552   4.48360   4.52131   4.52132   4.55798
  Beta virt. eigenvalues --    4.56666   4.63692   4.63695   4.67687   4.83989
  Beta virt. eigenvalues --    4.86034   4.86879   4.91065   5.09868   5.10749
  Beta virt. eigenvalues --    5.13019   5.28331   5.36227   5.43978   5.44819
  Beta virt. eigenvalues --    5.67196   5.72637   5.76930   5.77834   5.93416
  Beta virt. eigenvalues --    5.97286   5.98013   5.98541   6.09679   6.10201
  Beta virt. eigenvalues --   11.30671  12.03701  12.75732  13.66325  14.65753
  Beta virt. eigenvalues --   15.07506  15.14789  15.17401
          Condensed to atoms (all electrons):
               1          2          3          4          5          6
     1  C    6.132277   0.362858  -0.216620  -0.045374  -0.014630  -0.000209
     2  C    0.362858   6.038723   0.384008  -0.165277   0.004926  -0.001720
     3  C   -0.216620   0.384008   5.867265   0.342504  -0.391065   0.022026
     4  C   -0.045374  -0.165277   0.342504   6.090204  -0.175301  -0.286665
     5  C   -0.014630   0.004926  -0.391065  -0.175301   6.255647   0.289233
     6  C   -0.000209  -0.001720   0.022026  -0.286665   0.289233   5.295727
     7  N    0.000000   0.000002   0.001643   0.032421  -0.055330   0.805329
     8  C   -0.537982  -0.515924   0.014493  -0.009979  -0.000566  -0.000001
     9  C   -0.143459  -0.010061   0.000474  -0.000197  -0.000006  -0.000000
               7          8          9
     1  C    0.000000  -0.537982  -0.143459
     2  C    0.000002  -0.515924  -0.010061
     3  C    0.001643   0.014493   0.000474
     4  C    0.032421  -0.009979  -0.000197
     5  C   -0.055330  -0.000566  -0.000006
     6  C    0.805329  -0.000001  -0.000000
     7  N    6.372749   0.000000   0.000000
     8  C    0.000000   6.363762   0.964372
     9  C    0.000000   0.964372   5.275801
          Atomic-Atomic Spin Densities.
               1          2          3          4          5          6
     1  C    0.454419   0.034623  -0.046193  -0.002952   0.000612  -0.000019
     2  C    0.034623  -0.455597  -0.020346   0.000756  -0.004399  -0.000942
     3  C   -0.046193  -0.020346   0.708914   0.011918  -0.022687  -0.006180
     4  C   -0.002952   0.000756   0.011918  -0.537779  -0.011579   0.009435
     5  C    0.000612  -0.004399  -0.022687  -0.011579   0.705215   0.037559
     6  C   -0.000019  -0.000942  -0.006180   0.009435   0.037559  -0.368392
     7  N   -0.000000  -0.000000   0.000015   0.001069  -0.000750  -0.029979
     8  C    0.016146   0.000084  -0.008343  -0.000973  -0.000014  -0.000000
     9  C    0.001590   0.001683  -0.000082  -0.000002   0.000000  -0.000000
               7          8          9
     1  C   -0.000000   0.016146   0.001590
     2  C   -0.000000   0.000084   0.001683
     3  C    0.000015  -0.008343  -0.000082
     4  C    0.001069  -0.000973  -0.000002
     5  C   -0.000750  -0.000014   0.000000
     6  C   -0.029979  -0.000000  -0.000000
     7  N    0.610472  -0.000000  -0.000000
     8  C   -0.000000  -0.225914  -0.004116
     9  C   -0.000000  -0.004116   0.196798
 Mulliken charges and spin densities:
               1          2
     1  C    0.463139   0.458226
     2  C   -0.097534  -0.444139
     3  C   -0.024727   0.617016
     4  C    0.217664  -0.530108
     5  C    0.087091   0.703957
     6  C   -0.123719  -0.358518
     7  N   -0.156813   0.580826
     8  C   -0.278176  -0.223131
     9  C   -0.086925   0.195871
 Sum of Mulliken charges =  -0.00000   1.00000
 Mulliken charges and spin densities with hydrogens summed into heavy atoms:
               1          2
     1  C    0.463139   0.458226
     2  C   -0.097534  -0.444139
     3  C   -0.024727   0.617016
     4  C    0.217664  -0.530108
     5  C    0.087091   0.703957
     6  C   -0.123719  -0.358518
     7  N   -0.156813   0.580826
     8  C   -0.278176  -0.223131
     9  C   -0.086925   0.195871
 Electronic spatial extent (au):  <R**2>=           3714.4518
 Charge=             -0.0000 electrons
 Dipole moment (field-independent basis, Debye):
    X=             -0.0062    Y=              0.0000    Z=              0.8996  Tot=              0.8996
 Quadrupole moment (field-independent basis, Debye-Ang):
   XX=            -48.6580   YY=            -50.2847   ZZ=            -82.2973
   XY=             -0.0001   XZ=             -0.0345   YZ=              0.0000
 Traceless Quadrupole moment (field-independent basis, Debye-Ang):
   XX=             11.7553   YY=             10.1286   ZZ=            -21.8840
   XY=             -0.0001   XZ=             -0.0345   YZ=              0.0000
 Octapole moment (field-independent basis, Debye-Ang**2):
  XXX=             -0.3651  YYY=              0.0000  ZZZ=           -603.8472  XYY=             -0.1247
  XXY=             -0.0000  XXZ=           -123.3022  XZZ=             -0.5309  YZZ=              0.0000
  YYZ=           -124.2475  XYZ=             -0.0001
 Hexadecapole moment (field-independent basis, Debye-Ang**3):
 XXXX=            -52.5086 YYYY=            -55.4809 ZZZZ=          -7888.1608 XXXY=             -0.0001
 XXXZ=             -2.0025 YYYX=             -0.0001 YYYZ=              0.0000 ZZZX=             -5.2818
 ZZZY=              0.0000 XXYY=            -17.9988 XXZZ=           -875.3541 YYZZ=           -895.0786
 XXYZ=              0.0000 YYXZ=             -0.6771 ZZXY=             -0.0017
 N-N= 2.516136962997D+02 E-N=-1.335475206447D+03  KE= 3.568706952874D+02
                          Isotropic Fermi Contact Couplings
        Atom                 a.u.       MegaHertz       Gauss      10(-4) cm-1
     1  C(13)              0.06103      68.61205      24.48249      22.88652
     2  C(13)             -0.06816     -76.62874     -27.34304     -25.56060
     3  C(13)              0.08292      93.21553      33.26162      31.09336
     4  C(13)             -0.08317     -93.50205     -33.36386     -31.18893
     5  C(13)              0.09510     106.91169      38.14875      35.66190
     6  C(13)             -0.08236     -92.59060     -33.03863     -30.88490
     7  N(14)              0.12679      40.96705      14.61806      13.66514
     8  C(13)             -0.03985     -44.80171     -15.98637     -14.94424
     9  C(13)              0.02806      31.54624      11.25648      10.52269
 --------------------------------------------------------
       Center         ----  Spin Dipole Couplings  ----
                      3XX-RR        3YY-RR        3ZZ-RR
 --------------------------------------------------------
     1   Atom       -0.088846      0.306334     -0.217488
     2   Atom       -0.117733     -0.079524      0.197257
     3   Atom       -0.016945      0.307297     -0.290352
     4   Atom       -0.111878     -0.122274      0.234152
     5   Atom        0.026629      0.318688     -0.345317
     6   Atom       -0.093872     -0.128458      0.222329
     7   Atom        0.078828      0.557032     -0.635860
     8   Atom       -0.105514     -0.006238      0.111752
     9   Atom       -0.319041      0.432820     -0.113779
 --------------------------------------------------------
                        XY            XZ            YZ
 --------------------------------------------------------
     1   Atom        0.000034      0.000016      0.000000
     2   Atom        0.000003      0.000095     -0.000000
     3   Atom        0.000028     -0.000192     -0.000000
     4   Atom       -0.000001      0.000407     -0.000000
     5   Atom        0.000025     -0.000584     -0.000000
     6   Atom       -0.000003      0.000649      0.000000
     7   Atom        0.000042     -0.001677     -0.000000
     8   Atom        0.000009     -0.000125      0.000000
     9   Atom        0.000065     -0.000303      0.000000
 --------------------------------------------------------


 ---------------------------------------------------------------------------------
              Anisotropic Spin Dipole Couplings in Principal Axis System
 ---------------------------------------------------------------------------------

       Atom             a.u.   MegaHertz   Gauss  10(-4) cm-1        Axes

              Baa    -0.2175   -29.185   -10.414    -9.735 -0.0001 -0.0000  1.0000
     1 C(13)  Bbb    -0.0888   -11.922    -4.254    -3.977  1.0000 -0.0001  0.0001
              Bcc     0.3063    41.107    14.668    13.712  0.0001  1.0000  0.0000
 
              Baa    -0.1177   -15.799    -5.637    -5.270  1.0000 -0.0001 -0.0003
     2 C(13)  Bbb    -0.0795   -10.671    -3.808    -3.560  0.0001  1.0000 -0.0000
              Bcc     0.1973    26.470     9.445     8.829  0.0003 -0.0000  1.0000
 
              Baa    -0.2904   -38.962   -13.903   -12.996  0.0007 -0.0000  1.0000
     3 C(13)  Bbb    -0.0169    -2.274    -0.811    -0.758  1.0000 -0.0001 -0.0007
              Bcc     0.3073    41.236    14.714    13.755  0.0001  1.0000 -0.0000
 
              Baa    -0.1223   -16.408    -5.855    -5.473  0.0001  1.0000 -0.0000
     4 C(13)  Bbb    -0.1119   -15.013    -5.357    -5.008  1.0000 -0.0001 -0.0012
              Bcc     0.2342    31.421    11.212    10.481  0.0012 -0.0000  1.0000
 
              Baa    -0.3453   -46.338   -16.535   -15.457  0.0016 -0.0000  1.0000
     5 C(13)  Bbb     0.0266     3.573     1.275     1.192  1.0000 -0.0001 -0.0016
              Bcc     0.3187    42.765    15.260    14.265  0.0001  1.0000 -0.0000
 
              Baa    -0.1285   -17.238    -6.151    -5.750  0.0001  1.0000 -0.0000
     6 C(13)  Bbb    -0.0939   -12.597    -4.495    -4.202  1.0000 -0.0001 -0.0021
              Bcc     0.2223    29.835    10.646     9.952  0.0021 -0.0000  1.0000
 
              Baa    -0.6359   -24.524    -8.751    -8.180  0.0023 -0.0000  1.0000
     7 N(14)  Bbb     0.0788     3.040     1.085     1.014  1.0000 -0.0001 -0.0023
              Bcc     0.5570    21.483     7.666     7.166  0.0001  1.0000 -0.0000
 
              Baa    -0.1055   -14.159    -5.052    -4.723  1.0000 -0.0001  0.0006
     8 C(13)  Bbb    -0.0062    -0.837    -0.299    -0.279  0.0001  1.0000  0.0000
              Bcc     0.1118    14.996     5.351     5.002 -0.0006 -0.0000  1.0000
 
              Baa    -0.3190   -42.812   -15.276   -14.281  1.0000 -0.0001  0.0015
     9 C(13)  Bbb    -0.1138   -15.268    -5.448    -5.093 -0.0015  0.0000  1.0000
              Bcc     0.4328    58.080    20.724    19.374  0.0001  1.0000  0.0000
 

 ---------------------------------------------------------------------------------

 No NMR shielding tensors so no spin-rotation constants.
 Leave Link  601 at Mon Oct 12 17:23:18 2020, MaxMem=  1073741824 cpu:               9.6 elap:               0.4
 (Enter /home/spantaleone/g16/l701.exe)
 ... and contract with generalized density number  0.
 Compute integral first derivatives.
 Leave Link  701 at Mon Oct 12 17:23:18 2020, MaxMem=  1073741824 cpu:               6.2 elap:               0.3
 (Enter /home/spantaleone/g16/l702.exe)
 L702 exits ... SP integral derivatives will be done elsewhere.
 Leave Link  702 at Mon Oct 12 17:23:18 2020, MaxMem=  1073741824 cpu:               0.7 elap:               0.0
 (Enter /home/spantaleone/g16/l703.exe)
 Integral derivatives from FoFJK, PRISM(SPDF).
 Compute integral first derivatives, UseDBF=F ICtDFT=           0.
 Calling FoFJK, ICntrl=      2127 FMM=F ISym2X=0 I1Cent= 0 IOpClX= 1 NMat=1 NMatS=1 NMatT=0.
 FoFJK:  IHMeth= 1 ICntrl=    2127 DoSepK=F KAlg= 0 I1Cent=           0 FoldK=F
 IRaf=         0 NMat=       1 IRICut=       1 DoRegI=T DoRafI=F ISym2E= 0 IDoP0=0 IntGTp=1.
 FoFCou: FMM=F IPFlag=           0 FMFlag=      100000 FMFlg1=         800
         NFxFlg=           0 DoJE=F BraDBF=F KetDBF=F FulRan=T
         wScrn=  0.000000 ICntrl=      2127 IOpCl=  1 I1Cent=           0 NGrid=           0
         NMat0=    1 NMatS0=      1 NMatT0=    0 NMatD0=    1 NMtDS0=    0 NMtDT0=    0
 Symmetry not used in FoFCou.
 Leave Link  703 at Mon Oct 12 17:23:23 2020, MaxMem=  1073741824 cpu:             117.9 elap:               4.9
 (Enter /home/spantaleone/g16/l716.exe)
 Dipole        =-2.45312342D-03 2.29371296D-08 3.53941051D-01
 -------------------------------------------------------------------
 Center     Atomic                   Forces (Hartrees/Bohr)
 Number     Number              X              Y              Z
 -------------------------------------------------------------------
      1        6           0.000022376   -0.000000001    0.001960079
      2        6          -0.000001378    0.000000001    0.025193158
      3        6          -0.000021357   -0.000000001   -0.046736170
      4        6           0.000084615    0.000000001    0.073101603
      5        6          -0.000175897   -0.000000001   -0.113570505
      6        6           0.000438026   -0.000000001    0.202541767
      7        7          -0.000331526    0.000000001   -0.142036868
      8        6           0.000008175    0.000000001   -0.020585749
      9        6          -0.000023034   -0.000000000    0.020132685
 -------------------------------------------------------------------
 Cartesian Forces:  Max     0.202541767 RMS     0.055475049
 Leave Link  716 at Mon Oct 12 17:23:24 2020, MaxMem=  1073741824 cpu:               0.8 elap:               0.0
 (Enter /home/spantaleone/g16/l103.exe)

 GradGradGradGradGradGradGradGradGradGradGradGradGradGradGradGradGradGrad
 Berny optimization.
 FormGI is forming the generalized inverse of G from B-inverse, IUseBI=4.
 Internal  Forces:  Max     0.142037257 RMS     0.035785691
 Search for a local minimum.
 Step number   1 out of a maximum of  100
 All quantities printed in internal units (Hartrees-Bohrs-Radians)
 RMS Force = .35786D-01 SwitMx=.10000D-02 MixMth= 1
 Mixed Optimization -- RFO/linear search
 Second derivative matrix not updated -- first step.
 ITU=  0
     Eigenvalues ---    0.03346   0.03352   0.03586   0.03587   0.03660
     Eigenvalues ---    0.03660   0.03662   0.03662   0.03662   0.03662
     Eigenvalues ---    0.03663   0.03664   0.03664   0.65832   0.72694
     Eigenvalues ---    0.72728   0.72728   0.72762   0.72765   0.72796
     Eigenvalues ---    0.80763
 RFO step:  Lambda=-3.45085787D-02 EMin= 3.34582053D-02
 Linear search not attempted -- first point.
 Iteration  1 RMS(Cart)=  0.03647300 RMS(Int)=  0.00000499
 Iteration  2 RMS(Cart)=  0.00000847 RMS(Int)=  0.00000001
 Iteration  3 RMS(Cart)=  0.00000001 RMS(Int)=  0.00000000
 ITry= 1 IFail=0 DXMaxC= 1.39D-01 DCOld= 1.00D+10 DXMaxT= 3.00D-01 DXLimC= 3.00D+00 Rises=F
 Variable       Old X    -DE/DX   Delta X   Delta X   Delta X     New X
                                 (Linear)    (Quad)   (Total)
    R1        2.42072  -0.00151   0.00000  -0.00198  -0.00198   2.41874
    R2        2.42114   0.00045   0.00000   0.00059   0.00059   2.42173
    R3        2.42070  -0.02670   0.00000  -0.03503  -0.03503   2.38567
    R4        2.42051   0.02004   0.00000   0.02628   0.02628   2.44679
    R5        2.42093  -0.05307   0.00000  -0.06966  -0.06966   2.35127
    R6        2.42093   0.06050   0.00000   0.07943   0.07943   2.50035
    R7        2.37506  -0.14204   0.00000  -0.16866  -0.16866   2.20640
    R8        2.46604  -0.02013   0.00000  -0.02906  -0.02906   2.43698
    A1        3.14204  -0.00002   0.00000  -0.00027  -0.00027   3.14177
    A2        3.14115  -0.00001   0.00000  -0.00018  -0.00018   3.14097
    A3        3.14115   0.00000   0.00000  -0.00006  -0.00006   3.14108
    A4        3.14115  -0.00000   0.00000  -0.00009  -0.00009   3.14105
    A5        3.14115   0.00001   0.00000   0.00014   0.00014   3.14129
    A6        3.14115   0.00002   0.00000   0.00031   0.00031   3.14145
    A7        3.14204  -0.00000   0.00000   0.00001   0.00001   3.14205
    A8        3.14159  -0.00000   0.00000  -0.00000   0.00000   3.14159
    A9        3.14159  -0.00000   0.00000  -0.00000  -0.00000   3.14159
   A10        3.14159   0.00000   0.00000   0.00000   0.00000   3.14159
   A11        3.14159  -0.00000   0.00000  -0.00000   0.00000   3.14159
   A12        3.14159   0.00000   0.00000   0.00000   0.00000   3.14159
   A13        3.14159  -0.00000   0.00000  -0.00000   0.00000   3.14159
   A14        3.14159   0.00000   0.00000   0.00000   0.00000   3.14159
         Item               Value     Threshold  Converged?
 Maximum Force            0.142037     0.000450     NO 
 RMS     Force            0.035786     0.000300     NO 
 Maximum Displacement     0.139312     0.001800     NO 
 RMS     Displacement     0.036473     0.001200     NO 
 Predicted change in Energy=-1.798543D-02
 Lowest energy point so far.  Saving SCF results.
 GradGradGradGradGradGradGradGradGradGradGradGradGradGradGradGradGradGrad

 Leave Link  103 at Mon Oct 12 17:23:24 2020, MaxMem=  1073741824 cpu:               1.1 elap:               0.1
 (Enter /home/spantaleone/g16/l202.exe)
                          Input orientation:                          
 ---------------------------------------------------------------------
 Center     Atomic      Atomic             Coordinates (Angstroms)
 Number     Number       Type             X           Y           Z
 ---------------------------------------------------------------------
      1          6           0        0.000157    0.000000    0.016042
      2          6           0       -0.000078    0.000000    1.295986
      3          6           0        0.000482   -0.000000    2.558427
      4          6           0        0.001715   -0.000000    3.853212
      5          6           0        0.003573   -0.000000    5.097449
      6          6           0        0.005953   -0.000000    6.420577
      7          7           0        0.008216   -0.000000    7.588152
      8          6           0        0.000619    0.000000   -1.265483
      9          6           0        0.001669   -0.000000   -2.555075
 ---------------------------------------------------------------------
                    Distance matrix (angstroms):
                    1          2          3          4          5
     1  C    0.000000
     2  C    1.279944   0.000000
     3  C    2.542385   1.262442   0.000000
     4  C    3.837170   2.557227   1.294786   0.000000
     5  C    5.081408   3.801465   2.539023   1.244238   0.000000
     6  C    6.404537   5.124594   3.862153   2.567368   1.323130
     7  N    7.572115   6.292172   5.029731   3.734946   2.490708
     8  C    1.281525   2.561468   3.823910   5.118695   6.362932
     9  C    2.571117   3.851061   5.113502   6.408287   7.652524
                    6          7          8          9
     6  C    0.000000
     7  N    1.167578   0.000000
     8  C    7.686061   8.853638   0.000000
     9  C    8.975652  10.143229   1.289593   0.000000
 Symmetry turned off by external request.
 Stoichiometry    C8N(2)
 Framework group  C1[X(C8N)]
 Deg. of freedom    21
 Full point group                 C1      NOp   1
 Rotational constants (GHZ):     1687243.4967760           0.4156867           0.4156866
 Leave Link  202 at Mon Oct 12 17:23:24 2020, MaxMem=  1073741824 cpu:               0.1 elap:               0.0
 (Enter /home/spantaleone/g16/l301.exe)
 Standard basis: CC-pVTZ (5D, 7F)
 Ernie: Thresh=  0.10000D-02 Tol=  0.10000D-05 Strict=F.
 Ernie:  27 primitive shells out of 234 were deleted.
   270 basis functions,   468 primitive gaussians,   315 cartesian basis functions
    28 alpha electrons       27 beta electrons
       nuclear repulsion energy       254.0262268359 Hartrees.
 IExCor= 4336 DFT=T Ex+Corr=M062X ExCW=0 ScaHFX=  0.540000
 ScaDFX=  1.000000  1.000000  1.000000  1.000000 ScalE2=  1.000000  1.000000
 IRadAn=      5 IRanWt=     -1 IRanGd=            0 ICorTp=0 IEmpDi=  4
 NAtoms=    9 NActive=    9 NUniq=    9 SFac= 1.00D+00 NAtFMM=   60 NAOKFM=F Big=F
 Integral buffers will be    131072 words long.
 Raffenetti 2 integral format.
 Two-electron integral symmetry is turned off.
 Leave Link  301 at Mon Oct 12 17:23:24 2020, MaxMem=  1073741824 cpu:               1.0 elap:               0.0
 (Enter /home/spantaleone/g16/l302.exe)
 NPDir=0 NMtPBC=     1 NCelOv=     1 NCel=       1 NClECP=     1 NCelD=      1
         NCelK=      1 NCelE2=     1 NClLst=     1 CellRange=     0.0.
 One-electron integrals computed using PRISM.
 NBasis=   270 RedAO= T EigKep=  1.20D-05  NBF=   270
 NBsUse=   270 1.00D-06 EigRej= -1.00D+00 NBFU=   270
 Precomputing XC quadrature grid using
 IXCGrd= 4 IRadAn=           5 IRanWt=          -1 IRanGd=           0 AccXCQ= 0.00D+00.
 Generated NRdTot=       0 NPtTot=           0 NUsed=           0 NTot=          32
 NSgBfM=   312   312   312   312   312 MxSgAt=     9 MxSgA2=     9.
 Leave Link  302 at Mon Oct 12 17:23:24 2020, MaxMem=  1073741824 cpu:               7.4 elap:               0.3
 (Enter /home/spantaleone/g16/l303.exe)
 DipDrv:  MaxL=1.
 Leave Link  303 at Mon Oct 12 17:23:24 2020, MaxMem=  1073741824 cpu:               1.1 elap:               0.1
 (Enter /home/spantaleone/g16/l401.exe)
 Initial guess from the checkpoint file:  "input.chk"
 B after Tr=    -0.000002   -0.000000   -0.002533
         Rot=    1.000000   -0.000000    0.000001   -0.000001 Ang=   0.00 deg.
 Guess basis will be translated and rotated to current coordinates.
 JPrj=2 DoOrth=T DoCkMO=T.
 Initial guess <Sx>= 0.0000 <Sy>= 0.0000 <Sz>= 0.5000 <S**2>= 1.0123 S= 0.6235
 Generating alternative initial guess.
 ExpMin= 1.21D-01 ExpMax= 1.14D+04 ExpMxC= 3.89D+02 IAcc=3 IRadAn=         5 AccDes= 0.00D+00
 Harris functional with IExCor= 1009 and IRadAn=       5 diagonalized for initial guess.
 HarFok:  IExCor= 1009 AccDes= 0.00D+00 IRadAn=         5 IDoV= 1 UseB2=F ITyADJ=14
 ICtDFT=  3500011 ScaDFX=  1.000000  1.000000  1.000000  1.000000
 FoFCou: FMM=F IPFlag=           0 FMFlag=      100000 FMFlg1=           0
         NFxFlg=           0 DoJE=T BraDBF=F KetDBF=T FulRan=T
         wScrn=  0.000000 ICntrl=       500 IOpCl=  0 I1Cent=   200000004 NGrid=           0
         NMat0=    1 NMatS0=      1 NMatT0=    0 NMatD0=    1 NMtDS0=    0 NMtDT0=    0
 Symmetry not used in FoFCou.
 Harris En= -359.042018365872    
 Leave Link  401 at Mon Oct 12 17:23:25 2020, MaxMem=  1073741824 cpu:              21.1 elap:               0.9
 (Enter /home/spantaleone/g16/l502.exe)
 Two-electron integral symmetry not used.
 UHF open shell SCF:
 Using DIIS extrapolation, IDIIS=  1040.
 NGot=  1073741824 LenX=  1073533830 LenY=  1073434164
 Requested convergence on RMS density matrix=1.00D-08 within  32 cycles.
 Requested convergence on MAX density matrix=1.00D-06.
 Requested convergence on             energy=1.00D-06.
 No special actions if energy rises.
 Fock matrices will be formed incrementally for  20 cycles.
 Integral accuracy reduced to 1.0D-05 until final iterations.

 Cycle   1  Pass 0  IDiag  1:
 FoFJK:  IHMeth= 1 ICntrl=       0 DoSepK=F KAlg= 0 I1Cent=           0 FoldK=F
 IRaf= 830000000 NMat=       1 IRICut=       1 DoRegI=T DoRafI=F ISym2E= 0 IDoP0=0 IntGTp=1.
 FoFCou: FMM=F IPFlag=           0 FMFlag=      100000 FMFlg1=           0
         NFxFlg=           0 DoJE=F BraDBF=F KetDBF=F FulRan=T
         wScrn=  0.000000 ICntrl=         0 IOpCl=  1 I1Cent=           0 NGrid=           0
         NMat0=    1 NMatS0=      1 NMatT0=    0 NMatD0=    1 NMtDS0=    0 NMtDT0=    0
 Symmetry not used in FoFCou.
 E= -359.210406410851    
 DIIS: error= 7.39D-03 at cycle   1 NSaved=   1.
 NSaved= 1 IEnMin= 1 EnMin= -359.210406410851     IErMin= 1 ErrMin= 7.39D-03
 ErrMax= 7.39D-03  0.00D+00 EMaxC= 1.00D-01 BMatC= 4.24D-02 BMatP= 4.24D-02
 IDIUse=3 WtCom= 9.26D-01 WtEn= 7.39D-02
 Coeff-Com:  0.100D+01
 Coeff-En:   0.100D+01
 Coeff:      0.100D+01
 Gap=     1.090 Goal=   None    Shift=    0.000
 Gap=     1.150 Goal=   None    Shift=    0.000
 GapD=    1.090 DampG=2.000 DampE=1.000 DampFc=2.0000 IDamp=-1.
 RMSDP=3.93D-03 MaxDP=2.62D-01              OVMax= 4.26D-02

 Cycle   2  Pass 0  IDiag  1:
 RMSU=  3.62D-03    CP:  1.09D+00
 E= -359.218695667383     Delta-E=       -0.008289256532 Rises=F Damp=F
 DIIS: error= 5.74D-03 at cycle   2 NSaved=   2.
 NSaved= 2 IEnMin= 2 EnMin= -359.218695667383     IErMin= 2 ErrMin= 5.74D-03
 ErrMax= 5.74D-03  0.00D+00 EMaxC= 1.00D-01 BMatC= 1.65D-02 BMatP= 4.24D-02
 IDIUse=3 WtCom= 9.43D-01 WtEn= 5.74D-02
 Coeff-Com:  0.338D+00 0.662D+00
 Coeff-En:   0.000D+00 0.100D+01
 Coeff:      0.319D+00 0.681D+00
 Gap=     0.117 Goal=   None    Shift=    0.000
 Gap=     0.190 Goal=   None    Shift=    0.000
 RMSDP=1.54D-03 MaxDP=7.97D-02 DE=-8.29D-03 OVMax= 3.14D-02

 Cycle   3  Pass 0  IDiag  1:
 RMSU=  1.11D-03    CP:  1.14D+00  1.22D+00
 E= -359.219896218836     Delta-E=       -0.001200551453 Rises=F Damp=F
 DIIS: error= 5.22D-03 at cycle   3 NSaved=   3.
 NSaved= 3 IEnMin= 3 EnMin= -359.219896218836     IErMin= 3 ErrMin= 5.22D-03
 ErrMax= 5.22D-03  0.00D+00 EMaxC= 1.00D-01 BMatC= 1.21D-02 BMatP= 1.65D-02
 IDIUse=3 WtCom= 9.48D-01 WtEn= 5.22D-02
 Coeff-Com:  0.551D-01 0.451D+00 0.494D+00
 Coeff-En:   0.000D+00 0.412D+00 0.588D+00
 Coeff:      0.522D-01 0.449D+00 0.499D+00
 Gap=     0.117 Goal=   None    Shift=    0.000
 Gap=     0.191 Goal=   None    Shift=    0.000
 RMSDP=1.78D-03 MaxDP=6.79D-02 DE=-1.20D-03 OVMax= 2.10D-02

 Cycle   4  Pass 0  IDiag  1:
 RMSU=  6.90D-04    CP:  1.18D+00  1.54D+00  1.77D+00
 E= -359.222823980877     Delta-E=       -0.002927762040 Rises=F Damp=F
 DIIS: error= 1.95D-03 at cycle   4 NSaved=   4.
 NSaved= 4 IEnMin= 4 EnMin= -359.222823980877     IErMin= 4 ErrMin= 1.95D-03
 ErrMax= 1.95D-03  0.00D+00 EMaxC= 1.00D-01 BMatC= 7.09D-04 BMatP= 1.21D-02
 IDIUse=3 WtCom= 9.81D-01 WtEn= 1.95D-02
 Coeff-Com: -0.173D-01 0.330D-01 0.181D+00 0.803D+00
 Coeff-En:   0.000D+00 0.000D+00 0.000D+00 0.100D+01
 Coeff:     -0.169D-01 0.323D-01 0.178D+00 0.807D+00
 Gap=     0.117 Goal=   None    Shift=    0.000
 Gap=     0.191 Goal=   None    Shift=    0.000
 RMSDP=7.64D-03 MaxDP=3.07D-01 DE=-2.93D-03 OVMax= 1.58D-02

 Cycle   5  Pass 0  IDiag  1:
 RMSU=  2.86D-03    CP:  1.39D+00  2.94D+00  3.00D+00  3.00D+00
 E= -359.223269639880     Delta-E=       -0.000445659003 Rises=F Damp=F
 DIIS: error= 1.77D-03 at cycle   5 NSaved=   5.
[...]

 Orbital symmetries:
       Occupied  (A) (A) (A) (A) (A) (A) (A) (A) (A) (A) (A) (A)
                 (A) (A) (A) (A) (A) (A) (A) (A) (A) (A) (A) (A)
                 (A) (A) (A) (A)
       Virtual   (A) (A) (A) (A) (A) (A) (A) (A) (A) (A) (A) (A)
                 (A) (A) (A) (A) (A) (A) (A) (A) (A) (A) (A) (A)
                 (A) (A) (A) (A) (A) (A) (A) (A) (A) (A) (A) (A)
                 (A) (A) (A) (A) (A) (A) (A) (A) (A) (A) (A) (A)
                 (A) (A) (A) (A) (A) (A) (A) (A) (A) (A) (A) (A)
                 (A) (A) (A) (A) (A) (A) (A) (A) (A) (A) (A) (A)
                 (A) (A) (A) (A) (A) (A) (A) (A) (A) (A) (A) (A)
                 (A) (A) (A) (A) (A) (A) (A) (A) (A) (A) (A) (A)
                 (A) (A) (A) (A) (A) (A) (A) (A) (A) (A) (A) (A)
                 (A) (A) (A) (A) (A) (A) (A) (A) (A) (A) (A) (A)
                 (A) (A) (A) (A) (A) (A) (A) (A) (A) (A) (A) (A)
                 (A) (A) (A) (A) (A) (A) (A) (A) (A) (A) (A) (A)
                 (A) (A) (A) (A) (A) (A) (A) (A) (A) (A) (A) (A)
                 (A) (A) (A) (A) (A) (A) (A) (A) (A) (A) (A) (A)
                 (A) (A) (A) (A) (A) (A) (A) (A) (A) (A) (A) (A)
                 (A) (A) (A) (A) (A) (A) (A) (A) (A) (A) (A) (A)
                 (A) (A) (A) (A) (A) (A) (A) (A) (A) (A) (A) (A)
                 (A) (A) (A) (A) (A) (A) (A) (A) (A) (A) (A) (A)
                 (A) (A) (A) (A) (A) (A) (A) (A) (A) (A) (A) (A)
                 (A) (A) (A) (A) (A) (A) (A) (A) (A) (A) (A) (A)
                 (A) (A) (A) (A) (A) (A) (A) (A) (A) (A) (A) (A)
                 (A) (A) (A) (A) (A) (A) (A) (A) (A) (A) (A) (A)
                 (A) (A) (A) (A) (A) (A) (A) (A) (A) (A) (A) (A)
                 (A) (A) (A) (A) (A) (A) (A) (A) (A) (A) (A) (A)
                 (A) (A) (A) (A) (A) (A) (A) (A) (A) (A) (A) (A)
                 (A) (A) (A) (A) (A) (A) (A) (A) (A) (A) (A) (A)
                 (A) (A) (A) (A) (A) (A) (A) (A) (A) (A) (A) (A)
                 (A) (A) (A) (A) (A) (A) (A) (A) (A) (A) (A) (A)
                 (A) (A) (A) (A) (A) (A) (A) (A) (A) (A) (A) (A)
                 (A) (A) (A) (A) (A) (A) (A) (A) (A) (A) (A) (A)
                 (A) (A) (A) (A) (A) (A) (A) (A) (A) (A) (A) (A)
                 (A) (A) (A) (A) (A) (A) (A) (A) (A) (A)
 The electronic state is 2-A.
 Alpha  occ. eigenvalues --  -15.62633 -11.35331 -11.34366 -11.34037 -11.33663
 Alpha  occ. eigenvalues --  -11.33447 -11.33104 -11.32879 -11.29387  -1.27016
 Alpha  occ. eigenvalues --   -1.18316  -1.14789  -1.10016  -1.02272  -0.95031
 Alpha  occ. eigenvalues --   -0.88542  -0.83514  -0.60859  -0.60847  -0.58856
 Alpha  occ. eigenvalues --   -0.57553  -0.55015  -0.51885  -0.50609  -0.48453
 Alpha  occ. eigenvalues --   -0.44013  -0.40311  -0.33187
 Alpha virt. eigenvalues --   -0.06063   0.02443   0.03730   0.04313   0.05349
 Alpha virt. eigenvalues --    0.06191   0.06256   0.06271   0.07711   0.07865
 Alpha virt. eigenvalues --    0.07933   0.09526   0.09568   0.10336   0.12029
 Alpha virt. eigenvalues --    0.12184   0.13508   0.14527   0.15542   0.15737
 Alpha virt. eigenvalues --    0.16856   0.17154   0.18516   0.18673   0.20181
 Alpha virt. eigenvalues --    0.20425   0.21086   0.21657   0.21735   0.22451
 Alpha virt. eigenvalues --    0.22461   0.23349   0.24111   0.24753   0.24755
 Alpha virt. eigenvalues --    0.25937   0.26601   0.26612   0.27326   0.28924
 Alpha virt. eigenvalues --    0.28930   0.29270   0.31074   0.31409   0.32306
 Alpha virt. eigenvalues --    0.32881   0.33404   0.33410   0.33889   0.34135
 Alpha virt. eigenvalues --    0.34177   0.34363   0.34369   0.35273   0.37686
 Alpha virt. eigenvalues --    0.38253   0.38447   0.38895   0.41313   0.41326
 Alpha virt. eigenvalues --    0.41432   0.41884   0.42432   0.42635   0.44478
 Alpha virt. eigenvalues --    0.45366   0.46646   0.47513   0.48411   0.48878
 Alpha virt. eigenvalues --    0.49617   0.49622   0.52455   0.52926   0.52979
 Alpha virt. eigenvalues --    0.56471   0.56750   0.56903   0.57010   0.59453
 Alpha virt. eigenvalues --    0.59454   0.63036   0.64992   0.66214   0.66224
 Alpha virt. eigenvalues --    0.68827   0.68828   0.71474   0.71479   0.72522
 Alpha virt. eigenvalues --    0.72738   0.75380   0.79178   0.79180   0.80714
 Alpha virt. eigenvalues --    0.80816   0.81531   0.81878   0.81888   0.82128
 Alpha virt. eigenvalues --    0.82426   0.82427   0.84817   0.84880   0.85731
 Alpha virt. eigenvalues --    0.85748   0.85826   0.89224   0.89230   0.89915
 Alpha virt. eigenvalues --    0.90180   0.92089   0.92431   0.92432   0.93166
 Alpha virt. eigenvalues --    0.93425   0.93792   0.95097   0.95102   0.95698
 Alpha virt. eigenvalues --    0.95698   0.95952   0.98282   0.98284   0.98841
 Alpha virt. eigenvalues --    1.00747   1.00747   1.03211   1.03220   1.05352
 Alpha virt. eigenvalues --    1.05543   1.05730   1.06701   1.07542   1.07542
 Alpha virt. eigenvalues --    1.13613   1.13615   1.13710   1.13716   1.16847
 Alpha virt. eigenvalues --    1.16847   1.17447   1.19029   1.19509   1.19695
 Alpha virt. eigenvalues --    1.22527   1.24231   1.24380   1.24962   1.24963
 Alpha virt. eigenvalues --    1.25513   1.28471   1.28471   1.30404   1.30828
 Alpha virt. eigenvalues --    1.30844   1.35448   1.35449   1.36528   1.39167
 Alpha virt. eigenvalues --    1.39168   1.40611   1.43371   1.43371   1.44811
 Alpha virt. eigenvalues --    1.45819   1.45919   1.48120   1.50256   1.55962
 Alpha virt. eigenvalues --    1.55963   1.57971   1.58825   1.58894   1.59964
 Alpha virt. eigenvalues --    1.61371   1.61371   1.61765   1.64248   1.64317
 Alpha virt. eigenvalues --    1.68658   1.68659   1.69142   1.69165   1.74475
 Alpha virt. eigenvalues --    1.75381   1.75381   1.77802   1.77843   1.79599
 Alpha virt. eigenvalues --    1.79890   1.81312   1.81456   1.82382   1.82382
 Alpha virt. eigenvalues --    1.87844   1.88022   1.88482   1.96504   1.96577
 Alpha virt. eigenvalues --    1.98460   1.98461   1.99932   2.06515   2.06601
 Alpha virt. eigenvalues --    2.06671   2.12528   2.12528   2.15719   2.15719
 Alpha virt. eigenvalues --    2.19493   2.19493   2.24432   2.24434   2.27505
 Alpha virt. eigenvalues --    2.27580   2.27631   2.30329   2.30511   2.33847
 Alpha virt. eigenvalues --    2.33847   2.41270   2.43807   2.44043   2.46688
 Alpha virt. eigenvalues --    2.52645   2.52872   2.55877   2.66385   2.67510
 Alpha virt. eigenvalues --    2.73034   2.73332   2.74376   2.76958   2.77271
 Alpha virt. eigenvalues --    2.77550   2.94791   3.04074   3.04267   3.07906
 Alpha virt. eigenvalues --    3.07999   3.15182   3.15224   3.15927   3.19134
 Alpha virt. eigenvalues --    3.19134   3.19901   3.19908   3.20842   3.20843
 Alpha virt. eigenvalues --    3.20892   3.20896   3.21165   3.21342   3.23019
 Alpha virt. eigenvalues --    3.24016   3.24017   3.26473   3.26474   3.27841
 Alpha virt. eigenvalues --    3.27843   3.31215   3.31216   3.32584   3.32764
 Alpha virt. eigenvalues --    3.35358   3.38471   3.39635   3.39935   3.40592
 Alpha virt. eigenvalues --    3.40592   3.42704   3.45391   3.47786   3.47787
 Alpha virt. eigenvalues --    3.47935   3.47937   3.49206   3.49280   3.51508
 Alpha virt. eigenvalues --    3.51648   3.52536   3.56414   3.61028   3.61028
 Alpha virt. eigenvalues --    3.63049   3.63049   3.65556   3.69465   3.69467
 Alpha virt. eigenvalues --    3.71462   3.71721   3.71792   3.72149   3.72152
 Alpha virt. eigenvalues --    3.74249   3.74254   3.74928   3.75138   3.76435
 Alpha virt. eigenvalues --    3.83000   3.83182   3.83328   3.83367   3.87263
 Alpha virt. eigenvalues --    3.87511   3.88795   3.89105   3.89288   3.89290
 Alpha virt. eigenvalues --    3.93137   3.97338   3.97340   3.98314   3.98683
 Alpha virt. eigenvalues --    4.09369   4.10283   4.10407   4.14157   4.14158
 Alpha virt. eigenvalues --    4.19223   4.19374   4.21996   4.22768   4.22770
 Alpha virt. eigenvalues --    4.32392   4.38760   4.38762   4.46109   4.46390
 Alpha virt. eigenvalues --    4.47142   4.56598   4.56601   4.63023   4.71432
 Alpha virt. eigenvalues --    4.71891   4.72050   4.75722   4.87714   4.88113
 Alpha virt. eigenvalues --    4.88240   4.88243   4.96393   4.96393   4.99699
 Alpha virt. eigenvalues --    5.16202   5.16542   5.32862   5.32862   5.36552
 Alpha virt. eigenvalues --    5.53160   5.53524   5.60304   5.61013   5.61014
 Alpha virt. eigenvalues --    5.75779   5.76062   6.02095   6.03481   6.03883
 Alpha virt. eigenvalues --    6.08222   6.21383   6.32729   6.47649   6.48103
 Alpha virt. eigenvalues --    6.55010   6.58615   6.87816   6.95540   6.99117
 Alpha virt. eigenvalues --    6.99573   7.59021   7.59522  12.25112  16.06844
 Alpha virt. eigenvalues --   16.29700  16.98313  17.62954  20.06615  21.38471
 Alpha virt. eigenvalues --   22.54748  22.93133
          Condensed to atoms (all electrons):
               1          2          3          4          5          6
     1  C    8.040707  -2.166117  -0.117412   0.354152  -0.142013   0.005565
     2  C   -2.166117  10.526103  -1.055740  -0.023678   0.411848  -0.211634
     3  C   -0.117412  -1.055740   7.823303  -1.808734  -0.140714   0.512366
     4  C    0.354152  -0.023678  -1.808734  11.439278  -2.507710  -0.765337
     5  C   -0.142013   0.411848  -0.140714  -2.507710   8.236082  -1.507669
     6  C    0.005565  -0.211634   0.512366  -0.765337  -1.507669   8.726016
     7  N   -0.000278   0.013781  -0.007969  -0.066746   0.170375  -0.032616
     8  C   -0.390209  -1.570197   0.418681  -0.095682  -0.012067   0.003586
     9  C   -0.193736   0.078685  -0.021668   0.003576   0.001775   0.000248
               7          8          9
     1  C   -0.000278  -0.390209  -0.193736
     2  C    0.013781  -1.570197   0.078685
     3  C   -0.007969   0.418681  -0.021668
     4  C   -0.066746  -0.095682   0.003576
     5  C    0.170375  -0.012067   0.001775
     6  C   -0.032616   0.003586   0.000248
     7  N    7.391821  -0.000155  -0.000013
     8  C   -0.000155   8.069796  -0.471264
     9  C   -0.000013  -0.471264   7.416334
          Atomic-Atomic Spin Densities.
               1          2          3          4          5          6
     1  C    0.387763   0.042931  -0.041031   0.006874   0.000625  -0.000063
     2  C    0.042931   0.020607  -0.040767   0.007285   0.002826  -0.000103
     3  C   -0.041031  -0.040767   0.165561  -0.022108  -0.017753   0.000193
     4  C    0.006874   0.007285  -0.022108   0.006697   0.001333  -0.000413
     5  C    0.000625   0.002826  -0.017753   0.001333   0.027449   0.001879
     6  C   -0.000063  -0.000103   0.000193  -0.000413   0.001879   0.000444
     7  N   -0.000002  -0.000018   0.000179  -0.000135  -0.000443  -0.000022
     8  C   -0.138963  -0.013000   0.014427  -0.002477  -0.000189   0.000023
     9  C   -0.088297  -0.005667   0.004398  -0.000549  -0.000016   0.000003
               7          8          9
     1  C   -0.000002  -0.138963  -0.088297
     2  C   -0.000018  -0.013000  -0.005667
     3  C    0.000179   0.014427   0.004398
     4  C   -0.000135  -0.002477  -0.000549
     5  C   -0.000443  -0.000189  -0.000016
     6  C   -0.000022   0.000023   0.000003
     7  N    0.004059   0.000000  -0.000000
     8  C    0.000000   0.114437   0.107725
     9  C   -0.000000   0.107725   0.635619
 Mulliken charges and spin densities:
               1          2
     1  C    0.609341   0.169836
     2  C   -0.003051   0.014092
     3  C    0.397887   0.063098
     4  C   -0.529118  -0.003493
     5  C    1.490094   0.015710
     6  C   -0.730525   0.001940
     7  N   -0.468201   0.003618
     8  C    0.047511   0.081982
     9  C   -0.813937   0.653216
 Sum of Mulliken charges =  -0.00000   1.00000
 Mulliken charges and spin densities with hydrogens summed into heavy atoms:
               1          2
     1  C    0.609341   0.169836
     2  C   -0.003051   0.014092
     3  C    0.397887   0.063098
     4  C   -0.529118  -0.003493
     5  C    1.490094   0.015710
     6  C   -0.730525   0.001940
     7  N   -0.468201   0.003618
     8  C    0.047511   0.081982
     9  C   -0.813937   0.653216
 Electronic spatial extent (au):  <R**2>=           2329.7407
 Charge=             -0.0000 electrons
 Dipole moment (field-independent basis, Debye):
    X=              0.1031    Y=             -0.0053    Z=             -0.0000  Tot=              0.1032
 Quadrupole moment (field-independent basis, Debye-Ang):
   XX=            -88.8089   YY=            -49.2534   ZZ=            -50.8295
   XY=             -0.0126   XZ=             -0.0000   YZ=             -0.0002
 Traceless Quadrupole moment (field-independent basis, Debye-Ang):
   XX=            -25.8450   YY=             13.7105   ZZ=             12.1344
   XY=             -0.0126   XZ=             -0.0000   YZ=             -0.0002
 Octapole moment (field-independent basis, Debye-Ang**2):
  XXX=            -41.4982  YYY=              0.0024  ZZZ=             -0.0000  XYY=             -6.3329
  XXY=             -0.1886  XXZ=             -0.0000  XZZ=             -9.1185  YZZ=              0.0001
  YYZ=             -0.0000  XYZ=             -0.0003
 Hexadecapole moment (field-independent basis, Debye-Ang**3):
 XXXX=          -5128.5290 YYYY=            -54.9591 ZZZZ=            -57.4692 XXXY=             -0.5981
 XXXZ=             -0.0001 YYYX=             -0.0397 YYYZ=             -0.0002 ZZZX=             -0.0000
 ZZZY=             -0.0002 XXYY=           -566.7275 XXZZ=           -590.0239 YYZZ=            -18.7332
 XXYZ=             -0.0028 YYXZ=             -0.0000 ZZXY=             -0.0219
 N-N= 2.532030839421D+02 E-N=-1.337484410055D+03  KE= 3.567204601155D+02
                          Isotropic Fermi Contact Couplings
        Atom                 a.u.       MegaHertz       Gauss      10(-4) cm-1
     1  C(13)              0.00000       0.00000       0.00000       0.00000
     2  C(13)              0.00000       0.00000       0.00000       0.00000
     3  C(13)              0.00000       0.00000       0.00000       0.00000
     4  C(13)              0.00000       0.00000       0.00000       0.00000
     5  C(13)              0.00000       0.00000       0.00000       0.00000
     6  C(13)              0.00000       0.00000       0.00000       0.00000
     7  N(14)             -0.00000      -0.00000      -0.00000      -0.00000
     8  C(13)              0.00000       0.00000       0.00000       0.00000
     9  C(13)              0.00000       0.00000       0.00000       0.00000
 --------------------------------------------------------
       Center         ----  Spin Dipole Couplings  ----
                      3XX-RR        3YY-RR        3ZZ-RR
 --------------------------------------------------------
     1   Atom       -0.107961     -0.134289      0.242251
     2   Atom        0.015660     -0.022023      0.006363
     3   Atom       -0.030959     -0.040369      0.071328
     4   Atom        0.006448     -0.005393     -0.001056
     5   Atom       -0.008415     -0.011736      0.020150
     6   Atom        0.002206     -0.001534     -0.000671
     7   Atom       -0.003304     -0.004514      0.007818
     8   Atom        0.010626     -0.090308      0.079682
     9   Atom       -0.356521     -0.384889      0.741411
 --------------------------------------------------------
                        XY            XZ            YZ
 --------------------------------------------------------
     1   Atom        0.000033     -0.000000      0.000046
     2   Atom        0.000025      0.000000      0.000003
     3   Atom        0.000004      0.000000      0.000014
     4   Atom       -0.000003     -0.000000      0.000001
     5   Atom       -0.000001     -0.000000      0.000004
     6   Atom       -0.000003      0.000000      0.000000
     7   Atom       -0.000001      0.000000      0.000002
     8   Atom        0.000165     -0.000000      0.000021
     9   Atom        0.000049     -0.000001      0.000138
 --------------------------------------------------------


 ---------------------------------------------------------------------------------
              Anisotropic Spin Dipole Couplings in Principal Axis System
 ---------------------------------------------------------------------------------

       Atom             a.u.   MegaHertz   Gauss  10(-4) cm-1        Axes

              Baa    -0.1343   -18.020    -6.430    -6.011 -0.0013  1.0000 -0.0001
     1 C(13)  Bbb    -0.1080   -14.487    -5.169    -4.832  1.0000  0.0013 -0.0000
              Bcc     0.2423    32.508    11.600    10.843 -0.0000  0.0001  1.0000
 
              Baa    -0.0220    -2.955    -1.055    -0.986 -0.0007  1.0000 -0.0001
     2 C(13)  Bbb     0.0064     0.854     0.305     0.285 -0.0000  0.0001  1.0000
              Bcc     0.0157     2.101     0.750     0.701  1.0000  0.0007  0.0000
 
              Baa    -0.0404    -5.417    -1.933    -1.807 -0.0004  1.0000 -0.0001
     3 C(13)  Bbb    -0.0310    -4.154    -1.482    -1.386  1.0000  0.0004 -0.0000
              Bcc     0.0713     9.572     3.415     3.193  0.0000  0.0001  1.0000
 
              Baa    -0.0054    -0.724    -0.258    -0.241  0.0003  1.0000 -0.0001
     4 C(13)  Bbb    -0.0011    -0.142    -0.051    -0.047  0.0000  0.0001  1.0000
              Bcc     0.0064     0.865     0.309     0.289  1.0000 -0.0003 -0.0000
 
              Baa    -0.0117    -1.575    -0.562    -0.525  0.0004  1.0000 -0.0001
     5 C(13)  Bbb    -0.0084    -1.129    -0.403    -0.377  1.0000 -0.0004  0.0000
              Bcc     0.0202     2.704     0.965     0.902 -0.0000  0.0001  1.0000
 
              Baa    -0.0015    -0.206    -0.073    -0.069  0.0009  1.0000 -0.0001
     6 C(13)  Bbb    -0.0007    -0.090    -0.032    -0.030  0.0000  0.0001  1.0000
              Bcc     0.0022     0.296     0.106     0.099  1.0000 -0.0009  0.0000
 
              Baa    -0.0045    -0.174    -0.062    -0.058  0.0005  1.0000 -0.0001
     7 N(14)  Bbb    -0.0033    -0.127    -0.045    -0.043  1.0000 -0.0005 -0.0000
              Bcc     0.0078     0.302     0.108     0.101  0.0000  0.0001  1.0000
 
              Baa    -0.0903   -12.119    -4.324    -4.042 -0.0016  1.0000 -0.0001
     8 C(13)  Bbb     0.0106     1.426     0.509     0.476  1.0000  0.0016 -0.0000
              Bcc     0.0797    10.693     3.815     3.567  0.0000  0.0001  1.0000
 
              Baa    -0.3849   -51.648   -18.429   -17.228 -0.0017  1.0000 -0.0001
     9 C(13)  Bbb    -0.3565   -47.842   -17.071   -15.958  1.0000  0.0017  0.0000
              Bcc     0.7414    99.490    35.501    33.186 -0.0000  0.0001  1.0000
 

 ---------------------------------------------------------------------------------

 No NMR shielding tensors so no spin-rotation constants.
 Leave Link  601 at Tue Oct 13 06:39:22 2020, MaxMem=  1073741824 cpu:              16.6 elap:               0.9
 (Enter /home/spantaleone/g16/l9999.exe)
 1\1\GINC-N1107\SP\ROCCSD(T)-FC\Aug-CC-pVTZ\C8N1(2)\SPANTALEONE\13-Oct-
 2020\0\\#P ROCCSD(T)/aug-cc-pvtz geom=allcheck guess=read\\Title\\0,2\
 C,0,-0.0001721832,0.0000008155,-0.0061630733\C,0,-0.0002350334,0.00000
 0306,1.3010845781\C,0,0.0004566643,-0.0000001012,2.5360963737\C,0,0.00
 17208187,0.0000000003,3.8736475732\C,0,0.0037704677,-0.0000000612,5.08
 83834\C,0,0.0065493532,-0.0000001092,6.4556283123\N,0,0.0077314671,-0.
 0000001721,7.6081364841\C,0,0.0005549905,0.0000000398,-1.2736161136\C,
 0,0.0019306544,-0.000000753,-2.5739101431\\Version=ES64L-G16RevB.01\St
 ate=2-A\HF=-357.1621721\MP2=-358.5100238\MP3=-358.4918072\PUHF=-357.16
 21721\PMP2-0=-358.5100238\MP4SDQ=-358.5058437\CCSD=-358.5072669\CCSD(T
 )=-358.6009829\RMSD=2.340e-09\PG=C01 [X(C8N1)]\\@


 We find comfort among those who agree with us -- growth among those who don't.
 -- Frank A. Clark
 Job cpu time:      13 days  1 hours 25 minutes  9.0 seconds.
 Elapsed time:       0 days 13 hours  7 minutes 34.1 seconds.
 File lengths (MBytes):  RWF= 197323 Int=      0 D2E=      0 Chk=     21 Scr=      1
 Normal termination of Gaussian 16 at Tue Oct 13 06:39:30 2020.
