[Molden Format]
[Title]
[Atoms] AU
C      1     6 -0.14373465740479E+00  0.12644058370802E+01 -0.77417690851211E-01
N      2     7 -0.24061002369229E+01  0.50752993708991E+00 -0.72502812871149E-01
C      3     6  0.18737594633493E+01 -0.35741940571224E+00  0.57650024715069E-01
H      4     1 -0.31995832511173E+01 -0.12451124317370E+01  0.24319726133459E-01
H      5     1  0.38756586820956E+01 -0.16940393672084E+00  0.67950752873831E-01
[GTO]
           1 0
 s           4   1.0000000000000000     
   51.049363095579913      -0.16312063210127389     
   8.7911227406887544      -0.19911024581000730     
  0.70640422258929825       0.31882047753655751     
  0.26922813413411617       0.12706504184240380     
 p           4   1.0000000000000000     
   5.8263656140800002       0.73716451545209605     
   1.5106896018720002       0.68216371614850257     
  0.53256483288000001       0.35783053929253711     
  0.21202323690600003        5.3983030275847881E-002

           2 0
 s           4   1.0000000000000000     
   63.594024466941008      -0.19234388414721629     
   10.951417231523665      -0.23478107924953728     
  0.87999310257376984       0.37593753901700888     
  0.33538715296521110       0.14982889271862770     
 p           4   1.0000000000000000     
   7.2965040481495080       0.97658666315667420     
   1.8918745450712575       0.90372226730345739     
  0.66694432110824120       0.47404958461536373     
  0.26552202674130870        7.1516067715011844E-002

           3 0
 s           4   1.0000000000000000     
   51.049363095579913      -0.16312063210127389     
   8.7911227406887544      -0.19911024581000730     
  0.70640422258929825       0.31882047753655751     
  0.26922813413411617       0.12706504184240380     
 p           4   1.0000000000000000     
   5.8263656140800002       0.73716451545209605     
   1.5106896018720002       0.68216371614850257     
  0.53256483288000001       0.35783053929253711     
  0.21202323690600003        5.3983030275847881E-002

           4 0
 s           3   1.0000000000000000     
   3.3702276975336001       0.27359110588908298     
  0.61389118221497996       0.26460540653860526     
  0.16614291148415999        8.2465947534082318E-002

           5 0
 s           3   1.0000000000000000     
   3.3702276975336001       0.27359110588908298     
  0.61389118221497996       0.26460540653860526     
  0.16614291148415999        8.2465947534082318E-002

[MO]
Sym=     1a
Ene=  -0.64344447216913314     
Spin= Alpha
Occup=     2.00000000
           1  0.44281630443612069     
           2 -0.11650992576959955     
           3 -0.11979299793183142     
           4   5.1729845161809481E-003
           5  0.49734362175542574     
           6  0.20499798391058444     
           7   2.0527715385550002E-003
           8   3.6992253076051701E-003
           9  0.20702956871590292     
          10 -0.11390102198485370     
          11   5.2955907873591099E-002
          12  -5.3195108140554406E-003
          13  0.11126939242200679     
          14   3.1354653976901750E-002
Sym=     2a
Ene=  -0.59677638538503697     
Spin= Alpha
Occup=     2.00000000
           1 -0.20881848853996002     
           2 -0.29540707565526569     
           3   7.2716012667169830E-002
           4  -9.5802245695037515E-003
           5  0.39699284879430530     
           6  -7.9927635822019338E-002
           7  -2.0477985573826237E-002
           8   8.4869183963494574E-005
           9 -0.50628577586574330     
          10   3.6479763984589797E-002
          11 -0.10258912995853839     
          12   7.2909119213703973E-003
          13  0.16118137575910951     
          14 -0.19168159202514842     
Sym=     3a
Ene=  -0.55727107598224002     
Spin= Alpha
Occup=     2.00000000
           1  0.26151980667266833     
           2 -0.15817872239636271     
           3  0.11565285735215984     
           4  -1.0038795149993302E-002
           5 -0.18139404351661048     
           6  0.30872238697598625     
           7  0.39896510587097406     
           8  -1.9433618354196179E-002
           9 -0.24378487123539219     
          10 -0.10666880485998799     
          11   4.1204064825362992E-002
          12  -4.0024251661380968E-003
          13 -0.38708210413939270     
          14 -0.17883814162248202     
Sym=     4a
Ene=  -0.51247143719012134     
Spin= Alpha
Occup=     2.00000000
           1   8.4270455465706065E-002
           2  0.22733134624970139     
           3 -0.18456160471327696     
           4   1.7285295519106965E-002
           5 -0.22498786703856372     
           6   5.8119242415651147E-002
           7 -0.34376438409930693     
           8   2.4026816093247756E-002
           9 -0.15056158106325906     
          10 -0.43404371755875154     
          11   9.2941856613733678E-002
          12  -1.0897601257328310E-002
          13  0.12025337969989182     
          14 -0.42303165239636509     
Sym=     5a
Ene=  -0.48131843168980004     
Spin= Alpha
Occup=     2.00000000
           1  -4.4104472082204591E-004
           2   9.7704765719519547E-003
           3  -3.2912524380732090E-002
           4 -0.51345551709793913     
           5  -4.1091757745778570E-004
           6   1.2856155394201176E-002
           7  -4.3442562885196004E-002
           8 -0.67207384879073395     
           9  -1.2502107503368784E-003
          10   2.7118461838985921E-003
          11  -1.6468574146893344E-002
          12 -0.26902312008359758     
          13   1.6162886756976457E-004
          14  -1.2277678343663855E-003
Sym=     6a
Ene=  -0.45226382791737052     
Spin= Alpha
Occup=     2.00000000
           1 -0.27768147816960920     
           2 -0.28852589245761251     
           3 -0.39557877837959521     
           4   1.9810679807829565E-002
           5 -0.18044813910823956     
           6  0.48634084818574719     
           7 -0.25648202549252136     
           8   2.5810470946850950E-002
           9  0.10364297565238356     
          10   2.8508309540392421E-002
          11 -0.41158630762895598     
          12   2.5483177769909132E-002
          13 -0.10681978813804689     
          14   8.6255365035554837E-002
Sym=     7a
Ene=  -0.38851723002855221     
Spin= Alpha
Occup=     1.00000000
           1  0.19732972309838953     
           2  -3.9053220222293392E-002
           3  0.23074163808905460     
           4  -1.6418954267988992E-002
           5 -0.22779244581450447     
           6  0.43341075292070380     
           7 -0.46313000817594541     
           8   4.1558611250113398E-002
           9 -0.36743109177319644     
          10  0.34176191585518756     
          11  0.41284775090547599     
          12  -2.6608401042990830E-002
          13  0.15746138863600043     
          14  0.20295047952502640     
Sym=     8a
Ene=  -0.36503267249798294     
Spin= Alpha
Occup=     1.00000000
           1  -1.4041514937880831E-003
           2   4.8910265261106018E-003
           3  -1.6450249783040695E-002
           4 -0.22713268900001141     
           5   1.1796881162070424E-003
           6  -1.5063527331664559E-002
           7   4.0644930835449462E-002
           8  0.58419740029888134     
           9   9.6160321892296082E-004
          10   7.7047103058348271E-003
          11  -5.1159818815829268E-002
          12 -0.77767784048928079     
          13  -1.0588688423403606E-003
          14  -1.2242358732176240E-003
Sym=     9a
Ene=  -0.28125085219696377     
Spin= Alpha
Occup=     1.00000000
           1  0.38789008915028378     
           2   6.0201532020685402E-003
           3  0.64773005906181247     
           4  -4.0730530444543188E-002
           5 -0.26732467326032822     
           6   3.9302664346501204E-002
           7 -0.16606468956256507     
           8   1.0995633225401790E-002
           9  0.17809690015742202     
          10  -8.7604804715469997E-002
          11 -0.65848667884121737     
          12   3.8769455852247940E-002
          13  0.27171205919450958     
          14  -7.9150558327275494E-002
Sym=    10a
Ene=  -0.17824419500905006     
Spin= Alpha
Occup=     0.00000000
           1   1.1495246999406292E-003
           2  -1.5377923586269398E-002
           3   5.3972717010358690E-002
           4  0.87790673103908001     
           5   9.6305933483448330E-005
           6   7.9572050924441740E-003
           7  -3.1130196338817775E-002
           8 -0.49982122304331594     
           9  -2.5163978373375648E-003
          10   7.6643095287914024E-003
          11  -3.8188099936690874E-002
          12 -0.60018515379203097     
          13  -4.8814144980317240E-004
          14   2.4355866159183450E-003
Sym=    11a
Ene=    9.5470445701168416E-002
Spin= Alpha
Occup=     0.00000000
           1  -9.6009578227407466E-002
           2  0.29772998512351517     
           3  0.29583104490451467     
           4  -1.2652159214364174E-002
           5  0.83112963224049397     
           6   1.3720678474021829E-002
           7 -0.65470211548419599     
           8   4.1941321171339238E-002
           9  0.17972577945081813     
          10  0.15206476718793924     
          11  -9.4398344678476270E-002
          12   6.7877058658934930E-003
          13 -0.99222834154965445     
          14 -0.27527932835114843     
Sym=    12a
Ene=   0.16084449941047269     
Spin= Alpha
Occup=     0.00000000
           1  0.43692204885208935     
           2  0.22211467785687278     
           3 -0.23699354101064465     
           4   1.6083753779445129E-002
           5   8.1571960260719098E-002
           6 -0.31507742006765671     
           7 -0.16097199016850633     
           8   5.3204266422680925E-003
           9 -0.91104707049494893     
          10 -0.42099541176977512     
          11 -0.36912934236906364     
          12   2.1223891745046176E-002
          13 -0.31920262764381924     
          14  0.94513171111511418     
Sym=    13a
Ene=   0.49904293162843671     
Spin= Alpha
Occup=     0.00000000
           1 -0.85982474303563916     
           2 -0.22570483608188202     
           3  0.66420787638888168     
           4  -4.5197485203245485E-002
           5  0.19895560945249413     
           6  0.35793494186174146     
           7  -9.8018027133527173E-003
           8   7.2036159636646984E-003
           9  0.18613205742778099     
          10  -1.0571885307558777     
          11  0.35222395837354381     
          12  -3.7145594906621095E-002
          13   3.5675278613127866E-002
          14  0.65337739017927809     
Sym=    14a
Ene=   0.60158938867660527     
Spin= Alpha
Occup=     0.00000000
           1 -0.37758591995865082     
           2   1.1516292141765629     
           3   6.3916292496639052E-003
           4   2.0647923956065923E-002
           5  0.47900644959791849     
           6  0.82154524473076596     
           7  0.56183701876080172     
           8  -1.9880761632778767E-002
           9 -0.35880573735879423     
          10  0.20349227043367149     
          11 -0.35034304346182576     
          12   2.4889432764015840E-002
          13  0.43018977096435235     
          14  -5.8465803154965539E-003
