 Entering Gaussian System
 *********************************************
 Gaussian 98:
 frequency output generated by the xtb code
 *********************************************
                         Standard orientation:
 --------------------------------------------------------------------
  Center     Atomic     Atomic              Coordinates (Angstroms)
  Number     Number      Type              X           Y           Z
 --------------------------------------------------------------------
    1          6             0       -0.076061    0.669095   -0.040968
    2          7             0       -1.273254    0.268573   -0.038367
    3          6             0        0.991551   -0.189138    0.030507
    4          1             0       -1.693147   -0.658885    0.012869
    5          1             0        2.050910   -0.089645    0.035958
 --------------------------------------------------------------------
     1 basis functions        1 primitive gaussians
     1 alpha electrons        1 beta electrons

 Harmonic frequencies (cm**-1), IR intensities (KM/Mole),
 Raman scattering activities (A**4/amu), Raman depolarization ratios,
 reduced masses (AMU), force constants (mDyne/A) and normal coordinates:
                      1                      2                      3
                        a                      a                      a 
 Frequencies --   372.0915               538.5148               590.4437
 Red. masses --     9.0764                 2.5010                 5.2061
 Frc consts  --     0.0000                 0.0000                 0.0000
 IR Inten    --     0.2763                 0.2320                 0.3789
 Raman Activ --     0.0000                 0.0000                 0.0000
 Depolar     --     0.0000                 0.0000                 0.0000
 Atom AN      X      Y      Z        X      Y      Z        X      Y      Z
   1   6     0.08   0.53  -0.03    -0.00  -0.00  -0.03    -0.01   0.02   0.38
   2   7     0.31  -0.29   0.02    -0.00   0.00   0.01     0.01  -0.03  -0.44
   3   6    -0.48  -0.05  -0.01    -0.00   0.03   0.37     0.00   0.00  -0.03
   4   1     0.33  -0.18   0.02     0.01  -0.02  -0.34    -0.02   0.05   0.74
   5   1    -0.11  -0.39   0.02     0.01  -0.06  -0.86     0.00  -0.03  -0.32
                      4                      5                      6
                        a                      a                      a 
 Frequencies --   638.0047               850.1948              1361.1732
 Red. masses --     3.6823                 3.9787                11.8944
 Frc consts  --     0.0000                 0.0000                 0.0000
 IR Inten    --     0.3811                 0.5509                 0.1633
 Raman Activ --     0.0000                 0.0000                 0.0000
 Depolar     --     0.0000                 0.0000                 0.0000
 Atom AN      X      Y      Z        X      Y      Z        X      Y      Z
   1   6     0.11   0.10  -0.00    -0.08  -0.17   0.01     0.20  -0.61   0.04
   2   7     0.13   0.02  -0.00    -0.29   0.31  -0.03     0.30   0.14  -0.00
   3   6    -0.27  -0.35   0.02     0.15  -0.03   0.00    -0.49   0.46  -0.04
   4   1     0.18  -0.05   0.01     0.80  -0.34   0.04     0.06   0.01   0.00
   5   1    -0.13   0.84  -0.07     0.05  -0.08   0.01    -0.16  -0.01  -0.00
                      7                      8                      9
                        a                      a                      a 
 Frequencies --  1577.4923              3126.2246              3173.4639
 Red. masses --    12.6359                 1.7951                 1.9060
 Frc consts  --     0.0000                 0.0000                 0.0000
 IR Inten    --     0.2350                 0.1567                 0.1094
 Raman Activ --     0.0000                 0.0000                 0.0000
 Depolar     --     0.0000                 0.0000                 0.0000
 Atom AN      X      Y      Z        X      Y      Z        X      Y      Z
   1   6    -0.76  -0.09  -0.01     0.00   0.03  -0.00     0.00  -0.02   0.00
   2   7     0.59   0.16   0.00     0.11   0.22  -0.01    -0.00  -0.01   0.00
   3   6     0.10  -0.11   0.01    -0.01  -0.01   0.00    -0.28  -0.00  -0.00
   4   1     0.07   0.08  -0.00    -0.42  -0.87   0.05     0.03   0.06  -0.00
   5   1     0.03  -0.00   0.00     0.06   0.01   0.00     0.95   0.06   0.01
