      -----------------------------------------------------------      
     |                   =====================                   |     
     |                           x T B                           |     
     |                   =====================                   |     
     |                         S. Grimme                         |     
     |          Mulliken Center for Theoretical Chemistry        |     
     |                    University of Bonn                     |     
      -----------------------------------------------------------      

   * xtb version 6.2.2 (9d81278992624c895f80dd42a50cac0aa55982e2) compiled by '@Darwin' on 04/03/2020

   xtb is free software: you can redistribute it and/or modify it under
   the terms of the GNU Lesser General Public License as published by
   the Free Software Foundation, either version 3 of the License, or
   (at your option) any later version.
   
   xtb is distributed in the hope that it will be useful,
   but WITHOUT ANY WARRANTY; without even the implied warranty of
   MERCHANTABILITY or FITNESS FOR A PARTICULAR PURPOSE.  See the
   GNU Lesser General Public License for more details.
   
   Cite this work as:
   * S. Grimme, C. Bannwarth, P. Shushkov, J. Chem. Theory Comput., 2017,
     13, 1989-2009. DOI: 10.1021/acs.jctc.7b00118
   * C. Bannwarth, S. Ehlert and S. Grimme., J. Chem. Theory Comput., 2019,
     15, 1652-1671. DOI: 10.1021/acs.jctc.8b01176
   * P. Pracht, E. Caldeweyher, S. Ehlert, S. Grimme, ChemRxiv, 2019, preprint.
     DOI: 10.26434/chemrxiv.8326202.v1
   
   for DFT-D4:
   * E. Caldeweyher, C. Bannwarth and S. Grimme, J. Chem. Phys., 2017,
     147, 034112. DOI: 10.1063/1.4993215
   * E. Caldeweyher, S. Ehlert, A. Hansen, H. Neugebauer, S. Spicher,
     C. Bannwarth and S. Grimme, J. Chem. Phys., 2019, 150, 154122.
     DOI: 10.1063/1.5090222
   
   for sTDA-xTB:
   * S. Grimme and C. Bannwarth, J. Chem. Phys., 2016, 145, 054103.
     DOI: 10.1063/1.4959605
   
   in the mass-spec context:
   * V. Asgeirsson, C. Bauer and S. Grimme, Chem. Sci., 2017, 8, 4879.
     DOI: 10.1039/c7sc00601b
   
   for metadynamics refer to:
   * S. Grimme, J. Chem. Theory Comput., 2019, 155, 2847-2862
     DOI: 10.1021/acs.jctc.9b00143
   
   with help from (in alphabetical order)
   C. Bannwarth, F. Bohle, G. Brandenburg, E. Caldeweyher, M. Checinski,
   S. Dohm, S. Ehlert, S. Ehrlich, F. März, H. Neugebauer, J. Pisarek,
   P. Pracht, P. Shushkov, and S. Spicher.
   
 * started run on 2020/05/12 at 11:43:53.931     

           -------------------------------------------------
          |                Calculation Setup                |
           -------------------------------------------------

          program call               : xtb --input C2N1_1_S_3.input C2N1_1_S_3.xyz --ohess --molden --namespace C2N1_1_S_3 output.out
          calculation namespace      : C2N1_1_S_3
          coordinate file            : C2N1_1_S_3.xyz
          number of atoms            :                     3
          number of electrons        :                    13
          charge                     :                     0
          spin                       :                   1.5
          first test random number   :      0.35462267335053

   ID    Z sym.   atoms
    1    7 N      1
    2    6 C      2, 3

           -------------------------------------------------
          |                 G F N 2 - x T B                 |
           -------------------------------------------------

        Reference                      10.1021/acs.jctc.8b01176
      * Hamiltonian:
        H0-scaling (s, p, d)           1.850000    2.230000    2.230000
        zeta-weighting                 0.500000
      * Dispersion:
        s8                             2.700000
        a1                             0.520000
        a2                             5.000000
        s9                             5.000000
      * Repulsion:
        kExp                           1.500000    1.000000
        rExp                           1.000000
      * Coulomb:
        alpha                          2.000000
        third order                    shell-resolved
        anisotropic                    true
        a3                             3.000000
        a5                             4.000000
        cn-shift                       1.200000
        cn-exp                         4.000000
        max-rad                        5.000000


          ...................................................
          :                      SETUP                      :
          :.................................................:
          :  # basis functions                  12          :
          :  # atomic orbitals                  12          :
          :  # shells                            6          :
          :  # electrons                        13          :
          :  max. iterations                   250          :
          :  Hamiltonian                  GFN2-xTB          :
          :  restarted?                      false          :
          :  GBSA solvation                  false          :
          :  PC potential                    false          :
          :  electronic temp.          300.0000000     K    :
          :  accuracy                    1.0000000          :
          :  -> integral cutoff          0.2500000E+02      :
          :  -> integral neglect         0.1000000E-07      :
          :  -> SCF convergence          0.1000000E-05 Eh   :
          :  -> wf. convergence          0.1000000E-03 e    :
          :  Broyden damping             0.4000000          :
          ...................................................

 iter      E             dE          RMSdq      gap      omega  full diag
   1     -6.7237782 -0.672378E+01  0.863E+00    0.19       0.0  T
   2     -6.7183789  0.539930E-02  0.573E+00    0.48       1.0  T
   3     -6.7078065  0.105723E-01  0.420E+00    0.10       1.0  T
   4     -6.7410713 -0.332647E-01  0.103E+00    0.34       1.0  T
   5     -6.7367201  0.435117E-02  0.120E+00    0.35       1.0  T
   6     -6.7078304  0.288897E-01  0.237E+00    0.36       1.0  T
   7     -6.7412990 -0.334686E-01  0.272E-01    0.34       1.0  T
   8     -6.7412231  0.759297E-04  0.135E-01    0.34       1.0  T
   9     -6.7413103 -0.872800E-04  0.293E-02    0.34       2.0  T
  10     -6.7413130 -0.265685E-05  0.171E-02    0.34       3.4  T
  11     -6.7413130 -0.233473E-07  0.138E-02    0.34       4.2  T
  12     -6.7413130 -0.181009E-07  0.158E-02    0.34       3.7  T
  13     -6.7413130  0.483519E-07  0.727E-03    0.34       7.9  T
  14     -6.7413133 -0.283404E-06  0.292E-03    0.34      19.8  T
  15     -6.7413133 -0.185352E-07  0.102E-03    0.34      56.4  T
  16     -6.7413133 -0.321695E-08  0.125E-04    0.34     460.3  T
  17     -6.7413133 -0.479172E-10  0.472E-05    0.34    1222.4  T

   *** convergence criteria satisfied after 17 iterations ***

         #    Occupation            Energy/Eh            Energy/eV
      -------------------------------------------------------------
         1        2.0000           -0.7020913             -19.1049
         2        2.0000           -0.6477462             -17.6261
         3        2.0000           -0.5665155             -15.4157
         4        2.0000           -0.5360783             -14.5874
         5        1.8342           -0.5017496             -13.6533
         6        1.1658           -0.4986801             -13.5698
         7        1.0000           -0.4048250             -11.0158
         8        0.9987           -0.3881614             -10.5624 (HOMO)
         9        0.0013           -0.3755098             -10.2181 (LUMO)
        10                         -0.3296448              -8.9701
        11                          0.0120150               0.3269
        12                          0.0523845               1.4255
      -------------------------------------------------------------
                  HL-Gap            0.0126516 Eh            0.3443 eV
             Fermi-level           -0.4410252 Eh          -12.0009 eV

 SCC (total)                   0 d,  0 h,  0 min,  0.002 sec
 SCC setup                      ...        0 min,  0.000 sec (  3.118%)
 Dispersion                     ...        0 min,  0.000 sec (  0.421%)
 integral evaluation            ...        0 min,  0.001 sec ( 26.240%)
 zeroth order Hamiltonian       ...        0 min,  0.000 sec (  0.408%)
 iterations                     ...        0 min,  0.001 sec ( 46.282%)
 molecular gradient             ...        0 min,  0.000 sec ( 20.970%)
 printout                       ...        0 min,  0.000 sec (  2.128%)

         :::::::::::::::::::::::::::::::::::::::::::::::::::::
         ::                     SUMMARY                     ::
         :::::::::::::::::::::::::::::::::::::::::::::::::::::
         :: total energy              -6.718803836335 Eh    ::
         :: gradient norm              0.227426951909 Eh/a0 ::
         :: HOMO-LUMO gap              0.344268405807 eV    ::
         ::.................................................::
         :: SCC energy                -6.741313285976 Eh    ::
         :: -> isotropic ES           -0.015584728073 Eh    ::
         :: -> anisotropic ES         -0.000435282346 Eh    ::
         :: -> anisotropic XC          0.004587259401 Eh    ::
         :: -> dispersion             -0.000976966347 Eh    ::
         :: repulsion energy           0.022509448130 Eh    ::
         :: add. restraining           0.000000000000 Eh    ::
         :::::::::::::::::::::::::::::::::::::::::::::::::::::

      ----------------------------------------------------------- 
     |                   =====================                   |
     |                        A N C O P T                        |
     |                   =====================                   |
     |               Approximate Normal Coordinate               |
     |                Rational Function Optimizer                |
      ----------------------------------------------------------- 

          ...................................................
          :                      SETUP                      :
          :.................................................:
          :   optimization level            normal          :
          :   max. optcycles                   200          :
          :   ANC micro-cycles                  20          :
          :   degrees of freedom                 3          :
          :.................................................:
          :   RF solver                   davidson          :
          :   write xtbopt.log                true          :
          :   linear?                        false          :
          :   energy convergence         0.5000000E-05 Eh   :
          :   grad. convergence          0.1000000E-02 Eh/α :
          :   maximium RF displ.         1.0000000          :
          :   Hlow (freq-cutoff)         0.1000000E-01      :
          :   Hmax (freq-cutoff)         5.0000000          :
          :   S6 in model hess.         20.0000000          :
          ...................................................

generating ANC from model Hessian ...
Using Lindh-Hessian (1995)
 Shifting diagonal of input Hessian by    0.0000000000000000     
 Lowest  eigenvalues of input Hessian
   -0.000000   -0.000000   -0.000000    0.000000    0.000000    0.000000
    0.115265    0.881831    1.119929
 Highest eigenvalues
    0.000000    0.000000    0.000000    0.115265    0.881831    1.119929


........................................................................
.............................. CYCLE    1 ..............................
........................................................................
   1     -6.7413133 -0.674131E+01  0.574E-06    0.34       0.0  T
   2     -6.7413133  0.483968E-10  0.865E-05    0.34     667.6  T
   3     -6.7413133 -0.480904E-10  0.883E-06    0.34    6536.6  T
     SCC iter.                  ...        0 min,  0.000 sec
     gradient                   ...        0 min,  0.000 sec
 * total energy  :    -6.7188038 Eh     change       -0.1698464E-10 Eh
   gradient norm :     0.2274268 Eh/α   predicted     0.0000000E+00 (-100.00%)
   displ. norm   :     0.3357123 α      lambda       -0.6295586E-01
   maximum displ.:     0.2382818 α      in ANC's #1, #2, #3, ...

........................................................................
.............................. CYCLE    2 ..............................
........................................................................
   1     -6.8180887 -0.681809E+01  0.212E+00    0.94       0.0  T
   2     -6.8211783 -0.308966E-02  0.144E+00    1.10       1.0  T
   3     -6.8229087 -0.173037E-02  0.798E-01    0.99       1.0  T
   4     -6.8229729 -0.642587E-04  0.161E-01    0.97       1.0  T
   5     -6.8165408  0.643216E-02  0.112E+00    0.98       1.0  T
   6     -6.8230202 -0.647941E-02  0.432E-02    0.98       1.3  T
   7     -6.8230257 -0.548134E-05  0.927E-03    0.98       6.2  T
   8     -6.8230258 -0.110121E-06  0.131E-03    0.98      44.1  T
   9     -6.8230258 -0.448647E-08  0.466E-04    0.98     123.8  T
  10     -6.8230258 -0.230590E-09  0.287E-04    0.98     201.3  T
     SCC iter.                  ...        0 min,  0.001 sec
     gradient                   ...        0 min,  0.001 sec
 * total energy  :    -6.7683721 Eh     change       -0.4956825E-01 Eh
   gradient norm :     0.1024777 Eh/α   predicted    -0.3502558E-01 ( -29.34%)
   displ. norm   :     0.3646204 α      lambda       -0.2799383E-01
   maximum displ.:     0.3127880 α      in ANC's #1, #2, #3, ...

........................................................................
.............................. CYCLE    3 ..............................
........................................................................
   1     -6.8767423 -0.687674E+01  0.311E+00    3.02       0.0  T
   2     -6.8805455 -0.380319E-02  0.157E+00    2.77       1.0  T
   3     -6.8810830 -0.537538E-03  0.766E-01    2.91       1.0  T
   4     -6.8776070  0.347604E-02  0.110E+00    2.86       1.0  T
   5     -6.8693585  0.824849E-02  0.188E+00    2.86       1.0  T
   6     -6.8814524 -0.120939E-01  0.132E-01    2.86       1.0  T
   7     -6.8814736 -0.211920E-04  0.702E-02    2.86       1.0  T
   8     -6.8814837 -0.101025E-04  0.412E-02    2.86       1.4  T
   9     -6.8814887 -0.500573E-05  0.978E-03    2.86       5.9  T
  10     -6.8814889 -0.174118E-06  0.622E-03    2.86       9.3  T
  11     -6.8814890 -0.945309E-07  0.300E-03    2.86      19.3  T
  12     -6.8814890 -0.280225E-07  0.149E-04    2.86     387.8  T
  13     -6.8814890 -0.580949E-10  0.352E-05    2.86    1638.3  T
     SCC iter.                  ...        0 min,  0.000 sec
     gradient                   ...        0 min,  0.000 sec
 * total energy  :    -6.7751722 Eh     change       -0.6800102E-02 Eh
   gradient norm :     0.1351149 Eh/α   predicted    -0.1585778E-01 ( 133.20%)
   displ. norm   :     0.1547601 α      lambda       -0.1425414E-01
   maximum displ.:     0.1283686 α      in ANC's #1, #2, #3, ...

........................................................................
.............................. CYCLE    4 ..............................
........................................................................
   1     -6.8564879 -0.685649E+01  0.250E+00    1.87       0.0  T
   2     -6.8570248 -0.536869E-03  0.128E+00    1.95       1.0  T
   3     -6.8569286  0.961624E-04  0.328E-01    1.89       1.0  T
   4     -6.8571434 -0.214787E-03  0.212E-01    1.94       1.0  T
   5     -6.8567944  0.349017E-03  0.369E-01    1.94       1.0  T
   6     -6.8572508 -0.456460E-03  0.799E-02    1.93       1.0  T
   7     -6.8572525 -0.169029E-05  0.471E-03    1.93      12.3  T
   8     -6.8572525 -0.680730E-09  0.148E-03    1.93      39.1  T
   9     -6.8572525 -0.317623E-08  0.247E-04    1.93     234.1  T
  10     -6.8572525 -0.777103E-10  0.674E-05    1.93     856.6  T
     SCC iter.                  ...        0 min,  0.000 sec
     gradient                   ...        0 min,  0.000 sec
 * total energy  :    -6.7826602 Eh     change       -0.7487979E-02 Eh
   gradient norm :     0.0080821 Eh/α   predicted    -0.7297770E-02 (  -2.54%)
   displ. norm   :     0.0989711 α      lambda       -0.7315865E-03
   maximum displ.:     0.0988044 α      in ANC's #1, #2, #3, ...

........................................................................
.............................. CYCLE    5 ..............................
........................................................................
   1     -6.8563298 -0.685633E+01  0.931E-01    1.53       0.0  T
   2     -6.8564234 -0.935322E-04  0.462E-01    1.51       1.0  T
   3     -6.8563948  0.286189E-04  0.190E-01    1.55       1.0  T
   4     -6.8560259  0.368887E-03  0.335E-01    1.53       1.0  T
   5     -6.8564438 -0.417879E-03  0.890E-02    1.53       1.0  T
   6     -6.8564663 -0.225376E-04  0.747E-03    1.53       7.7  T
   7     -6.8564663 -0.351218E-07  0.341E-03    1.53      17.0  T
   8     -6.8564663 -0.104251E-08  0.310E-04    1.53     186.1  T
   9     -6.8564663 -0.286722E-10  0.553E-05    1.53    1043.6  T
     SCC iter.                  ...        0 min,  0.000 sec
     gradient                   ...        0 min,  0.000 sec
 * total energy  :    -6.7825828 Eh     change        0.7739794E-04 Eh
   gradient norm :     0.0119357 Eh/α   predicted    -0.3693775E-03 (-577.24%)
   displ. norm   :     0.0574203 α      lambda       -0.6154935E-03
   maximum displ.:     0.0574185 α      in ANC's #1, #2, #3, ...

........................................................................
.............................. CYCLE    6 ..............................
........................................................................
   1     -6.8579381 -0.685794E+01  0.561E-01    1.78       0.0  T
   2     -6.8579753 -0.371943E-04  0.263E-01    1.79       1.0  T
   3     -6.8579778 -0.253850E-05  0.946E-02    1.78       1.0  T
   4     -6.8579708  0.702725E-05  0.789E-02    1.78       1.0  T
   5     -6.8568948  0.107594E-02  0.535E-01    1.78       1.0  T
   6     -6.8579869 -0.109207E-02  0.539E-03    1.78      10.7  T
   7     -6.8579869 -0.965702E-08  0.170E-03    1.78      34.0  T
   8     -6.8579869 -0.173350E-08  0.505E-04    1.78     114.4  T
   9     -6.8579869 -0.119127E-09  0.138E-04    1.78     418.7  T
     SCC iter.                  ...        0 min,  0.000 sec
     gradient                   ...        0 min,  0.000 sec
 * total energy  :    -6.7828461 Eh     change       -0.2633724E-03 Eh
   gradient norm :     0.0010895 Eh/α   predicted    -0.3087624E-03 (  17.23%)
   displ. norm   :     0.0079591 α      lambda       -0.5644816E-05
   maximum displ.:     0.0079125 α      in ANC's #1, #2, #3, ...

........................................................................
.............................. CYCLE    7 ..............................
........................................................................
   1     -6.8580467 -0.685805E+01  0.773E-02    1.75       0.0  T
   2     -6.8580474 -0.719420E-06  0.367E-02    1.75       1.6  T
   3     -6.8580175  0.298620E-04  0.895E-02    1.75       1.0  T
   4     -6.8580247 -0.714029E-05  0.783E-02    1.75       1.0  T
   5     -6.8580477 -0.230657E-04  0.540E-03    1.75      10.7  T
   6     -6.8580477 -0.232520E-08  0.717E-04    1.75      80.5  T
   7     -6.8580477 -0.243089E-09  0.310E-04    1.75     186.5  T
     SCC iter.                  ...        0 min,  0.000 sec
     gradient                   ...        0 min,  0.000 sec
 * total energy  :    -6.7828491 Eh     change       -0.2916692E-05 Eh
   gradient norm :     0.0003430 Eh/α   predicted    -0.2823085E-05 (  -3.21%)
   displ. norm   :     0.0019390 α      lambda       -0.4389398E-06
   maximum displ.:     0.0019308 α      in ANC's #1, #2, #3, ...

   *** GEOMETRY OPTIMIZATION CONVERGED AFTER 7 ITERATIONS ***

------------------------------------------------------------------------
 total energy gain   :        -0.0640452 Eh      -40.1890 kcal/mol
 total RMSD          :         0.4651522 a0        0.2461 Å
 total power (kW/mol):       -24.0215298 (step)********** (real)
------------------------------------------------------------------------

 ANCopt (total)                0 d,  0 h,  0 min,  0.010 sec
 optimizer setup                ...        0 min,  0.000 sec (  0.516%)
 model hessian                  ...        0 min,  0.000 sec (  0.323%)
 ANC generation                 ...        0 min,  0.000 sec (  0.253%)
 coordinate transformation      ...        0 min,  0.000 sec (  0.109%)
 single point calculation       ...        0 min,  0.010 sec ( 94.279%)
 optimization log               ...        0 min,  0.000 sec (  1.036%)
 hessian update                 ...        0 min,  0.000 sec (  0.116%)
 rational function              ...        0 min,  0.000 sec (  1.408%)

================
 final structure:
================
3
 xtb: 6.2.2 (9d81278992624c895f80dd42a50cac0aa55982e2)
N        -0.00199313779502    0.63892871748582   -0.00000000000000
C         0.86845206873015   -0.31675619344270    0.00000000000000
C        -0.86645793093513   -0.32217152404312    0.00000000000000

 Bond Distances (Angstroems)
 ---------------------------
N1-C2=1.2927         N1-C3=1.2927         C2-N1=1.2927         C2-C3=1.7349         C3-N1=1.2927         C3-C2=1.7349         
 C  C  Rav=1.7349 sigma=0.0000  Rmin=1.7349  Rmax=1.7349     1
 N  C  Rav=1.2927 sigma=0.0000  Rmin=1.2927  Rmax=1.2927     2

 selected bond angles (degree)
 --------------------
C3-N1-C2= 84.30                C3-C2-N1= 47.85                C2-C3-N1= 47.85                

 selected dihedral angles (degree)
 ---------------------------------

           -------------------------------------------------
          |                Final Singlepoint                |
           -------------------------------------------------

          ...................................................
          :                      SETUP                      :
          :.................................................:
          :  # basis functions                  12          :
          :  # atomic orbitals                  12          :
          :  # shells                            6          :
          :  # electrons                        13          :
          :  max. iterations                   250          :
          :  Hamiltonian                  GFN2-xTB          :
          :  restarted?                      false          :
          :  GBSA solvation                  false          :
          :  PC potential                    false          :
          :  electronic temp.          300.0000000     K    :
          :  accuracy                    1.0000000          :
          :  -> integral cutoff          0.2500000E+02      :
          :  -> integral neglect         0.1000000E-07      :
          :  -> SCF convergence          0.1000000E-05 Eh   :
          :  -> wf. convergence          0.1000000E-03 e    :
          :  Broyden damping             0.4000000          :
          ...................................................

 iter      E             dE          RMSdq      gap      omega  full diag
   1     -6.8580477 -0.685805E+01  0.425E-05    1.75       0.0  T
   2     -6.8580477  0.363070E-10  0.113E-04    1.75     508.9  T
   3     -6.8580477  0.139416E-09  0.229E-04    1.75     251.9  T

   *** convergence criteria satisfied after 3 iterations ***

         #    Occupation            Energy/Eh            Energy/eV
      -------------------------------------------------------------
         1        2.0000           -0.7310956             -19.8941
         2        2.0000           -0.6263949             -17.0451
         3        2.0000           -0.5826007             -15.8534
         4        2.0000           -0.5643934             -15.3579
         5        1.8732           -0.4651394             -12.6571
         6        1.1268           -0.4614728             -12.5573
         7        1.0000           -0.4022972             -10.9471
         8        1.0000           -0.3505369              -9.5386 (HOMO)
         9                         -0.2861261              -7.7859 (LUMO)
        10                         -0.2120492              -5.7702
        11                          0.2658293               7.2336
        12                          0.3851812              10.4813
      -------------------------------------------------------------
                  HL-Gap            0.0644108 Eh            1.7527 eV
             Fermi-level           -0.3908188 Eh          -10.6347 eV

 SCC (total)                   0 d,  0 h,  0 min,  0.001 sec
 SCC setup                      ...        0 min,  0.000 sec (  4.522%)
 Dispersion                     ...        0 min,  0.000 sec (  0.423%)
 integral evaluation            ...        0 min,  0.001 sec ( 42.217%)
 zeroth order Hamiltonian       ...        0 min,  0.000 sec (  0.404%)
 iterations                     ...        0 min,  0.000 sec ( 10.814%)
 molecular gradient             ...        0 min,  0.000 sec ( 31.133%)
 printout                       ...        0 min,  0.000 sec (  8.005%)

         :::::::::::::::::::::::::::::::::::::::::::::::::::::
         ::                     SUMMARY                     ::
         :::::::::::::::::::::::::::::::::::::::::::::::::::::
         :: total energy              -6.782849058623 Eh    ::
         :: gradient norm              0.000341997150 Eh/a0 ::
         :: HOMO-LUMO gap              1.752705820977 eV    ::
         ::.................................................::
         :: SCC energy                -6.858047728511 Eh    ::
         :: -> isotropic ES           -0.005565368566 Eh    ::
         :: -> anisotropic ES         -0.000003904840 Eh    ::
         :: -> anisotropic XC          0.004521876757 Eh    ::
         :: -> dispersion             -0.000898387283 Eh    ::
         :: repulsion energy           0.075198668915 Eh    ::
         :: add. restraining           0.000000000000 Eh    ::
         :::::::::::::::::::::::::::::::::::::::::::::::::::::

           ------------------------------------------------- 
          |                Numerical Hessian                |
           ------------------------------------------------- 
step length          :   0.00500
SCC accuracy         :   0.30000
Hessian scale factor :   1.00000
frozen atoms in %    :   0.00000    0
RMS gradient         :   0.00034
estimated CPU  time      0.00 min
estimated wall time      0.00 min

writing file <hessian>.

 projected vibrational frequencies (cm-1)
eigval :       -0.00    -0.00    -0.00     0.00     0.00     0.00
eigval :      619.11   935.46  1662.53
           -------------------------------------------------
          |                Property Printout                |
           -------------------------------------------------

    * Orbital Energies and Occupations

         #    Occupation            Energy/Eh            Energy/eV
      -------------------------------------------------------------
         1        2.0000           -0.7310956             -19.8941
         2        2.0000           -0.6263949             -17.0451
         3        2.0000           -0.5826006             -15.8534
         4        2.0000           -0.5643934             -15.3579
         5        1.8732           -0.4651394             -12.6571
         6        1.1268           -0.4614728             -12.5573
         7        1.0000           -0.4022972             -10.9471
         8        1.0000           -0.3505369              -9.5386 (HOMO)
         9                         -0.2861261              -7.7859 (LUMO)
        10                         -0.2120492              -5.7702
        11                          0.2658293               7.2336
        12                          0.3851812              10.4813
      -------------------------------------------------------------
                  HL-Gap            0.0644108 Eh            1.7527 eV
             Fermi-level           -0.3908188 Eh          -10.6347 eV

     #   Z        covCN         q      C6AA      α(0)
     1   7 N      1.821     0.038    21.251     6.831
     2   6 C      1.813    -0.019    31.688     9.096
     3   6 C      1.813    -0.019    31.688     9.096

 Mol. C6AA /au·bohr⁶  :        251.317940
 Mol. C8AA /au·bohr⁸  :       6744.370361
 Mol. α(0) /au        :         25.022323


Wiberg/Mayer (AO) data.
largest (>0.10) Wiberg bond orders for each atom
          total WBO             WBO to atom ...
     1  N   2.991        C    2 1.495    C    3 1.495
     2  C   2.025        N    1 1.495    C    3 0.529
Molecule has the following symmetry elements: (C2) 2*(sigma) 
It seems to be the C2v point group
     3  C   2.025        N    1 1.495    C    2 0.529

MOs/occ written to file <molden.input>


molecular dipole:
                 x           y           z       tot (Debye)
 q only:       -0.000       0.068      -0.000
   full:       -0.001       0.232      -0.000       0.589
molecular quadrupole (traceless):
                xx          xy          yy          xz          yz          zz
 q only:       -0.122      -0.001       0.092       0.000      -0.000       0.030
  q+dip:       -0.655      -0.003       0.211       0.000       0.000       0.444
   full:       -0.729      -0.001      -0.435       0.000       0.000       1.164

           -------------------------------------------------
          |                Geometry Summary                 |
           -------------------------------------------------

      molecular mass/u    :       38.0281750
   center of mass at/Å    :       -0.0001041       0.0335355      -0.0000001
  moments of inertia/u·Å² :        0.8126830E+01   0.1807581E+02   0.2620264E+02
rotational constants/cm⁻¹ :        0.2074318E+01   0.9326073E+00   0.6433563E+00

 * 2 selected distances

     #   Z        #   Z                                     value/Å
     1   7 N      2   6 C                                 1.2926749 (min)
     1   7 N      3   6 C                                 1.2926767 (max)

 * 1 distinct bonds (by element types)

   Z      Z             #   av. dist./Å        max./Å        min./Å
   6 C    7 N           2     1.2926758     1.2926767     1.2926749

           -------------------------------------------------
          |               Frequency Printout                |
           -------------------------------------------------
 projected vibrational frequencies (cm-1)
eigval :       -0.00    -0.00    -0.00     0.00     0.00     0.00
eigval :      619.11   935.46  1662.53
 reduced masses (amu)
   1: 12.01   2: 13.07   3: 12.63   4: 14.01   5: 12.10   6: 12.10   7: 12.37   8: 12.88
   9: 12.91
 IR intensities (amu)
   1:  0.06   2:  0.23   3:  0.11   4:  0.13   5:  0.06   6:  0.06   7:  0.47   8:  4.65
   9:  0.08
 Raman intensities (amu)
   1:  0.00   2:  0.00   3:  0.00   4:  0.00   5:  0.00   6:  0.00   7:  0.00   8:  0.00
   9:  0.00
 output can be read by thermo (or use thermo option).
 writing <g98.out> molden fake output.
 recommended (thermochemical) frequency scaling factor: 1.0
           -------------------------------------------------
          |             Thermodynamic Functions             |
           -------------------------------------------------

c2v symmetry found (for desy threshold:  0.10E+00) used in thermo

          ...................................................
          :                      SETUP                      :
          :.................................................:
          :  # frequencies                           3      :
          :  # imaginary freq.                       0      :
          :  linear?                             false      :
          :  only rotor calc.                    false      :
          :  symmetry                              c2v      :
          :  rotational number                       2      :
          :  scaling factor                  1.0000000      :
          :  rotor cutoff                   50.0000000 cm⁻¹ :
          :  imag. cutoff                  -20.0000000 cm⁻¹ :
          :.................................................:

    mode    ω/cm⁻¹     T·S(HO)/kcal·mol⁻¹    T·S(FR)/kcal·mol⁻¹   T·S(vib)
   ------------------------------------------------------------------------
   ------------------------------------------------------------------------

   temp. (K)  partition function   enthalpy   heat capacity  entropy
                                   cal/mol     cal/K/mol   cal/K/mol   J/K/mol
 298.15  VIB   1.07                  125.141      1.487      0.545
         ROT  0.237E+04              888.752      2.981     18.423
         INT  0.252E+04             1013.893      4.468     18.968
         TR   0.227E+27             1481.254      4.968     36.819
         TOT                        2495.1470     9.4360    55.7873   233.4142

   temp. (K)  partition function   enthalpy   heat capacity  entropy
                                   cal/mol     cal/K/mol   cal/K/mol   J/K/mol
 120.00  VIB   1.00                    1.094      0.069      0.010
         ROT   605.                  357.707      2.981     15.710
         INT   605.                  358.801      3.050     15.720
         TR   0.579E+26              596.178      4.968     32.300
         TOT                         954.9788     8.0179    48.0204   200.9172

   temp. (K)  partition function   enthalpy   heat capacity  entropy
                                   cal/mol     cal/K/mol   cal/K/mol   J/K/mol
 100.00  VIB   1.00                    0.243      0.022      0.003
         ROT   460.                  298.089      2.981     15.167
         INT   460.                  298.332      3.003     15.169
         TR   0.441E+26              496.815      4.968     31.395
         TOT                         795.1474     7.9709    46.5639   194.8233

   temp. (K)  partition function   enthalpy   heat capacity  entropy
                                   cal/mol     cal/K/mol   cal/K/mol   J/K/mol
  80.00  VIB   1.00                    0.026      0.004      0.000
         ROT   329.                  238.471      2.981     14.501
         INT   329.                  238.497      2.985     14.502
         TR   0.315E+26              397.452      4.968     30.287
         TOT                         635.9492     7.9527    44.7883   187.3942

   temp. (K)  partition function   enthalpy   heat capacity  entropy
                                   cal/mol     cal/K/mol   cal/K/mol   J/K/mol
  60.00  VIB   1.00                    0.001      0.000     -0.000
         ROT   214.                  178.853      2.981     13.644
         INT   214.                  178.854      2.981     13.644
         TR   0.205E+26              298.089      4.968     28.858
         TOT                         476.9430     7.9492    42.5018   177.8276

   temp. (K)  partition function   enthalpy   heat capacity  entropy
                                   cal/mol     cal/K/mol   cal/K/mol   J/K/mol
  40.00  VIB   1.00                    0.000      0.000     -0.000
         ROT   116.                  119.236      2.981     12.435
         INT   116.                  119.236      2.981     12.435
         TR   0.111E+26              198.726      4.968     26.845
         TOT                         317.9616     7.9490    39.2797   164.3463

   temp. (K)  partition function   enthalpy   heat capacity  entropy
                                   cal/mol     cal/K/mol   cal/K/mol   J/K/mol
  20.00  VIB   1.00                    0.000      0.000     -0.000
         ROT   41.2                   59.618      2.981     10.369
         INT   41.2                   59.618      2.981     10.369
         TR   0.394E+25               99.363      4.968     23.403
         TOT                         158.9808     7.9490    33.7715   141.3000

   temp. (K)  partition function   enthalpy   heat capacity  entropy
                                   cal/mol     cal/K/mol   cal/K/mol   J/K/mol
  10.00  VIB   1.00                    0.000      0.000     -0.000
         ROT   14.6                   29.809      2.981      8.303
         INT   14.6                   29.809      2.981      8.303
         TR   0.139E+25               49.681      4.968     19.961
         TOT                          79.4904     7.9490    28.2633   118.2537

       T/K    H(0)-H(T)+PV         H(T)/Eh          T*S/Eh         G(T)/Eh
   ------------------------------------------------------------------------
    298.15    0.397627E-02    0.113054E-01    0.265064E-01   -0.152010E-01
    120.00    0.152186E-02    0.885096E-02    0.918304E-02   -0.332077E-03
    100.00    0.126715E-02    0.859625E-02    0.742043E-02    0.117583E-02
     80.00    0.101345E-02    0.834255E-02    0.570997E-02    0.263258E-02
     60.00    0.760057E-03    0.808916E-02    0.406386E-02    0.402530E-02
     40.00    0.506704E-03    0.783581E-02    0.250385E-02    0.533196E-02
     20.00    0.253352E-03    0.758246E-02    0.107637E-02    0.650609E-02
     10.00    0.126676E-03    0.745578E-02    0.450404E-03    0.700538E-02 (used)
   ------------------------------------------------------------------------

         :::::::::::::::::::::::::::::::::::::::::::::::::::::
         ::                  THERMODYNAMIC                  ::
         :::::::::::::::::::::::::::::::::::::::::::::::::::::
         :: total free energy          -6.775843683422 Eh   ::
         ::.................................................::
         :: total energy               -6.782849058786 Eh   ::
         :: zero point energy           0.007329103753 Eh   ::
         :: G(RRHO) w/o ZPVE           -0.000323728389 Eh   ::
         :: G(RRHO) contrib.            0.007005375364 Eh   ::
         :::::::::::::::::::::::::::::::::::::::::::::::::::::

optimized geometry written to: xtbopt.xyz


           -------------------------------------------------
          | TOTAL ENERGY               -6.782849058786 Eh   |
          | TOTAL ENTHALPY             -6.775393279018 Eh   |
          | TOTAL FREE ENERGY          -6.775843683422 Eh   |
          | GRADIENT NORM               0.000341916760 Eh/α |
          | HOMO-LUMO GAP               1.752707390994 eV   |
           -------------------------------------------------

------------------------------------------------------------------------
 * finished run on 2020/05/12 at 11:43:53.987     
------------------------------------------------------------------------
 total:
 * wall-time:     0 d,  0 h,  0 min,  0.055 sec
 *  cpu-time:     0 d,  0 h,  0 min,  0.054 sec
 * ratio c/w:     0.989 speedup
 SCF:
 * wall-time:     0 d,  0 h,  0 min,  0.002 sec
 *  cpu-time:     0 d,  0 h,  0 min,  0.002 sec
 * ratio c/w:     1.000 speedup
 ANC optimizer:
 * wall-time:     0 d,  0 h,  0 min,  0.012 sec
 *  cpu-time:     0 d,  0 h,  0 min,  0.012 sec
 * ratio c/w:     1.000 speedup
 numerical hessian:
 * wall-time:     0 d,  0 h,  0 min,  0.025 sec
 *  cpu-time:     0 d,  0 h,  0 min,  0.025 sec
 * ratio c/w:     0.998 speedup

