[Molden Format]
[Title]
[Atoms] AU
N      1     7 -0.37601622865035E-02  0.12074001968870E+01 -0.20941633379448E-05
C      2     6  0.16411332758012E+01 -0.59859099131030E+00 -0.46839233958787E-05
C      3     6 -0.16373712237789E+01 -0.60880731586066E+00  0.67780768395629E-05
[GTO]
           1 0
 s           4   1.0000000000000000     
   63.594024466941008      -0.19234388414721629     
   10.951417231523665      -0.23478107924953728     
  0.87999310257376984       0.37593753901700888     
  0.33538715296521110       0.14982889271862770     
 p           4   1.0000000000000000     
   7.2965040481495080       0.97658666315667420     
   1.8918745450712575       0.90372226730345739     
  0.66694432110824120       0.47404958461536373     
  0.26552202674130870        7.1516067715011844E-002

           2 0
 s           4   1.0000000000000000     
   51.049363095579913      -0.16312063210127389     
   8.7911227406887544      -0.19911024581000730     
  0.70640422258929825       0.31882047753655751     
  0.26922813413411617       0.12706504184240380     
 p           4   1.0000000000000000     
   5.8263656140800002       0.73716451545209605     
   1.5106896018720002       0.68216371614850257     
  0.53256483288000001       0.35783053929253711     
  0.21202323690600003        5.3983030275847881E-002

           3 0
 s           4   1.0000000000000000     
   51.049363095579913      -0.16312063210127389     
   8.7911227406887544      -0.19911024581000730     
  0.70640422258929825       0.31882047753655751     
  0.26922813413411617       0.12706504184240380     
 p           4   1.0000000000000000     
   5.8263656140800002       0.73716451545209605     
   1.5106896018720002       0.68216371614850257     
  0.53256483288000001       0.35783053929253711     
  0.21202323690600003        5.3983030275847881E-002

[MO]
Sym=     1a
Ene=  -0.73109560101648119     
Spin= Alpha
Occup=     2.00000000
           1  0.47823132961725062     
           2   7.1656159640231772E-004
           3 -0.22991197873337191     
           4   3.9855651238706615E-007
           5  0.31016703120501615     
           6 -0.15610750980119203     
           7   8.6778350260852247E-002
           8   3.9249029815695395E-007
           9  0.31016621325190685     
          10  0.15556315959713263     
          11   8.7748898593253341E-002
          12  -6.9675762998740513E-007
Sym=     2a
Ene=  -0.62639487508973168     
Spin= Alpha
Occup=     2.00000000
           1   9.2712601767036720E-007
           2  0.54640292574226523     
           3   1.7034560890890594E-003
           4  -1.9373448663186385E-006
           5  0.42758236295026658     
           6   6.1788724289719744E-002
           7  0.16518702767797472     
           8  -5.1275596415158683E-007
           9 -0.42758395887531692     
          10   6.2815317111270544E-002
          11 -0.16479738307985750     
          12   5.9001655569650476E-008
Sym=     3a
Ene=  -0.58260060690734572     
Spin= Alpha
Occup=     2.00000000
           1 -0.60590016123158674     
           2   1.4319120533518440E-003
           3 -0.45913582238466355     
           4   8.0899153375725137E-007
           5  0.26862540289568698     
           6  -7.6672356978492881E-002
           7 -0.25892071830208047     
           8   7.2848382222942519E-007
           9  0.26862252973659190     
          10   7.8284922057923506E-002
          11 -0.25843747613685669     
          12   1.8506131293547847E-007
Sym=     4a
Ene=  -0.56439341284823219     
Spin= Alpha
Occup=     2.00000000
           1  -1.5588912985770207E-008
           2  -2.4597187589166900E-006
           3  -1.2354204519649599E-006
           4 -0.70212207618760247     
           5  -1.6973985778691727E-008
           6  -1.2985956561601710E-006
           7  -6.5222092461767439E-007
           8 -0.37008211347314085     
           9   2.6661839148499016E-008
          10  -1.2946369350476233E-006
          11  -6.4522331656660052E-007
          12 -0.37008009163197553     
Sym=     5a
Ene=  -0.46513942300998357     
Spin= Alpha
Occup=     1.87321537
           1  -5.3692667119776237E-007
           2  0.35819271602883934     
           3   1.1179979463313216E-003
           4  -1.2441356556567632E-006
           5 -0.44651835511689869     
           6 -0.28609693405153802     
           7  0.39054464746100520     
           8   3.2566763815261632E-007
           9  0.44652821276713961     
          10 -0.28366703210939048     
          11 -0.39232065032130875     
          12   1.6769008662355086E-006
Sym=     6a
Ene=  -0.46147284309867564     
Spin= Alpha
Occup=     1.12678463
           1  -7.3533026161088366E-002
           2   9.3150601365097924E-004
           3 -0.29782013917251632     
           4   5.1925892951982373E-007
           5 -0.48337279329064831     
           6 -0.46920442858291755     
           7   7.2585209765006736E-002
           8   1.5061366677462671E-006
           9 -0.48336523910724538     
          10  0.46873650311758702     
          11   7.5499539701917320E-002
          12  -1.7637117991911184E-006
Sym=     7a
Ene=  -0.40229720264002361     
Spin= Alpha
Occup=     1.00000000
           1  0.31142416939983725     
           2  -1.7005233678946371E-003
           3  0.54604094342024145     
           4  -9.5796716634488819E-007
           5   3.5217923290401285E-002
           6 -0.27103300417974441     
           7 -0.50716683685792352     
           8   1.8374953725732081E-006
           9   3.5218153339082348E-002
          10  0.27418759665525655     
          11 -0.50546931190624989     
          12  -7.2792072399202569E-008
Sym=     8a
Ene=  -0.35053694233200111     
Spin= Alpha
Occup=     1.00000000
           1   3.7722838869257819E-009
           2   7.1965502231595968E-009
           3   4.3789749161343584E-011
           4   6.5844985477515322E-007
           5  -3.1044280197659592E-010
           6  -2.5962717282224833E-006
           7  -1.3024736573444818E-006
           8 -0.74306238003867398     
           9   3.9432518540249303E-009
          10   2.5840055786447795E-006
          11   1.2946733729407502E-006
          12  0.74306453639029768     
Sym=     9a
Ene=  -0.28612613090973993     
Spin= Alpha
Occup=     0.00000000
           1   9.4514107181889537E-011
           2  -2.6725754362382033E-006
           3  -1.3434426343502856E-006
           4 -0.76509157249182802     
           5  -3.9464617622892356E-009
           6   2.0825121395063280E-006
           7   1.0438909916097796E-006
           8  0.59639481245200832     
           9  -1.5802311567152939E-009
          10   2.0759308933361790E-006
          11   1.0500915923164455E-006
          12  0.59639311945964790     
Sym=    10a
Ene=  -0.21204919295045779     
Spin= Alpha
Occup=     0.00000000
           1   3.2466172417274666E-007
           2  0.31117146148464175     
           3   9.7008246725902405E-004
           4  -1.0836186517567470E-006
           5  0.15856064015719823     
           6 -0.65109075700523156     
           7 -0.46468954454930966     
           8   3.0899030059455167E-006
           9 -0.15856073975539861     
          10 -0.65397419378296928     
          11  0.46062292712231157     
          12   1.4693535203747952E-006
Sym=    11a
Ene=   0.26582932455322489     
Spin= Alpha
Occup=     0.00000000
           1   1.5120076021839381E-005
           2 -0.94406423462245292     
           3  -2.9555854698218218E-003
           4   3.2975673620468612E-006
           5  0.56276228621706592     
           6 -0.48583889160392080     
           7  0.52424194734374152     
           8   7.7591256537713084E-007
           9 -0.56277648172927630     
          10 -0.48257877332170901     
          11 -0.52727634420291358     
          12   2.6067550208789276E-006
Sym=    12a
Ene=   0.38518120913284293     
Spin= Alpha
Occup=     0.00000000
           1  0.96591825685593791     
           2   2.7028247769635468E-003
           3 -0.86210283787470654     
           4   1.4964130621246220E-006
           5 -0.45262226916153070     
           6  0.45182280549158926     
           7 -0.50264168649531193     
           8  -7.0110034779723867E-007
           9 -0.45260081712226358     
          10 -0.44866434266966326     
          11 -0.50542828012478513     
          12   2.4420706270644166E-006
