 Entering Gaussian System
 *********************************************
 Gaussian 98:
 frequency output generated by the xtb code
 *********************************************
                         Standard orientation:
 --------------------------------------------------------------------
  Center     Atomic     Atomic              Coordinates (Angstroms)
  Number     Number      Type              X           Y           Z
 --------------------------------------------------------------------
    1          7             0       -0.001990    0.638929   -0.000001
    2          6             0        0.868450   -0.316761   -0.000002
    3          6             0       -0.866460   -0.322167    0.000004
 --------------------------------------------------------------------
     1 basis functions        1 primitive gaussians
     1 alpha electrons        1 beta electrons

 Harmonic frequencies (cm**-1), IR intensities (KM/Mole),
 Raman scattering activities (A**4/amu), Raman depolarization ratios,
 reduced masses (AMU), force constants (mDyne/A) and normal coordinates:
                      1                      2                      3
                        a                      a                      a 
 Frequencies --   619.1127               935.4631              1662.5289
 Red. masses --    12.3746                12.8805                12.9077
 Frc consts  --     0.0000                 0.0000                 0.0000
 IR Inten    --     0.4750                 4.6531                 0.0839
 Raman Activ --     0.0000                 0.0000                 0.0000
 Depolar     --     0.0000                 0.0000                 0.0000
 Atom AN      X      Y      Z        X      Y      Z        X      Y      Z
   1   7     0.00  -0.43   0.00     0.66   0.00  -0.00    -0.00   0.67  -0.00
   2   6     0.60   0.23  -0.00    -0.36   0.39   0.00     0.38  -0.36  -0.00
   3   6    -0.60   0.23   0.00    -0.36  -0.39   0.00    -0.38  -0.36   0.00
