$hessian                                                                        
        0.4606694913  -0.1744005150   0.0191280109  -0.0805216377   0.1032945308
        0.0533917392  -0.0572964073   0.0647851004   0.0602401917  -0.3296413446
        0.0198185190  -0.1254901121   0.0067898982  -0.0134976352  -0.0072698297
       -0.1744005150   0.3537864339   0.0687459046   0.0332584876  -0.3108818169
       -0.0424424011   0.0570538801   0.0229628612  -0.0257116700   0.0768431145
       -0.0456758356   0.0104089189   0.0072450328  -0.0201916426  -0.0110007523
        0.0191280109   0.0687459046   0.0900921435  -0.0017391302  -0.0646032995
       -0.0267810290   0.0544008104  -0.0096885363   0.0231948118  -0.0693671069
        0.0041166846  -0.0802956023  -0.0024225841   0.0014292467  -0.0062103241
       -0.0805216377   0.0332584876  -0.0017391302   0.4303639199   0.2839259804
       -0.0981286100  -0.2631101068  -0.1056040614   0.1268039283   0.0128810637
       -0.0794332546  -0.0564273827  -0.0996132390  -0.1321471521   0.0294911946
        0.1032945308  -0.3108818169  -0.0646032995   0.2839259804   0.7061501922
       -0.0086124592  -0.1753672763  -0.1169168940   0.0697360914  -0.0808106689
       -0.0237513203  -0.0427065547  -0.1310425660  -0.2546001610   0.0461862221
        0.0533917392  -0.0424424011  -0.0267810290  -0.0981286100  -0.0086124592
        0.1467602943   0.0923323228   0.0481787257  -0.0699988326  -0.0700057403
       -0.0341341627  -0.0158597403   0.0224102884   0.0370102973  -0.0341206925
       -0.0572964073   0.0570538801   0.0544008104  -0.2631101068  -0.1753672763
        0.0923323228   0.3445479616   0.0880346879  -0.1729001247  -0.0122285852
        0.0292319594   0.0287472485  -0.0119128623   0.0010467489  -0.0025802570
        0.0647851004   0.0229628612  -0.0096885363  -0.1056040614  -0.1169168940
        0.0481787257   0.0880346879   0.1443575968   0.0366343857  -0.0277556267
       -0.0484687107  -0.0809231876  -0.0194601002  -0.0019348533   0.0057986125
        0.0602401917  -0.0257116700   0.0231948118   0.1268039283   0.0697360914
       -0.0699988326  -0.1729001247   0.0366343857   0.2814502394  -0.0113009336
       -0.0813415946  -0.2339638078  -0.0028430617   0.0006827875  -0.0006824110
       -0.3296413446   0.0768431145  -0.0693671069   0.0128810637  -0.0808106689
       -0.0700057403  -0.0122285852  -0.0277556267  -0.0113009336   0.3305213789
        0.0288637565   0.1418480070  -0.0015325128   0.0028594246   0.0088257739
        0.0198185190  -0.0456758356   0.0041166846  -0.0794332546  -0.0237513203
       -0.0341341627   0.0292319594  -0.0484687107  -0.0813415946   0.0288637565
        0.1192894875   0.1147434163   0.0015190196  -0.0013936209  -0.0033843436
       -0.1254901121   0.0104089189  -0.0802956023  -0.0564273827  -0.0427065547
       -0.0158597403   0.0287472485  -0.0809231876  -0.2339638078   0.1418480070
        0.1147434163   0.3160092063   0.0113222393  -0.0015225928   0.0141099440
        0.0067898982   0.0072450328  -0.0024225841  -0.0996132390  -0.1310425660
        0.0224102884  -0.0119128623  -0.0194601002  -0.0028430617  -0.0015325128
        0.0015190196   0.0113222393   0.1062687159   0.1417386138  -0.0284668818
       -0.0134976352  -0.0201916426   0.0014292467  -0.1321471521  -0.2546001610
        0.0370102973   0.0010467489  -0.0019348533   0.0006827875   0.0028594246
       -0.0013936209  -0.0015225928   0.1417386138   0.2781202778  -0.0375997387
       -0.0072698297  -0.0110007523  -0.0062103241   0.0294911946   0.0461862221
       -0.0341206925  -0.0025802570   0.0057986125  -0.0006824110   0.0088257739
       -0.0033843436   0.0141099440  -0.0284668818  -0.0375997387   0.0269034835
