 Entering Gaussian System
 *********************************************
 Gaussian 98:
 frequency output generated by the xtb code
 *********************************************
                         Standard orientation:
 --------------------------------------------------------------------
  Center     Atomic     Atomic              Coordinates (Angstroms)
  Number     Number      Type              X           Y           Z
 --------------------------------------------------------------------
    1          7             0        0.549674   -0.850548   -0.224302
    2          6             0        0.278028    0.427734    0.192460
    3          6             0       -0.902594   -0.136286    0.636052
    4          6             0       -0.723804   -0.784451   -0.640197
    5          1             0        0.798696    1.343550    0.035988
 --------------------------------------------------------------------
     1 basis functions        1 primitive gaussians
     1 alpha electrons        1 beta electrons

 Harmonic frequencies (cm**-1), IR intensities (KM/Mole),
 Raman scattering activities (A**4/amu), Raman depolarization ratios,
 reduced masses (AMU), force constants (mDyne/A) and normal coordinates:
                      1                      2                      3
                        a                      a                      a 
 Frequencies --   587.4427               635.0352               762.2065
 Red. masses --    11.8785                 7.6108                 9.2625
 Frc consts  --     0.0000                 0.0000                 0.0000
 IR Inten    --     0.2731                 0.2663                 0.1953
 Raman Activ --     0.0000                 0.0000                 0.0000
 Depolar     --     0.0000                 0.0000                 0.0000
 Atom AN      X      Y      Z        X      Y      Z        X      Y      Z
   1   7     0.10   0.13  -0.47     0.23  -0.18  -0.22     0.08  -0.19  -0.14
   2   6     0.11  -0.05   0.39    -0.05  -0.27   0.10    -0.46  -0.04  -0.29
   3   6    -0.23   0.41  -0.15    -0.36   0.15   0.13    -0.09   0.23   0.41
   4   6    -0.02  -0.49   0.21     0.26   0.30   0.16     0.37   0.07  -0.07
   5   1     0.11  -0.04   0.21    -0.37   0.04  -0.53     0.32  -0.19   0.35
                      4                      5                      6
                        a                      a                      a 
 Frequencies --   813.2980               954.0582              1181.7515
 Red. masses --    10.4770                 3.6277                12.1278
 Frc consts  --     0.0000                 0.0000                 0.0000
 IR Inten    --     0.5374                 0.0514                 0.7615
 Raman Activ --     0.0000                 0.0000                 0.0000
 Depolar     --     0.0000                 0.0000                 0.0000
 Atom AN      X      Y      Z        X      Y      Z        X      Y      Z
   1   7    -0.41  -0.17  -0.08    -0.09  -0.31  -0.03    -0.02   0.42   0.18
   2   6    -0.14   0.33   0.38    -0.01   0.03  -0.03     0.18  -0.43  -0.08
   3   6     0.28   0.09   0.14     0.22   0.22   0.02    -0.04   0.22   0.41
   4   6     0.30  -0.22  -0.32     0.06  -0.04  -0.08    -0.08  -0.24  -0.50
   5   1     0.05  -0.04  -0.42    -0.63   0.44   0.44    -0.15  -0.02  -0.07
                      7                      8                      9
                        a                      a                      a 
 Frequencies --  1335.8131              1505.7876              3216.0236
 Red. masses --    12.1971                12.0976                 1.9686
 Frc consts  --     0.0000                 0.0000                 0.0000
 IR Inten    --     1.1101                 0.3370                 0.0831
 Raman Activ --     0.0000                 0.0000                 0.0000
 Depolar     --     0.0000                 0.0000                 0.0000
 Atom AN      X      Y      Z        X      Y      Z        X      Y      Z
   1   7    -0.49   0.12  -0.08    -0.36   0.33   0.01     0.01  -0.01  -0.00
   2   6     0.46   0.10  -0.23    -0.26  -0.48   0.00     0.15   0.25  -0.04
   3   6    -0.38  -0.22   0.13     0.38   0.07  -0.32    -0.02  -0.00   0.01
   4   6     0.44  -0.04   0.16     0.30   0.10   0.29    -0.00  -0.00  -0.01
   5   1     0.01   0.13   0.11    -0.09  -0.16   0.03    -0.47  -0.82   0.13
