[Molden Format]
[Title]
[Atoms] AU
N      1     7  0.10387326687480E+01 -0.16073016970366E+01 -0.42386969124448E+00
C      2     6  0.52539697186960E+00  0.80829932219650E+00  0.36369654555362E+00
C      3     6 -0.17056544184077E+01 -0.25754399780986E+00  0.12019641160252E+01
C      4     6 -0.13677914460117E+01 -0.14823967857508E+01 -0.12097977936840E+01
H      5     1  0.15093162237919E+01  0.25389412686748E+01  0.68006823352949E-01
[GTO]
           1 0
 s           4   1.0000000000000000     
   63.594024466941008      -0.19234388414721629     
   10.951417231523665      -0.23478107924953728     
  0.87999310257376984       0.37593753901700888     
  0.33538715296521110       0.14982889271862770     
 p           4   1.0000000000000000     
   7.2965040481495080       0.97658666315667420     
   1.8918745450712575       0.90372226730345739     
  0.66694432110824120       0.47404958461536373     
  0.26552202674130870        7.1516067715011844E-002

           2 0
 s           4   1.0000000000000000     
   51.049363095579913      -0.16312063210127389     
   8.7911227406887544      -0.19911024581000730     
  0.70640422258929825       0.31882047753655751     
  0.26922813413411617       0.12706504184240380     
 p           4   1.0000000000000000     
   5.8263656140800002       0.73716451545209605     
   1.5106896018720002       0.68216371614850257     
  0.53256483288000001       0.35783053929253711     
  0.21202323690600003        5.3983030275847881E-002

           3 0
 s           4   1.0000000000000000     
   51.049363095579913      -0.16312063210127389     
   8.7911227406887544      -0.19911024581000730     
  0.70640422258929825       0.31882047753655751     
  0.26922813413411617       0.12706504184240380     
 p           4   1.0000000000000000     
   5.8263656140800002       0.73716451545209605     
   1.5106896018720002       0.68216371614850257     
  0.53256483288000001       0.35783053929253711     
  0.21202323690600003        5.3983030275847881E-002

           4 0
 s           4   1.0000000000000000     
   51.049363095579913      -0.16312063210127389     
   8.7911227406887544      -0.19911024581000730     
  0.70640422258929825       0.31882047753655751     
  0.26922813413411617       0.12706504184240380     
 p           4   1.0000000000000000     
   5.8263656140800002       0.73716451545209605     
   1.5106896018720002       0.68216371614850257     
  0.53256483288000001       0.35783053929253711     
  0.21202323690600003        5.3983030275847881E-002

           5 0
 s           3   1.0000000000000000     
   3.3702276975336001       0.27359110588908298     
  0.61389118221497996       0.26460540653860526     
  0.16614291148415999        8.2465947534082318E-002

[MO]
Sym=     1a
Ene=  -0.74917411710328796     
Spin= Alpha
Occup=     2.00000000
           1  0.31575200448128027     
           2 -0.17295117560075990     
           3  0.14644928573320790     
           4   4.6964387669336860E-002
           5  0.31441300028177416     
           6  -7.7689292169816432E-002
           7 -0.15592552710249402     
           8  -3.3815366817741298E-002
           9  0.26636013186712160     
          10  0.10169857924803367     
          11  -1.7717166375167924E-002
          12  -8.5716330520315923E-002
          13  0.27088806007213340     
          14   8.9397341539912703E-002
          15   6.3067704485951143E-002
          16   9.1962920338154619E-002
          17   3.3721480221227243E-002
Sym=     2a
Ene=  -0.64172108700801633     
Spin= Alpha
Occup=     2.00000000
           1 -0.14835947779139133     
           2  0.20700974569016661     
           3  0.21668558362078918     
           4  0.15321952362459526     
           5  0.46854132512070390     
           6   8.0436052267674571E-002
           7  0.11168570448282991     
           8   8.6170186663513296E-002
           9   5.3612797932672485E-002
          10  0.10514049944581631     
          11  0.16246207610881419     
          12   7.7989261648620176E-002
          13 -0.35918408250583567     
          14  -7.1741850635326815E-002
          15   9.8362357221061056E-002
          16  -1.5745174717892736E-002
          17  0.26254725743219953     
Sym=     3a
Ene=  -0.63478155754412890     
Spin= Alpha
Occup=     2.00000000
           1 -0.45973666281357461     
           2 -0.10430245829319101     
           3 -0.12891002050422687     
           4  0.12050778447557385     
           5  -5.2156150457520749E-002
           6 -0.31255505439849995     
           7   9.8689504683363891E-002
           8  0.18307592220401489     
           9  0.46779954388313327     
          10  -2.0945586453477584E-002
          11   3.7481406315844075E-002
          12  -4.1723408201235990E-002
          13   7.4534275762330571E-002
          14 -0.20633507233357382     
          15   6.2438719475778719E-002
          16  0.13555390395736183     
          17  -6.5848440065641403E-002
Sym=     4a
Ene=  -0.59142337591520266     
Spin= Alpha
Occup=     2.00000000
           1  0.21220332831140704     
           2  0.10736290031319877     
           3  -1.3729247653178418E-003
           4  0.39316809411504894     
           5 -0.11454619178026985     
           6   5.5853575831418187E-002
           7 -0.35109171357838687     
           8  0.26055379168139187     
           9   8.4547389115825961E-002
          10  0.12899284172255013     
          11  -8.7468039962475375E-002
          12  0.17580807241119173     
          13 -0.33814415013494775     
          14  -2.1784892966367438E-003
          15  -8.2683362701609295E-002
          16  0.14194770762562980     
          17 -0.27629493083644330     
Sym=     5a
Ene=  -0.54296409381296262     
Spin= Alpha
Occup=     2.00000000
           1  0.19317945529362265     
           2 -0.17153479260369223     
           3 -0.47026405077502026     
           4   7.9281616373340330E-002
           5   8.7046970959616041E-002
           6   6.8844417249119133E-002
           7  0.28270946492881904     
           8  0.29256896014666300     
           9   2.7081714020141250E-002
          10  0.10240860137387997     
          11  -6.6695399427561627E-002
          12  0.16379488004975012     
          13   6.7920628219328497E-002
          14  0.13327270036891659     
          15 -0.35432204082882240     
          16   7.6637794624137612E-002
          17  0.28808161075381666     
Sym=     6a
Ene=  -0.52420847017920702     
Spin= Alpha
Occup=     2.00000000
           1   6.2136773530958901E-002
           2  -7.9738189996402212E-002
           3  -7.5649330086801095E-002
           4 -0.29381052808206204     
           5   2.1946448011524882E-002
           6 -0.38950553074452265     
           7   1.7532365651835948E-003
           8   8.7064670828179758E-002
           9  -1.4134530874279348E-002
          10  0.21999559660895349     
          11  0.39664781961532874     
          12  0.15420414924545947     
          13 -0.22876551060106112     
          14  0.35193137396512786     
          15   6.3176746890262939E-002
          16 -0.20639823110998021     
          17 -0.19638094621749594     
Sym=     7a
Ene=  -0.48484218231267073     
Spin= Alpha
Occup=     2.00000000
           1  0.48731820080653981     
           2  0.50537469818509062     
           3 -0.18843032882691443     
           4 -0.24511559714499812     
           5  -6.7122948356710094E-002
           6  -2.1539596261370211E-002
           7   6.0999970420492336E-002
           8  -4.8512709336557200E-002
           9  0.47691369514426302     
          10 -0.36486519352511509     
          11  0.12279896068460057     
          12   9.3288428877691301E-002
          13  -6.4702045614441997E-002
          14  -9.6057800753112793E-002
          15   6.2979704033733291E-002
          16   3.6713967703059819E-002
          17   2.4442342813834544E-002
Sym=     8a
Ene=  -0.43857918911476657     
Spin= Alpha
Occup=     2.00000000
           1  -2.4912356603864066E-002
           2 -0.23521889423848324     
           3  -4.0804958714218027E-002
           4  -1.7034911410451246E-002
           5 -0.10679309477061318     
           6  -7.1886867518769867E-002
           7  0.13442988079883067     
           8 -0.37837360124376845     
           9   7.7480363615059597E-002
          10 -0.13783264403057505     
          11 -0.16674589703590662     
          12  -2.1445370660934871E-002
          13 -0.55956563889883670     
          14  0.33681778411881913     
          15  0.13128273811694174     
          16  0.51835046066735935     
          17  0.10398307306626248     
Sym=     9a
Ene=  -0.43173148999361982     
Spin= Alpha
Occup=     2.00000000
           1 -0.26640022556714965     
           2 -0.20570195058813948     
           3  0.37843975481321201     
           4 -0.33717988131428228     
           5  -1.7088804670554385E-002
           6  0.23925029242454759     
           7 -0.10712589858871996     
           8   8.0143751588137468E-002
           9  0.39350044670674922     
          10 -0.15864588166315230     
          11 -0.19351172908399505     
          12  0.53662295240297186     
          13   4.3078471230215264E-002
          14  0.13645130761628138     
          15 -0.15955724331518126     
          16 -0.10403333958452353     
          17   1.7276442843693098E-002
Sym=    10a
Ene=  -0.31534721882386280     
Spin= Alpha
Occup=     0.00000000
           1  -6.9574910042915147E-002
           2  0.34197590216786339     
           3   9.8147636883054196E-002
           4 -0.66861092573821446     
           5   7.0135761405546310E-002
           6  -4.7417328544839592E-002
           7   2.6199990376680679E-002
           8  0.28285440755415281     
           9 -0.10157451035629540     
          10  0.44263703333052729     
          11 -0.35669452806599727     
          12 -0.21687092176099762     
          13  -7.8899119926654715E-002
          14 -0.11832756799790391     
          15 -0.10848793811611636     
          16  0.36226587099335500     
          17  -6.6486478443244998E-002
Sym=    11a
Ene=  -0.28125202816675893     
Spin= Alpha
Occup=     0.00000000
           1  -3.3856870957194939E-002
           2 -0.14750409320896410     
           3  0.25127240668047368     
           4 -0.11407178404020160     
           5  0.12080603643105040     
           6  0.14526404487250247     
           7 -0.10600500234076932     
           8  0.18574180220266162     
           9  -8.2337825553270211E-002
          10 -0.37810240052945299     
          11  0.57163374572843106     
          12 -0.35183789619498212     
          13  -7.3190337812935574E-002
          14  -1.1214126828104187E-002
          15 -0.58385160458818774     
          16  0.33756135990090547     
          17 -0.13999911573188006     
Sym=    12a
Ene=  -0.27707712932236372     
Spin= Alpha
Occup=     0.00000000
           1  -1.0898473010862539E-002
           2  0.18765591380124308     
           3   9.7989371367785613E-002
           4  0.12339796533795445     
           5  0.12650707746897089     
           6 -0.40914632918668514     
           7   3.5311721040146196E-002
           8 -0.67115290418628470     
           9   3.2689114260525114E-002
          10  0.23605684737761201     
          11  -3.6822956740700949E-002
          12  0.24931748669628617     
          13   2.0325385823693455E-002
          14 -0.24714964639726009     
          15 -0.64148709271209781     
          16  -2.3812231673083968E-003
          17  -5.9282485021551680E-002
Sym=    13a
Ene=    5.7943390117632797E-002
Spin= Alpha
Occup=     0.00000000
           1 -0.14704412413726689     
           2  0.23347156184726284     
           3   3.1978849299531001E-002
           4  0.17521106990055216     
           5  0.65341939771601498     
           6 -0.24310676914843796     
           7  0.26731143877878305     
           8  0.16543341266143699     
           9   5.8960096768366235E-002
          10 -0.45558081178670229     
          11 -0.58871247298138607     
          12 -0.37819363178566345     
          13 -0.15937862215384130     
          14  0.49299981017947786     
          15 -0.23277214835694779     
          16 -0.43169759065870178     
          17 -0.49231024650668576     
Sym=    14a
Ene=    7.6371307535298846E-002
Spin= Alpha
Occup=     0.00000000
           1 -0.28260113569554179     
           2 -0.20291685685956190     
           3 -0.72557298685557781     
           4 -0.26928494366466349     
           5  0.78951498528748421     
           6  0.53447656111111930     
           7 -0.26387808510200567     
           8 -0.35744104651551589     
           9   6.4480718099767395E-002
          10   6.7730021368667126E-002
          11   9.2479537501743508E-002
          12   8.8235295807895006E-002
          13 -0.12299995447689079     
          14 -0.26361149595991934     
          15  0.11841176309952217     
          16   2.5660075680631042E-002
          17 -0.56033619438644566     
Sym=    15a
Ene=   0.12415146732284597     
Spin= Alpha
Occup=     0.00000000
           1  0.55465677975626371     
           2 -0.36680865122999479     
           3  0.28021192921579069     
           4  -4.3578369636122917E-002
           5  0.37518017999106690     
           6 -0.28499343587682785     
           7  0.55094111483549424     
           8  0.20979133581349479     
           9 -0.53788986082485801     
          10 -0.28447976576332273     
          11  -8.8346313084786882E-002
          12  0.49120405754882640     
          13   4.6844333982672064E-002
          14 -0.50740031330642987     
          15  0.27441699659755758     
          16  0.27810354265444970     
          17 -0.48630414525591148     
Sym=    16a
Ene=   0.26793200565299263     
Spin= Alpha
Occup=     0.00000000
           1  0.36706730493289419     
           2 -0.56840410092043869     
           3  -8.2649340909660821E-002
           4 -0.27912271546415551     
           5  -2.8191872941300902E-002
           6 -0.35451284880208744     
           7 -0.48472948858113657     
           8  0.10697023329849098     
           9   6.3190310437313407E-002
          10 -0.18050429320526568     
          11 -0.30247097202003742     
          12 -0.30979545968304734     
          13 -0.76303826293420574     
          14 -0.59168110384257044     
          15 -0.14630609579824166     
          16 -0.53878256892357801     
          17  0.51970208816898678     
Sym=    17a
Ene=   0.59821867513804416     
Spin= Alpha
Occup=     0.00000000
           1  0.44843425577371415     
           2 -0.32664778262351091     
           3  0.31271131582904316     
           4   6.8069546239555800E-002
           5 -0.36486195337264538     
           6  0.63006734616662963     
           7  0.87679454857729289     
           8 -0.16177565884234585     
           9  0.72388479551577778     
          10  0.58181148970493590     
          11   8.0247236824540311E-002
          12 -0.44281853546351496     
          13 -0.36895640754099579     
          14 -0.18323204945352251     
          15 -0.10026110199335361     
          16 -0.36685552188386844     
          17 -0.59101389924037784     
