3
 energy: -6.365755199288 gnorm: 0.059840314150 xtb: 6.2.2 (9d81278992624c895f80dd42a50cac0aa55982e2)
O        -0.19814600000000    0.45684900000000    0.00000000000000
C         1.04781300000000   -0.16796100000000    0.00000000000000
H        -0.84966700000000   -0.28888800000000    0.00000000000000
3
 energy: -6.368196774927 gnorm: 0.025111560912 xtb: 6.2.2 (9d81278992624c895f80dd42a50cac0aa55982e2)
O        -0.18595144827324    0.43292831742540    0.00000000000000
C         1.04246159620524   -0.15529597784111   -0.00000000000000
H        -0.85651014793201   -0.27763233958430    0.00000000000000
3
 energy: -6.368864656886 gnorm: 0.004780490343 xtb: 6.2.2 (9d81278992624c895f80dd42a50cac0aa55982e2)
O        -0.17396627703686    0.40904172733959    0.00000000000000
C         1.04635507332039   -0.14213577208995   -0.00000000000000
H        -0.87238879628353   -0.26690595524964    0.00000000000000
3
 energy: -6.368897048051 gnorm: 0.001065161319 xtb: 6.2.2 (9d81278992624c895f80dd42a50cac0aa55982e2)
O        -0.17345589776892    0.40614232801995    0.00000000000000
C         1.05141364957418   -0.14061725980054   -0.00000000000000
H        -0.87795775180525   -0.26552506821941    0.00000000000000
3
 energy: -6.368898600895 gnorm: 0.000521980851 xtb: 6.2.2 (9d81278992624c895f80dd42a50cac0aa55982e2)
O        -0.17303687042408    0.40457240381940    0.00000000000000
C         1.05387668867491   -0.13975655470249   -0.00000000000000
H        -0.88083981825082   -0.26481584911691    0.00000000000000
