 Entering Gaussian System
 *********************************************
 Gaussian 98:
 frequency output generated by the xtb code
 *********************************************
                         Standard orientation:
 --------------------------------------------------------------------
  Center     Atomic     Atomic              Coordinates (Angstroms)
  Number     Number      Type              X           Y           Z
 --------------------------------------------------------------------
    1          8             0       -0.173035    0.404573   -0.000000
    2          6             0        1.053876   -0.139762   -0.000003
    3          1             0       -0.880841   -0.264811    0.000004
 --------------------------------------------------------------------
     1 basis functions        1 primitive gaussians
     1 alpha electrons        1 beta electrons

 Harmonic frequencies (cm**-1), IR intensities (KM/Mole),
 Raman scattering activities (A**4/amu), Raman depolarization ratios,
 reduced masses (AMU), force constants (mDyne/A) and normal coordinates:
                      1                      2                      3
                        a                      a                      a 
 Frequencies --  1126.7688              1350.2907              3253.9054
 Red. masses --     3.2790                13.1500                 1.8590
 Frc consts  --     0.0000                 0.0000                 0.0000
 IR Inten    --     0.5220                 0.6173                 0.1508
 Raman Activ --     0.0000                 0.0000                 0.0000
 Depolar     --     0.0000                 0.0000                 0.0000
 Atom AN      X      Y      Z        X      Y      Z        X      Y      Z
   1   8     0.13  -0.33   0.00     0.58  -0.21  -0.00     0.15   0.18  -0.00
   2   6     0.04   0.19  -0.00    -0.71   0.27   0.00     0.02  -0.01  -0.00
   3   1    -0.66   0.63   0.00     0.15  -0.11  -0.00    -0.70  -0.67   0.00
