$hessian                                                                        
        0.5387710911   0.0106278990  -0.0000018992  -0.3716815496   0.1584955600
        0.0000010208  -0.1670895415  -0.1691234590   0.0000008784
        0.0106278990   0.3370051987  -0.0000006253   0.1589818301  -0.1093388543
       -0.0000003641  -0.1696097291  -0.2276663444   0.0000009894
       -0.0000018992  -0.0000006253   0.0000000000   0.0000010199  -0.0000003624
       -0.0000000000   0.0000008793   0.0000009877  -0.0000000000
       -0.3716815496   0.1589818301   0.0000010199   0.4255776555  -0.1592522808
       -0.0000012076  -0.0538961059   0.0002704507   0.0000001877
        0.1584955600  -0.1093388543  -0.0000003624  -0.1592522808   0.0845451024
        0.0000004083   0.0007567208   0.0247937519  -0.0000000459
        0.0000010208  -0.0000003641  -0.0000000000  -0.0000012076   0.0000004083
        0.0000000000   0.0000001868  -0.0000000442  -0.0000000000
       -0.1670895415  -0.1696097291   0.0000008793  -0.0538961059   0.0007567208
        0.0000001868   0.2209856474   0.1688530083  -0.0000010661
       -0.1691234590  -0.2276663444   0.0000009877   0.0002704507   0.0247937519
       -0.0000000442   0.1688530083   0.2028725925  -0.0000009435
        0.0000008784   0.0000009894  -0.0000000000   0.0000001877  -0.0000000459
       -0.0000000000  -0.0000010661  -0.0000009435   0.0000000000
