[Molden Format]
[Title]
[Atoms] AU
O      1     8 -0.32698826114896E+00  0.76453268198292E+00 -0.19293993789385E-06
C      2     6  0.19915367430779E+01 -0.26411201567089E+00 -0.64908352683114E-05
H      3     1 -0.16645484819289E+01 -0.50042066631204E+00  0.66837752062045E-05
[GTO]
           1 0
 s           4   1.0000000000000000     
   69.137961906196551      -0.20478756370077797     
   11.906129132707308      -0.24997023136827334     
  0.95670827744340703       0.40025880240639616     
  0.36462520496073686       0.15952206667693555     
 p           4   1.0000000000000000     
   8.2124193257781641        1.1321556799186829     
   2.1293576997098116        1.0476840782254817     
  0.75066448202360914       0.54956508217158984     
  0.29885246543283073        8.2908486592766617E-002

           2 0
 s           4   1.0000000000000000     
   51.049363095579913      -0.16312063210127389     
   8.7911227406887544      -0.19911024581000730     
  0.70640422258929825       0.31882047753655751     
  0.26922813413411617       0.12706504184240380     
 p           4   1.0000000000000000     
   5.8263656140800002       0.73716451545209605     
   1.5106896018720002       0.68216371614850257     
  0.53256483288000001       0.35783053929253711     
  0.21202323690600003        5.3983030275847881E-002

           3 0
 s           3   1.0000000000000000     
   3.3702276975336001       0.27359110588908298     
  0.61389118221497996       0.26460540653860526     
  0.16614291148415999        8.2465947534082318E-002

[MO]
Sym=     1a
Ene=  -0.72420070880330689     
Spin= Alpha
Occup=     2.00000000
           1  0.78668960992823789     
           2   3.3242444545433722E-002
           3  -8.4659576655658139E-002
           4   3.7790437585012311E-008
           5  0.17701492537662711     
           6 -0.15147254689819833     
           7   5.4495082948872398E-002
           8   4.3457777274855937E-007
           9  0.16400777037696906     
Sym=     2a
Ene=  -0.63255234550354911     
Spin= Alpha
Occup=     2.00000000
           1   5.7262499554890288E-002
           2 -0.65513511548525949     
           3 -0.10686064237053576     
           4   2.4737985685077359E-006
           5 -0.34994909803097946     
           6  0.11706946424652502     
           7 -0.13814527268207039     
           8  -1.6765481930254424E-007
           9  0.32840488110450938     
Sym=     3a
Ene=  -0.56966011049641407     
Spin= Alpha
Occup=     2.00000000
           1 -0.39879132002101592     
           2   9.3760500822142823E-002
           3 -0.76300716287925818     
           4   9.9648067221553335E-007
           5  0.28260536729394931     
           6 -0.11326684443267619     
           7 -0.18069546095161584     
           8   7.0828143319386736E-007
           9  0.19621528238644678     
Sym=     4a
Ene=  -0.52706296604415970     
Spin= Alpha
Occup=     2.00000000
           1  -7.3027961866977087E-009
           2   3.0926771797404025E-006
           3   1.5386892346143643E-006
           4  0.88560133972157973     
           5  -4.0524785523379930E-012
           6   1.1911139869376001E-006
           7   5.9334230865361970E-007
           8  0.34128099224765812     
           9  -4.7364110799949121E-010
Sym=     5a
Ene=  -0.42443050481094030     
Spin= Alpha
Occup=     1.00000000
           1  -4.8304411745095427E-003
           2 -0.22449548481706483     
           3  0.22578918735887768     
           4   3.9177268626655499E-007
           5  0.76088047742686338     
           6  0.55369932999834925     
           7 -0.16857277665823328     
           8  -1.6400607143712926E-006
           9   7.8527683751645219E-002
Sym=     6a
Ene=  -0.30681367450452995     
Spin= Alpha
Occup=     1.00000000
           1  0.17149767887972556     
           2   1.1349241722285778E-003
           3  0.25510782458455916     
           4  -4.4751265758804459E-007
           5   2.7685989583613069E-002
           6 -0.35263894096361403     
           7 -0.91095468642712185     
           8   2.8165815250685996E-006
           9 -0.25022476861173676     
Sym=     7a
Ene=  -0.28201008171461994     
Spin= Alpha
Occup=     1.00000000
           1   1.6438377123832007E-009
           2  -1.7224120072351948E-006
           3  -8.5897944861203937E-007
           4 -0.49336479563362740     
           5   1.5575070124379871E-009
           6   3.3316969552327256E-006
           7   1.6618093299951254E-006
           8  0.95458149930622727     
           9  -1.2843308521691093E-010
Sym=     8a
Ene=    7.4558198609108256E-002
Spin= Alpha
Occup=     0.00000000
           1 -0.78945369223860595     
           2  0.18100545752159189     
           3  0.67739291890346554     
           4  -1.8129344264248973E-006
           5  0.20827983031571767     
           6 -0.47189675892913829     
           7   6.7145989604790499E-002
           8   1.5300107740469539E-006
           9  0.98809369124501523     
Sym=     9a
Ene=   0.24865363297819995     
Spin= Alpha
Occup=     0.00000000
           1  0.22698236827230378     
           2  0.94426321460972062     
           3  -2.1418568410249788E-002
           4  -3.2589316859374168E-006
           5 -0.58933788846686286     
           6  0.76049190294381419     
           7 -0.39898268465973707     
           8  -1.9587255054917391E-006
           9  0.59526797589054548     
