[Molden Format]
[Title]
[Atoms] AU
O      1     8  0.28874527251121E+01 -0.71458726496499E-01  0.32246640047850E-01
C      2     6  0.66659660606222E+00 -0.16489626322090E-01  0.69808229325148E-02
C      3     6 -0.18079602989479E+01 -0.12102060015623E+01 -0.28322480000193E-01
C      4     6 -0.17460890322264E+01  0.12981543543809E+01 -0.10904982980173E-01
[GTO]
           1 0
 s           4   1.0000000000000000     
   69.137961906196551      -0.20478756370077797     
   11.906129132707308      -0.24997023136827334     
  0.95670827744340703       0.40025880240639616     
  0.36462520496073686       0.15952206667693555     
 p           4   1.0000000000000000     
   8.2124193257781641        1.1321556799186829     
   2.1293576997098116        1.0476840782254817     
  0.75066448202360914       0.54956508217158984     
  0.29885246543283073        8.2908486592766617E-002

           2 0
 s           4   1.0000000000000000     
   51.049363095579913      -0.16312063210127389     
   8.7911227406887544      -0.19911024581000730     
  0.70640422258929825       0.31882047753655751     
  0.26922813413411617       0.12706504184240380     
 p           4   1.0000000000000000     
   5.8263656140800002       0.73716451545209605     
   1.5106896018720002       0.68216371614850257     
  0.53256483288000001       0.35783053929253711     
  0.21202323690600003        5.3983030275847881E-002

           3 0
 s           4   1.0000000000000000     
   51.049363095579913      -0.16312063210127389     
   8.7911227406887544      -0.19911024581000730     
  0.70640422258929825       0.31882047753655751     
  0.26922813413411617       0.12706504184240380     
 p           4   1.0000000000000000     
   5.8263656140800002       0.73716451545209605     
   1.5106896018720002       0.68216371614850257     
  0.53256483288000001       0.35783053929253711     
  0.21202323690600003        5.3983030275847881E-002

           4 0
 s           4   1.0000000000000000     
   51.049363095579913      -0.16312063210127389     
   8.7911227406887544      -0.19911024581000730     
  0.70640422258929825       0.31882047753655751     
  0.26922813413411617       0.12706504184240380     
 p           4   1.0000000000000000     
   5.8263656140800002       0.73716451545209605     
   1.5106896018720002       0.68216371614850257     
  0.53256483288000001       0.35783053929253711     
  0.21202323690600003        5.3983030275847881E-002

[MO]
Sym=     1a
Ene=  -0.78377108168575949     
Spin= Alpha
Occup=     2.00000000
           1 -0.61651153966754824     
           2  0.23221070766445592     
           3  -5.7476025336540715E-003
           4   2.6468791477668391E-003
           5 -0.37490523170342216     
           6 -0.21562066119633824     
           7   5.3371200929729730E-003
           8  -2.4650860040228424E-003
           9  -4.3781592527365409E-002
          10  -4.2208060148336113E-002
          11  -1.9578749531516258E-002
          12  -6.0457236622792965E-004
          13  -4.3781197726578729E-002
          14  -4.1190937858148820E-002
          15   2.1642450495046334E-002
          16  -3.1833744474560723E-004
Sym=     2a
Ene=  -0.73363952368247143     
Spin= Alpha
Occup=     2.00000000
           1  0.24703579101467826     
           2   8.1403944170250833E-002
           3  -2.0139108127020305E-003
           4   8.7221908780633353E-004
           5 -0.28786238906644174     
           6  0.27245418397485915     
           7  -6.7416003809863392E-003
           8   2.9828044805156086E-003
           9 -0.35453769567975674     
          10  -8.6567540028806067E-002
          11 -0.13804536137381185     
          12  -1.8752306866192472E-003
          13 -0.35453766582659030     
          14  -7.9655886540096213E-002
          15  0.14215814316112124     
          16   7.0442295591334789E-005
Sym=     3a
Ene=  -0.63196023033415238     
Spin= Alpha
Occup=     2.00000000
           1  0.59112719969319827     
           2  0.58797777027192244     
           3  -1.4554583454829824E-002
           4   6.8796682711894696E-003
           5 -0.27480900334144226     
           6 -0.10257390140423243     
           7   2.5369243673297793E-003
           8  -9.3975975256704750E-004
           9  0.21813846643465559     
          10 -0.12694481130644375     
          11   9.7090290985203012E-002
          12  -7.1500052264774185E-004
          13  0.21813995738535150     
          14 -0.13157627841999403     
          15  -9.0693986581711336E-002
          16  -2.0189282300898405E-003
Sym=     4a
Ene=  -0.62861023070385103     
Spin= Alpha
Occup=     2.00000000
           1   1.4840895449848967E-007
           2  -1.2895458581426848E-002
           3 -0.52269501433830656     
           4  -3.6294950465512173E-003
           5  -1.2688857256481539E-006
           6  -1.3004412239573285E-002
           7 -0.52711837651872218     
           8  -3.6602075608157575E-003
           9  0.24934539289960592     
          10  0.10495800518572912     
          11 -0.12373874445540332     
          12   3.3604877899557874E-004
          13 -0.24934613747453607     
          14 -0.11093049520822902     
          15 -0.11839617098101277     
          16  -2.0173685158312508E-003
Sym=     5a
Ene=  -0.61338804334006702     
Spin= Alpha
Occup=     2.00000000
           1  -2.0357482568958028E-004
           2  -7.5268718825384183E-003
           3  -4.2185507408549587E-003
           4  0.63426938132381028     
           5  -3.0822535384861496E-005
           6  -6.0917064690255733E-003
           7  -3.6075165334312968E-003
           8  0.54117321586140033     
           9  -1.1524954997323572E-004
          10  -1.9051055461553959E-003
          11  -1.2361323694003348E-003
          12  0.17712099877858539     
          13  -1.1524020547226937E-004
          14  -1.9024724192727724E-003
          15  -1.1297273330265385E-003
          16  0.17712141010425514     
Sym=     6a
Ene=  -0.54687417755948764     
Spin= Alpha
Occup=     2.00000000
           1  0.18018001631618899     
           2  0.38404593785575319     
           3  -9.5076079157513926E-003
           4   4.4891259053552483E-003
           5  0.15823246064265936     
           6 -0.29884533067301156     
           7   7.3968433985883769E-003
           8  -3.3852920678061386E-003
           9 -0.22662163644069575     
          10  0.43508367646018009     
          11 -0.12358768992630700     
          12   3.8750691781241123E-003
          13 -0.22662028234516790     
          14  0.44064723212420687     
          15  0.10192318194153537     
          16   5.4409780563765891E-003
Sym=     7a
Ene=  -0.52822145792004005     
Spin= Alpha
Occup=     2.00000000
           1   4.0249828140403506E-007
           2   1.4261963537371700E-002
           3  0.57798580368420660     
           4   4.0134581393258175E-003
           5   3.8700908384910985E-007
           6   9.5609031500605720E-004
           7   3.8789993811697281E-002
           8   2.6933961551087307E-004
           9  0.48453963155580648     
          10  -4.4184837866700084E-002
          11 -0.29231754749714284     
          12  -2.4461464739078220E-003
          13 -0.48454120991635824     
          14   2.9719834366066521E-002
          15 -0.29414775762991940     
          16  -1.6261173065033280E-003
Sym=     8a
Ene=  -0.49468206116327140     
Spin= Alpha
Occup=     2.00000000
           1   2.5037891132981381E-006
           2  -6.2642835121701716E-003
           3  -3.5431074416368870E-003
           4  0.53250991842289408     
           5  -2.6563334937705358E-006
           6   1.1206656751932130E-003
           7   6.2643213687425283E-004
           8  -9.4196114720024551E-002
           9   2.5056062951957570E-005
          10   5.8229617231270103E-003
          11   3.6066474500381441E-003
          12 -0.53837614665681155     
          13   2.5041515906647511E-005
          14   5.8223834834381771E-003
          15   3.5828392473396102E-003
          16 -0.53837723609631327     
Sym=     9a
Ene=  -0.42489972753143096     
Spin= Alpha
Occup=     1.00000000
           1   5.0478976079412034E-003
           2  -5.4201082677097900E-003
           3   1.3930207054694839E-004
           4  -7.0554987554518443E-005
           5   8.2799334055922401E-003
           6  -6.8256486229844862E-003
           7   1.6601122772685518E-004
           8  -6.9557596203152628E-005
           9  0.39107066212585490     
          10  -3.1610060175945177E-002
          11 -0.60126921152436175     
          12  -4.3611452320552885E-003
          13  0.39107192102470034     
          14  -1.9316319267663755E-003
          15  0.60210064322111601     
          16   3.9947368433865720E-003
Sym=    10a
Ene=  -0.39062761111524114     
Spin= Alpha
Occup=     1.00000000
           1  -4.2384045056307347E-007
           2   1.4074331072624097E-002
           3  0.57043138271337079     
           4   3.9609921891237757E-003
           5  -9.5393153198370109E-007
           6  -1.1461349324479541E-002
           7 -0.46457245516682583     
           8  -3.2259111190951011E-003
           9 -0.18288346787269935     
          10  0.48274569392231920     
          11  0.14626949230389832     
          12   6.2991702671984602E-003
          13  0.18287817952192517     
          14 -0.47494389767948503     
          15  0.16995706705864244     
          16  -4.1033439143068565E-003
Sym=    11a
Ene=  -0.28429345178494131     
Spin= Alpha
Occup=     0.00000000
           1   1.3096102476881224E-010
           2  -5.8906849614085890E-007
           3  -1.9079138166737940E-005
           4   1.0483759902045366E-005
           5   6.1180084310942362E-009
           6   2.5796415719002380E-007
           7   3.9966239529109658E-006
           8  -1.4336583633063923E-005
           9  -1.6139752421456298E-006
          10   8.8185515664440314E-003
          11   5.3303880595898367E-003
          12 -0.79878458682448017     
          13   1.6169473213380908E-006
          14  -8.8186063755025870E-003
          15  -5.3278051468496276E-003
          16  0.79879503055121170     
Sym=    12a
Ene=  -0.26222903337505937     
Spin= Alpha
Occup=     0.00000000
           1  -7.2048468293786597E-006
           2  -6.8860071015375036E-003
           3  -4.0729877468641774E-003
           4  0.61102720321593962     
           5   3.8643334303639876E-004
           6   1.0140106274218597E-002
           7   5.9981442210633919E-003
           8 -0.89983566425533890     
           9  -3.0076358650376790E-005
          10  -3.8429055612435197E-003
          11  -2.2311673033304055E-003
          12  0.33290904978144492     
          13  -3.0074949168729586E-005
          14  -3.8419126088568138E-003
          15  -2.2023883285148833E-003
          16  0.33288247309035029     
Sym=    13a
Ene=   -2.2417267530659524E-002
Spin= Alpha
Occup=     0.00000000
           1   4.6824115187644268E-006
           2   8.5843958665742740E-003
           3  0.34838921011376683     
           4   2.4190405235931032E-003
           5  -2.4980507831117484E-005
           6  -2.0346876294973060E-002
           7 -0.82504650386440082     
           8  -5.7289124042225435E-003
           9  -5.1200307738418285E-002
          10 -0.66945500216022513     
          11  0.29764901630329071     
          12  -5.4088503707078227E-003
          13   5.1212020649023485E-002
          14  0.68333658005070530     
          15  0.26417153321552062     
          16   9.3102769686863214E-003
Sym=    14a
Ene=    7.5900144725373708E-002
Spin= Alpha
Occup=     0.00000000
           1  0.22078096767168290     
           2 -0.45800858404136313     
           3   1.1326873122703843E-002
           4  -4.9910845633813084E-003
           5  -1.1108270370267643     
           6  0.33247022165368983     
           7  -8.2038757408951762E-003
           8   3.2165023690537268E-003
           9  0.30617762837544854     
          10  0.52966506966291194     
          11  0.11591462991887864     
          12   6.7127609909312103E-003
          13  0.30617912019320837     
          14  0.52327216042918356     
          15 -0.14198765351428080     
          16   4.9215963069350853E-003
Sym=    15a
Ene=   0.48799235821483045     
Spin= Alpha
Occup=     0.00000000
           1  -1.7467441728796093E-006
           2   2.3859150394297643E-003
           3   9.6607753106157046E-002
           4   6.7085658334188798E-004
           5   5.1131976324915725E-006
           6  -7.3398960827342008E-003
           7 -0.29750101196193401     
           8  -2.0657987226209095E-003
           9 -0.82616901259642195     
          10 -0.15494234042586702     
          11 -0.91834911497518013     
          12  -7.8384618119115637E-003
          13  0.82616624217814760     
          14  0.10947313223908400     
          15 -0.92489044272950049     
          16  -4.9606284216702099E-003
Sym=    16a
Ene=   0.81857988606588306     
Spin= Alpha
Occup=     0.00000000
           1  0.84945919931484926     
           2 -0.85733679621873693     
           3   2.1221128315656510E-002
           4  -9.8064504809837558E-003
           5 -0.36572744771718529     
           6  -1.3683613046277066     
           7   3.3865021887975126E-002
           8  -1.5362130798164576E-002
           9 -0.27277371472391243     
          10 -0.27893807811411714     
          11 -0.11903218969828663     
          12  -3.8053584503418229E-003
          13 -0.27277229635413913     
          14 -0.27273009609071702     
          15  0.13267848132542318     
          16  -2.0575437938357552E-003
