$hessian                                                                        
        0.9708627085  -0.0233512046   0.0107842717  -0.9021945101   0.0216595276
       -0.0097957037  -0.0352110885  -0.0100461160  -0.0005769309  -0.0334571098
        0.0117377930  -0.0004116371
       -0.0233512046   0.0274672305  -0.0002417340   0.0216802516  -0.0263675566
        0.0003716012  -0.0239811109   0.0003291256  -0.0003449900   0.0256520639
       -0.0014287995   0.0002151228
        0.0107842717  -0.0002417340   0.0233969020  -0.0098072494   0.0003735543
       -0.0445375718  -0.0006657011  -0.0001841797   0.0105674169  -0.0003113212
        0.0000523594   0.0105732529
       -0.9021945101   0.0216802516  -0.0098072494   1.3443539257  -0.0304068956
        0.0142151812  -0.2258661658  -0.1255877187  -0.0031235047  -0.2162932497
        0.1343143626  -0.0012844272
        0.0216595276  -0.0263675566   0.0003735543  -0.0304068956   0.1169706461
       -0.0001376461  -0.0606901333  -0.0404641966  -0.0007932535   0.0694375012
       -0.0501388928   0.0005573453
       -0.0097957037   0.0003716012  -0.0445375718   0.0142151812  -0.0001376461
        0.0849649093  -0.0026930890  -0.0015180938  -0.0202281065  -0.0017263885
        0.0012841387  -0.0201992310
       -0.0352110885  -0.0239811109  -0.0006657011  -0.2258661658  -0.0606901333
       -0.0026930890   0.2433657754   0.1251988026   0.0034895990   0.0177114789
       -0.0405275584  -0.0001308089
       -0.0100461160   0.0003291256  -0.0001841797  -0.1255877187  -0.0404641966
       -0.0015180938   0.1251988026   0.6316165151   0.0055648779   0.0104350321
       -0.5914814441  -0.0038626044
       -0.0005769309  -0.0003449900   0.0105674169  -0.0031235047  -0.0007932535
       -0.0202281065   0.0034895990   0.0055648779   0.0048818692   0.0002108366
       -0.0044266344   0.0047788204
       -0.0334571098   0.0256520639  -0.0003113212  -0.2162932497   0.0694375012
       -0.0017263885   0.0177114789   0.0104350321   0.0002108366   0.2320388806
       -0.1055245972   0.0018268731
        0.0117377930  -0.0014287995   0.0000523594   0.1343143626  -0.0501388928
        0.0012841387  -0.0405275584  -0.5914814441  -0.0044266344  -0.1055245972
        0.6430491363   0.0030901362
       -0.0004116371   0.0002151228   0.0105732529  -0.0012844272   0.0005573453
       -0.0201992310  -0.0001308089  -0.0038626044   0.0047788204   0.0018268731
        0.0030901362   0.0048471577
