      -----------------------------------------------------------      
     |                   =====================                   |     
     |                           x T B                           |     
     |                   =====================                   |     
     |                         S. Grimme                         |     
     |          Mulliken Center for Theoretical Chemistry        |     
     |                    University of Bonn                     |     
      -----------------------------------------------------------      

   * xtb version 6.2.2 (9d81278992624c895f80dd42a50cac0aa55982e2) compiled by '@Darwin' on 04/03/2020

   xtb is free software: you can redistribute it and/or modify it under
   the terms of the GNU Lesser General Public License as published by
   the Free Software Foundation, either version 3 of the License, or
   (at your option) any later version.
   
   xtb is distributed in the hope that it will be useful,
   but WITHOUT ANY WARRANTY; without even the implied warranty of
   MERCHANTABILITY or FITNESS FOR A PARTICULAR PURPOSE.  See the
   GNU Lesser General Public License for more details.
   
   Cite this work as:
   * S. Grimme, C. Bannwarth, P. Shushkov, J. Chem. Theory Comput., 2017,
     13, 1989-2009. DOI: 10.1021/acs.jctc.7b00118
   * C. Bannwarth, S. Ehlert and S. Grimme., J. Chem. Theory Comput., 2019,
     15, 1652-1671. DOI: 10.1021/acs.jctc.8b01176
   * P. Pracht, E. Caldeweyher, S. Ehlert, S. Grimme, ChemRxiv, 2019, preprint.
     DOI: 10.26434/chemrxiv.8326202.v1
   
   for DFT-D4:
   * E. Caldeweyher, C. Bannwarth and S. Grimme, J. Chem. Phys., 2017,
     147, 034112. DOI: 10.1063/1.4993215
   * E. Caldeweyher, S. Ehlert, A. Hansen, H. Neugebauer, S. Spicher,
     C. Bannwarth and S. Grimme, J. Chem. Phys., 2019, 150, 154122.
     DOI: 10.1063/1.5090222
   
   for sTDA-xTB:
   * S. Grimme and C. Bannwarth, J. Chem. Phys., 2016, 145, 054103.
     DOI: 10.1063/1.4959605
   
   in the mass-spec context:
   * V. Asgeirsson, C. Bauer and S. Grimme, Chem. Sci., 2017, 8, 4879.
     DOI: 10.1039/c7sc00601b
   
   for metadynamics refer to:
   * S. Grimme, J. Chem. Theory Comput., 2019, 155, 2847-2862
     DOI: 10.1021/acs.jctc.9b00143
   
   with help from (in alphabetical order)
   C. Bannwarth, F. Bohle, G. Brandenburg, E. Caldeweyher, M. Checinski,
   S. Dohm, S. Ehlert, S. Ehrlich, F. März, H. Neugebauer, J. Pisarek,
   P. Pracht, P. Shushkov, and S. Spicher.
   
 * started run on 2020/05/12 at 11:43:57.058     

           -------------------------------------------------
          |                Calculation Setup                |
           -------------------------------------------------

          program call               : xtb --input C4N1_1_S_3.input C4N1_1_S_3.xyz --ohess --molden --namespace C4N1_1_S_3 output.out
          calculation namespace      : C4N1_1_S_3
          coordinate file            : C4N1_1_S_3.xyz
          number of atoms            :                     5
          number of electrons        :                    21
          charge                     :                     0
          spin                       :                   1.5
          first test random number   :      0.39888356088014

   ID    Z sym.   atoms
    1    6 C      1, 3-5
    2    7 N      2

           -------------------------------------------------
          |                 G F N 2 - x T B                 |
           -------------------------------------------------

        Reference                      10.1021/acs.jctc.8b01176
      * Hamiltonian:
        H0-scaling (s, p, d)           1.850000    2.230000    2.230000
        zeta-weighting                 0.500000
      * Dispersion:
        s8                             2.700000
        a1                             0.520000
        a2                             5.000000
        s9                             5.000000
      * Repulsion:
        kExp                           1.500000    1.000000
        rExp                           1.000000
      * Coulomb:
        alpha                          2.000000
        third order                    shell-resolved
        anisotropic                    true
        a3                             3.000000
        a5                             4.000000
        cn-shift                       1.200000
        cn-exp                         4.000000
        max-rad                        5.000000


          ...................................................
          :                      SETUP                      :
          :.................................................:
          :  # basis functions                  20          :
          :  # atomic orbitals                  20          :
          :  # shells                           10          :
          :  # electrons                        21          :
          :  max. iterations                   250          :
          :  Hamiltonian                  GFN2-xTB          :
          :  restarted?                      false          :
          :  GBSA solvation                  false          :
          :  PC potential                    false          :
          :  electronic temp.          300.0000000     K    :
          :  accuracy                    1.0000000          :
          :  -> integral cutoff          0.2500000E+02      :
          :  -> integral neglect         0.1000000E-07      :
          :  -> SCF convergence          0.1000000E-05 Eh   :
          :  -> wf. convergence          0.1000000E-03 e    :
          :  Broyden damping             0.4000000          :
          ...................................................

 iter      E             dE          RMSdq      gap      omega  full diag
   1    -10.6985911 -0.106986E+02  0.106E+01    0.00       0.0  T
   2    -10.7127871 -0.141960E-01  0.651E+00    0.00       1.0  T
   3    -10.7171881 -0.440105E-02  0.140E+00    0.00       1.0  T
   4    -10.7187465 -0.155840E-02  0.594E-01    0.00       1.0  T
   5    -10.7115526  0.719393E-02  0.115E+00    0.02       1.0  T
   6    -10.7179217 -0.636909E-02  0.638E-01    0.00       1.0  T
   7    -10.7188862 -0.964547E-03  0.587E-02    0.00       1.0  T
   8    -10.7189110 -0.247698E-04  0.208E-02    0.00       2.1  T
   9    -10.7189106  0.383818E-06  0.314E-02    0.00       1.4  T
  10    -10.7189124 -0.180219E-05  0.837E-03    0.00       5.3  T
  11    -10.7189130 -0.531448E-06  0.123E-03    0.00      36.2  T
  12    -10.7189130 -0.926034E-08  0.190E-04    0.00     235.2  T
  13    -10.7189130 -0.516529E-10  0.612E-05    0.00     730.5  T

   *** convergence criteria satisfied after 13 iterations ***

         #    Occupation            Energy/Eh            Energy/eV
      -------------------------------------------------------------
         1        2.0000           -0.7870076             -21.4156
       ...           ...                  ...                  ...
         6        2.0000           -0.5542147             -15.0809
         7        2.0000           -0.5542146             -15.0809
         8        2.0000           -0.5542145             -15.0809
         9        1.5000           -0.4601367             -12.5210
        10        1.5000           -0.4601367             -12.5210
        11        0.6667           -0.4195701             -11.4171
        12        0.6667           -0.4195701             -11.4171 (HOMO)
        13        0.6667           -0.4195700             -11.4171 (LUMO)
        14                         -0.3987125             -10.8495
        15                         -0.3987125             -10.8495
        16                         -0.3987124             -10.8495
        17                         -0.0908683              -2.4727
       ...                                ...                  ...
        20                          0.0259950               0.7074
      -------------------------------------------------------------
                  HL-Gap            0.0000001 Eh            0.0000 eV
             Fermi-level           -0.4395241 Eh          -11.9601 eV

 SCC (total)                   0 d,  0 h,  0 min,  0.004 sec
 SCC setup                      ...        0 min,  0.000 sec (  2.193%)
 Dispersion                     ...        0 min,  0.000 sec (  0.427%)
 integral evaluation            ...        0 min,  0.001 sec ( 29.297%)
 zeroth order Hamiltonian       ...        0 min,  0.000 sec (  0.427%)
 iterations                     ...        0 min,  0.001 sec ( 34.190%)
 molecular gradient             ...        0 min,  0.001 sec ( 32.058%)
 printout                       ...        0 min,  0.000 sec (  1.198%)

         :::::::::::::::::::::::::::::::::::::::::::::::::::::
         ::                     SUMMARY                     ::
         :::::::::::::::::::::::::::::::::::::::::::::::::::::
         :: total energy             -10.673799053438 Eh    ::
         :: gradient norm              0.088802562063 Eh/a0 ::
         :: HOMO-LUMO gap              0.000001807604 eV    ::
         ::.................................................::
         :: SCC energy               -10.718912965162 Eh    ::
         :: -> isotropic ES           -0.059031188584 Eh    ::
         :: -> anisotropic ES          0.003560876043 Eh    ::
         :: -> anisotropic XC          0.001673148770 Eh    ::
         :: -> dispersion             -0.003411349685 Eh    ::
         :: repulsion energy           0.045113713349 Eh    ::
         :: add. restraining           0.000000000000 Eh    ::
         :::::::::::::::::::::::::::::::::::::::::::::::::::::

      ----------------------------------------------------------- 
     |                   =====================                   |
     |                        A N C O P T                        |
     |                   =====================                   |
     |               Approximate Normal Coordinate               |
     |                Rational Function Optimizer                |
      ----------------------------------------------------------- 

          ...................................................
          :                      SETUP                      :
          :.................................................:
          :   optimization level            normal          :
          :   max. optcycles                   200          :
          :   ANC micro-cycles                  20          :
          :   degrees of freedom                 9          :
          :.................................................:
          :   RF solver                   davidson          :
          :   write xtbopt.log                true          :
          :   linear?                        false          :
          :   energy convergence         0.5000000E-05 Eh   :
          :   grad. convergence          0.1000000E-02 Eh/α :
          :   maximium RF displ.         1.0000000          :
          :   Hlow (freq-cutoff)         0.1000000E-01      :
          :   Hmax (freq-cutoff)         5.0000000          :
          :   S6 in model hess.         20.0000000          :
          ...................................................

generating ANC from model Hessian ...
Using Lindh-Hessian (1995)
 Shifting diagonal of input Hessian by    0.0000000000000000     
 Lowest  eigenvalues of input Hessian
   -0.000000   -0.000000    0.000000    0.000000    0.000000    0.000000
    0.096127    0.096128    0.132344    0.132344    0.132344    0.554672
    1.239987    1.239989    1.239990
 Highest eigenvalues
    0.132344    0.132344    0.554672    1.239987    1.239989    1.239990


........................................................................
.............................. CYCLE    1 ..............................
........................................................................
   1    -10.7189130 -0.107189E+02  0.883E-06    0.00       0.0  T
   2    -10.7189130  0.365805E-10  0.706E-05    0.00     633.7  T
   3    -10.7189130 -0.370139E-10  0.276E-06    0.00   16199.6  T
     SCC iter.                  ...        0 min,  0.001 sec
     gradient                   ...        0 min,  0.002 sec
 * total energy  :   -10.6737991 Eh     change       -0.4851888E-09 Eh
   gradient norm :     0.0888023 Eh/α   predicted     0.0000000E+00 (-100.00%)
   displ. norm   :     0.1561930 α      lambda       -0.1387030E-01
   maximum displ.:     0.1561930 α      in ANC's #6, #5, #1, ...

........................................................................
.............................. CYCLE    2 ..............................
........................................................................
   1    -10.7445324 -0.107445E+02  0.684E-01    0.00       0.0  T
   2    -10.7454737 -0.941340E-03  0.363E-01    0.00       1.0  T
   3    -10.7454775 -0.377665E-05  0.215E-01    0.00       1.0  T
   4    -10.7454756  0.187522E-05  0.251E-02    0.00       1.8  T
   5    -10.7454773 -0.161923E-05  0.195E-02    0.00       2.3  T
   6    -10.7454795 -0.224354E-05  0.111E-03    0.00      40.2  T
   7    -10.7454795 -0.136705E-09  0.520E-04    0.00      85.9  T
   8    -10.7454795 -0.180994E-08  0.198E-04    0.00     226.2  T
     SCC iter.                  ...        0 min,  0.001 sec
     gradient                   ...        0 min,  0.001 sec
 * total energy  :   -10.6840363 Eh     change       -0.1023720E-01 Eh
   gradient norm :     0.0401265 Eh/α   predicted    -0.7104343E-02 ( -30.60%)
   displ. norm   :     0.1266929 α      lambda       -0.5083740E-02
   maximum displ.:     0.1266928 α      in ANC's #6, #5, #1, ...

........................................................................
.............................. CYCLE    3 ..............................
........................................................................
   1    -10.7642470 -0.107642E+02  0.557E-01    0.00       0.0  T
   2    -10.7648162 -0.569236E-03  0.294E-01    0.00       1.0  T
   3    -10.7648177 -0.151546E-05  0.170E-01    0.00       1.0  T
   4    -10.7643972  0.420504E-03  0.250E-01    0.00       1.0  T
   5    -10.7648204 -0.423157E-03  0.652E-03    0.00       6.9  T
   6    -10.7648183  0.205601E-05  0.168E-02    0.00       2.7  T
   7    -10.7648203 -0.193865E-05  0.437E-03    0.00      10.2  T
   8    -10.7648204 -0.130826E-06  0.331E-04    0.00     134.9  T
   9    -10.7648204  0.146806E-08  0.515E-04    0.00      86.8  T
     SCC iter.                  ...        0 min,  0.001 sec
     gradient                   ...        0 min,  0.002 sec
 * total energy  :   -10.6860529 Eh     change       -0.2016607E-02 Eh
   gradient norm :     0.0101356 Eh/α   predicted    -0.2582669E-02 (  28.07%)
   displ. norm   :     0.0255323 α      lambda       -0.2587768E-03
   maximum displ.:     0.0255309 α      in ANC's #6, #5, #4, ...

........................................................................
.............................. CYCLE    4 ..............................
........................................................................
   1    -10.7610790 -0.107611E+02  0.114E-01    0.00       0.0  T
   2    -10.7611021 -0.231246E-04  0.603E-02    0.00       1.0  T
   3    -10.7610363  0.658168E-04  0.106E-01    0.00       1.0  T
   4    -10.7610657 -0.294010E-04  0.797E-02    0.00       1.0  T
   5    -10.7611031 -0.374247E-04  0.585E-03    0.00       7.6  T
   6    -10.7611029  0.187871E-06  0.705E-03    0.00       6.3  T
   7    -10.7611032 -0.318853E-06  0.305E-03    0.00      14.7  T
   8    -10.7611033 -0.495005E-07  0.825E-04    0.00      54.2  T
   9    -10.7611033 -0.338976E-08  0.266E-04    0.00     168.2  T
     SCC iter.                  ...        0 min,  0.001 sec
     gradient                   ...        0 min,  0.001 sec
 * total energy  :   -10.6861696 Eh     change       -0.1167601E-03 Eh
   gradient norm :     0.0009792 Eh/α   predicted    -0.1294734E-03 (  10.89%)
   displ. norm   :     0.0041808 α      lambda       -0.2388565E-05
   maximum displ.:     0.0030802 α      in ANC's #6, #5, #4, ...

........................................................................
.............................. CYCLE    5 ..............................
........................................................................
   1    -10.7615576 -0.107616E+02  0.123E-01    0.01       0.0  T
   2    -10.7614424  0.115225E-03  0.115E-01    0.00       1.0  T
   3    -10.7602227  0.121973E-02  0.462E-01    0.01       1.0  T
   4    -10.7615072 -0.128450E-02  0.951E-02    0.01       1.0  T
   5    -10.7615166 -0.945599E-05  0.761E-02    0.01       1.0  T
   6    -10.7615608 -0.442246E-04  0.613E-03    0.00       7.3  T
   7    -10.7615610 -0.191742E-06  0.194E-03    0.00      23.1  T
   8    -10.7615609  0.147876E-06  0.486E-03    0.00       9.2  T
   9    -10.7615611 -0.166376E-06  0.712E-04    0.00      62.8  T
  10    -10.7615611 -0.277372E-08  0.743E-05    0.00     601.7  T
     SCC iter.                  ...        0 min,  0.001 sec
     gradient                   ...        0 min,  0.001 sec
 * total energy  :   -10.6861749 Eh     change       -0.5258711E-05 Eh
   gradient norm :     0.0038572 Eh/α   predicted    -0.1195095E-05 ( -77.27%)
   displ. norm   :     0.0211565 α      lambda       -0.6214068E-04
   maximum displ.:     0.0151760 α      in ANC's #5, #4, #1, ...

........................................................................
.............................. CYCLE    6 ..............................
........................................................................
   1    -10.7614596 -0.107615E+02  0.873E-01    0.05       0.0  T
   2    -10.7560440  0.541554E-02  0.786E-01    0.03       1.0  T
   3    -10.7037079  0.523362E-01  0.285E+00    0.06       1.0  T
   4    -10.7586206 -0.549127E-01  0.726E-01    0.04       1.0  T
   5    -10.7585029  0.117721E-03  0.686E-01    0.05       1.0  T
   6    -10.7612405 -0.273765E-02  0.246E-01    0.04       1.0  T
   7    -10.7610465  0.193997E-03  0.268E-01    0.03       1.0  T
   8    -10.7616016 -0.555088E-03  0.327E-02    0.03       1.4  T
   9    -10.7616073 -0.565020E-05  0.101E-02    0.03       4.4  T
  10    -10.7616074 -0.102108E-06  0.383E-03    0.03      11.7  T
  11    -10.7616074 -0.348536E-07  0.134E-03    0.03      33.3  T
  12    -10.7616074 -0.689312E-08  0.881E-05    0.03     507.7  T
  13    -10.7616074  0.611777E-11  0.531E-05    0.03     841.7  T
     SCC iter.                  ...        0 min,  0.001 sec
     gradient                   ...        0 min,  0.002 sec
 * total energy  :   -10.6864461 Eh     change       -0.2711861E-03 Eh
   gradient norm :     0.0301519 Eh/α   predicted    -0.3108411E-04 ( -88.54%)
   displ. norm   :     0.1571721 α      lambda       -0.3593154E-02
   maximum displ.:     0.1132155 α      in ANC's #5, #4, #1, ...

........................................................................
.............................. CYCLE    7 ..............................
........................................................................
   1    -10.7664065 -0.107664E+02  0.210E+00    0.36       0.0  T
   2    -10.6455947  0.120812E+00  0.376E+00    0.26       1.0  T
   3    -10.6834604 -0.378657E-01  0.311E+00    0.37       1.0  T
   4    -10.7134695 -0.300091E-01  0.250E+00    0.28       1.0  T
   5    -10.7681226 -0.546531E-01  0.541E-01    0.32       1.0  T
   6    -10.7689093 -0.786724E-03  0.439E-01    0.32       1.0  T
   7    -10.7692063 -0.297069E-03  0.333E-01    0.31       1.0  T
   8    -10.7695668 -0.360446E-03  0.799E-02    0.31       1.0  T
   9    -10.7695973 -0.305138E-04  0.155E-02    0.31       2.9  T
  10    -10.7695974 -0.138216E-06  0.940E-03    0.31       4.8  T
  11    -10.7695977 -0.279892E-06  0.284E-03    0.31      15.8  T
  12    -10.7695978 -0.524268E-07  0.608E-04    0.31      73.5  T
  13    -10.7695978 -0.171724E-08  0.199E-04    0.31     225.3  T
     SCC iter.                  ...        0 min,  0.001 sec
     gradient                   ...        0 min,  0.001 sec
 * total energy  :   -10.6956806 Eh     change       -0.9234549E-02 Eh
   gradient norm :     0.0919359 Eh/α   predicted    -0.1840956E-02 ( -80.06%)
   displ. norm   :     0.4220450 α      lambda       -0.3074207E-01
   maximum displ.:     0.2752376 α      in ANC's #5, #4, #1, ...

........................................................................
.............................. CYCLE    8 ..............................
........................................................................
   1    -10.7892861 -0.107893E+02  0.255E+00    0.75       0.0  T
   2    -10.5669536  0.222333E+00  0.519E+00    0.42       1.0  T
   3    -10.7460579 -0.179104E+00  0.260E+00    0.74       1.0  T
   4    -10.7497364 -0.367850E-02  0.234E+00    0.70       1.0  T
   5    -10.7861661 -0.364296E-01  0.111E+00    0.73       1.0  T
   6    -10.7947519 -0.858583E-02  0.610E-01    0.73       1.0  T
   7    -10.7968515 -0.209966E-02  0.271E-01    0.73       1.0  T
   8    -10.7968458  0.569170E-05  0.137E-01    0.73       1.0  T
   9    -10.7968765 -0.306626E-04  0.310E-02    0.73       1.4  T
  10    -10.7968796 -0.305050E-05  0.574E-03    0.73       7.8  T
  11    -10.7968796 -0.617864E-07  0.294E-03    0.73      15.2  T
  12    -10.7968797 -0.393626E-07  0.793E-04    0.73      56.4  T
  13    -10.7968797 -0.252689E-08  0.320E-04    0.73     139.7  T
     SCC iter.                  ...        0 min,  0.001 sec
     gradient                   ...        0 min,  0.001 sec
 * total energy  :   -10.7284982 Eh     change       -0.3281757E-01 Eh
   gradient norm :     0.1071623 Eh/α   predicted    -0.1810896E-01 ( -44.82%)
   displ. norm   :     0.4548709 α      lambda       -0.3939410E-01
   maximum displ.:     0.3195191 α      in ANC's #5, #1, #4, ...

........................................................................
.............................. CYCLE    9 ..............................
........................................................................
   1    -10.8319705 -0.108320E+02  0.281E+00    0.70       0.0  T
   2    -10.5854850  0.246485E+00  0.540E+00    0.93       1.0  T
   3    -10.7377972 -0.152312E+00  0.368E+00    0.83       1.0  T
   4    -10.8352039 -0.974067E-01  0.796E-01    0.67       1.0  T
   5    -10.8395291 -0.432528E-02  0.283E-01    0.68       1.0  T
   6    -10.8393905  0.138681E-03  0.349E-01    0.67       1.0  T
   7    -10.8395146 -0.124166E-03  0.255E-01    0.67       1.0  T
   8    -10.8398275 -0.312914E-03  0.796E-02    0.67       1.0  T
   9    -10.8398399 -0.124081E-04  0.224E-02    0.67       2.0  T
  10    -10.8398425 -0.255501E-05  0.679E-03    0.67       6.6  T
  11    -10.8398426 -0.755073E-07  0.349E-03    0.67      12.8  T
  12    -10.8398426 -0.704552E-07  0.481E-04    0.67      93.0  T
  13    -10.8398426  0.144095E-09  0.426E-04    0.67     105.0  T
     SCC iter.                  ...        0 min,  0.001 sec
     gradient                   ...        0 min,  0.001 sec
 * total energy  :   -10.7712319 Eh     change       -0.4273374E-01 Eh
   gradient norm :     0.1235355 Eh/α   predicted    -0.2377252E-01 ( -44.37%)
   displ. norm   :     0.5005962 α      lambda       -0.5262300E-01
   maximum displ.:     0.3585176 α      in ANC's #5, #1, #6, ...

........................................................................
.............................. CYCLE   10 ..............................
........................................................................
   1    -10.8574932 -0.108575E+02  0.390E+00    0.48       0.0  T
   2     -9.9633963  0.894097E+00  0.931E+00    1.85       1.0  T
   3    -10.8330936 -0.869697E+00  0.320E+00    0.57       1.0  T
   4    -10.7406573  0.924363E-01  0.453E+00    0.24       1.0  T
   5    -10.8868348 -0.146178E+00  0.176E+00    0.43       1.0  T
   6    -10.8878454 -0.101057E-02  0.168E+00    0.41       1.0  T
   7    -10.8897864 -0.194102E-02  0.158E+00    0.41       1.0  T
   8    -10.9021875 -0.124011E-01  0.441E-01    0.41       1.0  T
   9    -10.9033446 -0.115710E-02  0.134E-01    0.41       1.0  T
  10    -10.9033898 -0.452200E-04  0.930E-02    0.41       1.0  T
  11    -10.9034221 -0.322819E-04  0.405E-02    0.41       1.1  T
  12    -10.9034288 -0.670985E-05  0.770E-03    0.41       5.8  T
  13    -10.9034289 -0.111751E-06  0.486E-03    0.41       9.2  T
  14    -10.9034290 -0.121470E-06  0.444E-04    0.41     100.8  T
  15    -10.9034290  0.396307E-08  0.863E-04    0.41      51.8  T
     SCC iter.                  ...        0 min,  0.002 sec
     gradient                   ...        0 min,  0.002 sec
 * total energy  :   -10.8255707 Eh     change       -0.5433875E-01 Eh
   gradient norm :     0.1236663 Eh/α   predicted    -0.3290509E-01 ( -39.44%)
   displ. norm   :     0.9720254 α      lambda       -0.1090620E+00
   maximum displ.:     0.6975308 α      in ANC's #5, #1, #6, ...

........................................................................
.............................. CYCLE   11 ..............................
........................................................................
   1    -11.0519811 -0.110520E+02  0.818E+00    1.14       0.0  T
   2    -10.7211735  0.330808E+00  0.716E+00    0.73       1.0  T
   3    -10.6537332  0.674402E-01  0.778E+00    1.16       1.0  T
   4    -10.9477817 -0.294048E+00  0.508E+00    1.41       1.0  T
   5    -11.0828971 -0.135115E+00  0.228E+00    0.86       1.0  T
   6    -11.1102535 -0.273564E-01  0.160E+00    0.94       1.0  T
   7    -11.1116594 -0.140597E-02  0.151E+00    0.93       1.0  T
   8    -11.1167254 -0.506592E-02  0.769E-01    0.88       1.0  T
   9    -11.1182642 -0.153881E-02  0.147E-01    0.80       1.0  T
  10    -11.1183258 -0.616650E-04  0.730E-02    0.81       1.0  T
  11    -11.1183444 -0.185129E-04  0.168E-02    0.80       2.7  T
  12    -11.1183449 -0.566206E-06  0.770E-03    0.80       5.8  T
  13    -11.1183449 -0.290595E-07  0.232E-03    0.80      19.3  T
  14    -11.1183450 -0.274827E-07  0.312E-04    0.80     143.2  T
  15    -11.1183450  0.188578E-09  0.224E-04    0.80     199.5  T
     SCC iter.                  ...        0 min,  0.001 sec
     gradient                   ...        0 min,  0.002 sec
 * total energy  :   -10.8292867 Eh     change       -0.3716006E-02 Eh
   gradient norm :     0.5729326 Eh/α   predicted    -0.1060537E+00 (2753.97%)
   displ. norm   :     0.4417826 α      lambda       -0.2234622E+00
   maximum displ.:     0.2453780 α      in ANC's #2, #1, #6, ...

........................................................................
.............................. CYCLE   12 ..............................
........................................................................
   1    -10.8818802 -0.108819E+02  0.526E+00    0.50       0.0  T
   2    -10.0172710  0.864609E+00  0.110E+01    0.44       1.0  T
   3    -10.9639821 -0.946711E+00  0.311E+00    0.40       1.0  T
   4    -10.8618464  0.102136E+00  0.442E+00    0.05       1.0  T
   5    -10.9397232 -0.778768E-01  0.289E+00    0.44       1.0  T
   6    -10.9911594 -0.514362E-01  0.183E+00    0.29       1.0  T
   7    -10.9982025 -0.704310E-02  0.130E+00    0.33       1.0  T
   8    -11.0010793 -0.287685E-02  0.114E+00    0.31       1.0  T
   9    -11.0079074 -0.682810E-02  0.613E-01    0.24       1.0  T
  10    -11.0076312  0.276186E-03  0.713E-01    0.24       1.0  T
  11    -11.0086700 -0.103872E-02  0.119E-01    0.23       1.0  T
  12    -11.0086533  0.166985E-04  0.118E-01    0.23       1.0  T
  13    -11.0087265 -0.732398E-04  0.462E-02    0.22       1.0  T
  14    -11.0087263  0.246520E-06  0.252E-02    0.22       1.8  T
  15    -11.0087282 -0.193046E-05  0.138E-02    0.22       3.2  T
  16    -11.0087284 -0.188033E-06  0.101E-02    0.22       4.4  T
  17    -11.0087286 -0.172362E-06  0.189E-03    0.22      23.6  T
  18    -11.0087286 -0.549231E-08  0.613E-04    0.22      73.0  T
  19    -11.0087286 -0.859044E-09  0.129E-04    0.22     345.7  T
     SCC iter.                  ...        0 min,  0.002 sec
     gradient                   ...        0 min,  0.002 sec
 * total energy  :   -10.8973022 Eh     change       -0.6801555E-01 Eh
   gradient norm :     0.1285620 Eh/α   predicted    -0.1335378E+00 (  96.33%)
   displ. norm   :     0.5925895 α      lambda       -0.4853338E-01
   maximum displ.:     0.3136434 α      in ANC's #1, #6, #2, ...

........................................................................
.............................. CYCLE   13 ..............................
........................................................................
   1    -11.1000803 -0.111001E+02  0.394E+00    0.57       0.0  T
   2    -10.9962706  0.103810E+00  0.416E+00    0.37       1.0  T
   3    -11.0339712 -0.377006E-01  0.358E+00    0.78       1.0  T
   4    -11.1136696 -0.796983E-01  0.465E-01    0.53       1.0  T
   5    -11.1135946  0.749503E-04  0.361E-01    0.52       1.0  T
   6    -11.1135259  0.687096E-04  0.359E-01    0.54       1.0  T
   7    -11.1138440 -0.318119E-03  0.186E-01    0.52       1.0  T
   8    -11.1139890 -0.144941E-03  0.345E-02    0.52       1.3  T
   9    -11.1139934 -0.440235E-05  0.176E-02    0.52       2.5  T
  10    -11.1139935 -0.154582E-06  0.262E-03    0.52      17.1  T
  11    -11.1139935  0.399274E-08  0.134E-03    0.52      33.4  T
  12    -11.1139935 -0.536066E-08  0.177E-04    0.52     252.5  T
  13    -11.1139935 -0.112140E-09  0.191E-05    0.52    2341.8  T
     SCC iter.                  ...        0 min,  0.001 sec
     gradient                   ...        0 min,  0.001 sec
 * total energy  :   -10.9255938 Eh     change       -0.2829159E-01 Eh
   gradient norm :     0.1856475 Eh/α   predicted    -0.3278822E-01 (  15.89%)
   displ. norm   :     0.7491979 α      lambda       -0.6469864E-01
   maximum displ.:     0.4954716 α      in ANC's #1, #5, #3, ...

........................................................................
.............................. CYCLE   14 ..............................
........................................................................
   1    -11.0170830 -0.110171E+02  0.369E+00    0.68       0.0  T
   2    -10.7098192  0.307264E+00  0.677E+00    0.24       1.0  T
   3    -11.0355507 -0.325732E+00  0.215E+00    0.89       1.0  T
   4    -11.0493579 -0.138072E-01  0.141E+00    0.46       1.0  T
   5    -11.0356887  0.136693E-01  0.165E+00    0.49       1.0  T
   6    -11.0576773 -0.219886E-01  0.715E-01    0.53       1.0  T
   7    -11.0609061 -0.322879E-02  0.413E-01    0.54       1.0  T
   8    -11.0617409 -0.834842E-03  0.180E-01    0.50       1.0  T
   9    -11.0618534 -0.112507E-03  0.565E-02    0.48       1.0  T
  10    -11.0618578 -0.432571E-05  0.378E-02    0.48       1.2  T
  11    -11.0618605 -0.275479E-05  0.557E-03    0.47       8.0  T
  12    -11.0618606 -0.577221E-07  0.199E-03    0.47      22.4  T
  13    -11.0618606 -0.761281E-08  0.350E-04    0.47     127.8  T
  14    -11.0618606 -0.272056E-09  0.807E-05    0.47     554.4  T
     SCC iter.                  ...        0 min,  0.001 sec
     gradient                   ...        0 min,  0.002 sec
 * total energy  :   -10.9459562 Eh     change       -0.2036239E-01 Eh
   gradient norm :     0.1509349 Eh/α   predicted    -0.5050688E-01 ( 148.04%)
   displ. norm   :     0.5294852 α      lambda       -0.3968486E-01
   maximum displ.:     0.2797429 α      in ANC's #5, #4, #1, ...

........................................................................
.............................. CYCLE   15 ..............................
........................................................................
   1    -11.0656071 -0.110656E+02  0.388E+00    1.04       0.0  T
   2    -10.7891464  0.276461E+00  0.540E+00    1.73       1.0  T
   3    -11.0356430 -0.246497E+00  0.307E+00    1.04       1.0  T
   4    -11.0934542 -0.578111E-01  0.150E+00    1.00       1.0  T
   5    -11.1005619 -0.710773E-02  0.100E+00    0.97       1.0  T
   6    -11.1068060 -0.624413E-02  0.513E-01    1.00       1.0  T
   7    -11.1077200 -0.913939E-03  0.313E-01    0.98       1.0  T
   8    -11.1082919 -0.571895E-03  0.213E-02    0.98       2.1  T
   9    -11.1082914  0.484010E-06  0.146E-02    0.98       3.1  T
  10    -11.1082921 -0.726146E-06  0.199E-03    0.98      22.5  T
  11    -11.1082921 -0.107527E-07  0.816E-04    0.98      54.8  T
  12    -11.1082921 -0.175983E-08  0.936E-05    0.98     478.0  T
     SCC iter.                  ...        0 min,  0.001 sec
     gradient                   ...        0 min,  0.002 sec
 * total energy  :   -10.9670104 Eh     change       -0.2105421E-01 Eh
   gradient norm :     0.1046775 Eh/α   predicted    -0.2540534E-01 (  20.67%)
   displ. norm   :     0.6242346 α      lambda       -0.3649046E-01
   maximum displ.:     0.3830133 α      in ANC's #1, #4, #6, ...

........................................................................
.............................. CYCLE   16 ..............................
........................................................................
   1    -11.1516266 -0.111516E+02  0.296E+00    1.66       0.0  T
   2    -11.1466224  0.500427E-02  0.193E+00    1.52       1.0  T
   3    -11.0951316  0.514907E-01  0.273E+00    1.72       1.0  T
   4    -11.1516316 -0.564999E-01  0.634E-01    1.62       1.0  T
   5    -11.1541507 -0.251917E-02  0.254E-01    1.55       1.0  T
   6    -11.1544308 -0.280069E-03  0.118E-01    1.57       1.0  T
   7    -11.1544130  0.178309E-04  0.117E-01    1.56       1.0  T
   8    -11.1545159 -0.102938E-03  0.156E-02    1.57       2.9  T
   9    -11.1545169 -0.101076E-05  0.491E-03    1.57       9.1  T
  10    -11.1545169 -0.177936E-07  0.798E-04    1.57      56.0  T
  11    -11.1545169 -0.140020E-08  0.224E-04    1.57     199.2  T
     SCC iter.                  ...        0 min,  0.001 sec
     gradient                   ...        0 min,  0.001 sec
 * total energy  :   -10.9751576 Eh     change       -0.8147213E-02 Eh
   gradient norm :     0.1403378 Eh/α   predicted    -0.2535484E-01 ( 211.21%)
   displ. norm   :     0.1541361 α      lambda       -0.1170321E-01
   maximum displ.:     0.0869468 α      in ANC's #6, #1, #3, ...

........................................................................
.............................. CYCLE   17 ..............................
........................................................................
   1    -11.1323366 -0.111323E+02  0.100E+00    1.42       0.0  T
   2    -11.1306969  0.163961E-02  0.741E-01    1.50       1.0  T
   3    -11.1255847  0.511226E-02  0.933E-01    1.40       1.0  T
   4    -11.1331675 -0.758281E-02  0.228E-01    1.46       1.0  T
   5    -11.1327885  0.378987E-03  0.244E-01    1.45       1.0  T
   6    -11.1333316 -0.543064E-03  0.538E-02    1.46       1.0  T
   7    -11.1333337 -0.216575E-05  0.415E-02    1.46       1.1  T
   8    -11.1333448 -0.110787E-04  0.561E-03    1.45       8.0  T
   9    -11.1333450 -0.170865E-06  0.177E-03    1.45      25.2  T
  10    -11.1333450 -0.640592E-08  0.186E-04    1.45     240.4  T
  11    -11.1333450 -0.354508E-10  0.733E-05    1.45     610.4  T
     SCC iter.                  ...        0 min,  0.001 sec
     gradient                   ...        0 min,  0.001 sec
 * total energy  :   -10.9799837 Eh     change       -0.4826065E-02 Eh
   gradient norm :     0.0375327 Eh/α   predicted    -0.5990627E-02 (  24.13%)
   displ. norm   :     0.1734374 α      lambda       -0.2712721E-02
   maximum displ.:     0.1113353 α      in ANC's #1, #3, #4, ...

........................................................................
.............................. CYCLE   18 ..............................
........................................................................
   1    -11.1493446 -0.111493E+02  0.709E-01    1.38       0.0  T
   2    -11.1487538  0.590855E-03  0.494E-01    1.35       1.0  T
   3    -11.1448117  0.394205E-02  0.729E-01    1.43       1.0  T
   4    -11.1493577 -0.454603E-02  0.140E-01    1.36       1.0  T
   5    -11.1495135 -0.155713E-03  0.370E-02    1.36       1.2  T
   6    -11.1495141 -0.676017E-06  0.255E-02    1.37       1.8  T
   7    -11.1495131  0.101610E-05  0.244E-02    1.37       1.8  T
   8    -11.1495180 -0.486338E-05  0.186E-03    1.37      24.0  T
   9    -11.1495180 -0.186016E-08  0.111E-03    1.37      40.3  T
  10    -11.1495180 -0.400177E-08  0.101E-04    1.37     441.5  T
  11    -11.1495180 -0.153566E-10  0.145E-05    1.37    3079.9  T
     SCC iter.                  ...        0 min,  0.001 sec
     gradient                   ...        0 min,  0.001 sec
 * total energy  :   -10.9802139 Eh     change       -0.2302115E-03 Eh
   gradient norm :     0.0257490 Eh/α   predicted    -0.1397160E-02 ( 506.90%)
   displ. norm   :     0.1110337 α      lambda       -0.1587582E-02
   maximum displ.:     0.0732412 α      in ANC's #1, #4, #2, ...

........................................................................
.............................. CYCLE   19 ..............................
........................................................................
   1    -11.1475500 -0.111475E+02  0.462E-01    1.45       0.0  T
   2    -11.1471662  0.383721E-03  0.338E-01    1.48       1.0  T
   3    -11.1461157  0.105052E-02  0.432E-01    1.42       1.0  T
   4    -11.1475274 -0.141171E-02  0.130E-01    1.46       1.0  T
   5    -11.1476708 -0.143376E-03  0.425E-02    1.46       1.1  T
   6    -11.1476773 -0.653922E-05  0.255E-02    1.46       1.8  T
   7    -11.1476822 -0.483006E-05  0.112E-02    1.46       4.0  T
   8    -11.1476826 -0.395987E-06  0.146E-03    1.46      30.6  T
   9    -11.1476826 -0.877194E-08  0.664E-04    1.46      67.4  T
  10    -11.1476826 -0.632664E-09  0.887E-05    1.46     504.0  T
     SCC iter.                  ...        0 min,  0.001 sec
     gradient                   ...        0 min,  0.001 sec
 * total energy  :   -10.9812080 Eh     change       -0.9940852E-03 Eh
   gradient norm :     0.0251469 Eh/α   predicted    -0.8035778E-03 ( -19.16%)
   displ. norm   :     0.0725343 α      lambda       -0.5912664E-03
   maximum displ.:     0.0426144 α      in ANC's #1, #4, #5, ...

........................................................................
.............................. CYCLE   20 ..............................
........................................................................
   1    -11.1465972 -0.111466E+02  0.310E-01    1.51       0.0  T
   2    -11.1463709  0.226310E-03  0.252E-01    1.52       1.0  T
   3    -11.1460374  0.333475E-03  0.284E-01    1.50       1.0  T
   4    -11.1466339 -0.596431E-03  0.431E-02    1.51       1.0  T
   5    -11.1466402 -0.636634E-05  0.316E-02    1.51       1.4  T
   6    -11.1466499 -0.965478E-05  0.851E-03    1.51       5.3  T
   7    -11.1466500 -0.770884E-07  0.327E-03    1.51      13.7  T
   8    -11.1466500 -0.665575E-07  0.915E-04    1.51      48.9  T
   9    -11.1466500 -0.145726E-08  0.307E-04    1.51     145.7  T
     SCC iter.                  ...        0 min,  0.001 sec
     gradient                   ...        0 min,  0.001 sec
 * total energy  :   -10.9816353 Eh     change       -0.4273122E-03 Eh
   gradient norm :     0.0242153 Eh/α   predicted    -0.2971893E-03 ( -30.45%)
   displ. norm   :     0.1191193 α      lambda       -0.8684277E-03
   maximum displ.:     0.0536254 α      in ANC's #2, #3, #4, ...
 * RMSD in coord.:     1.6873584 α      energy gain  -0.3078363E+00 Eh

generating ANC from model Hessian ...
Using Lindh-Hessian (1995)
 Shifting diagonal of input Hessian by    0.0000000000000000     
 Lowest  eigenvalues of input Hessian
   -0.000000   -0.000000   -0.000000    0.000000    0.000000    0.000000
    0.032276    0.066159    0.191968    0.385511    0.622813    1.101135
    1.241972    1.458653    2.436725
 Highest eigenvalues
    0.385511    0.622813    1.101135    1.241972    1.458653    2.436725


........................................................................
.............................. CYCLE   21 ..............................
........................................................................
   1    -11.1475299 -0.111475E+02  0.524E-01    1.57       0.0  T
   2    -11.1468304  0.699510E-03  0.409E-01    1.61       1.0  T
   3    -11.1454021  0.142827E-02  0.509E-01    1.55       1.0  T
   4    -11.1476313 -0.222917E-02  0.974E-02    1.58       1.0  T
   5    -11.1476927 -0.613635E-04  0.258E-02    1.58       1.7  T
   6    -11.1476942 -0.155262E-05  0.161E-02    1.58       2.8  T
   7    -11.1476936  0.597454E-06  0.128E-02    1.58       3.5  T
   8    -11.1476953 -0.167311E-05  0.177E-03    1.58      25.3  T
   9    -11.1476953 -0.640686E-08  0.840E-04    1.58      53.2  T
  10    -11.1476953 -0.170209E-08  0.117E-04    1.58     381.4  T
     SCC iter.                  ...        0 min,  0.001 sec
     gradient                   ...        0 min,  0.001 sec
 * total energy  :   -10.9822736 Eh     change       -0.6382943E-03 Eh
   gradient norm :     0.0293175 Eh/α   predicted     0.0000000E+00 (-100.00%)
   displ. norm   :     0.2204453 α      lambda       -0.3273122E-02
   maximum displ.:     0.1608849 α      in ANC's #2, #1, #4, ...

........................................................................
.............................. CYCLE   22 ..............................
........................................................................
   1    -11.1472655 -0.111473E+02  0.948E-01    1.50       0.0  T
   2    -11.1472599  0.554711E-05  0.549E-01    1.52       1.0  T
   3    -11.1440155  0.324449E-02  0.602E-01    1.48       1.0  T
   4    -11.1472833 -0.326787E-02  0.121E-01    1.51       1.0  T
   5    -11.1473567 -0.734199E-04  0.558E-02    1.51       1.0  T
   6    -11.1473650 -0.827771E-05  0.480E-02    1.51       1.0  T
   7    -11.1473820 -0.170270E-04  0.237E-02    1.51       1.9  T
   8    -11.1473853 -0.328255E-05  0.155E-03    1.51      28.9  T
   9    -11.1473853 -0.202141E-08  0.716E-04    1.51      62.4  T
  10    -11.1473853 -0.903528E-09  0.111E-04    1.51     403.0  T
     SCC iter.                  ...        0 min,  0.001 sec
     gradient                   ...        0 min,  0.001 sec
 * total energy  :   -10.9839114 Eh     change       -0.1637824E-02 Eh
   gradient norm :     0.0232612 Eh/α   predicted    -0.1716094E-02 (   4.78%)
   displ. norm   :     0.0372832 α      lambda       -0.5661966E-03
   maximum displ.:     0.0230621 α      in ANC's #4, #3, #2, ...

........................................................................
.............................. CYCLE   23 ..............................
........................................................................
   1    -11.1539626 -0.111540E+02  0.205E-01    1.54       0.0  T
   2    -11.1537930  0.169567E-03  0.191E-01    1.55       1.0  T
   3    -11.1538350 -0.420144E-04  0.159E-01    1.53       1.0  T
   4    -11.1539775 -0.142497E-03  0.517E-02    1.54       1.0  T
   5    -11.1539989 -0.213573E-04  0.285E-02    1.54       1.6  T
   6    -11.1540047 -0.584723E-05  0.120E-02    1.54       3.7  T
   7    -11.1540055 -0.784665E-06  0.763E-03    1.54       5.9  T
   8    -11.1540057 -0.248733E-06  0.884E-04    1.54      50.6  T
   9    -11.1540057 -0.991031E-09  0.351E-04    1.54     127.5  T
     SCC iter.                  ...        0 min,  0.001 sec
     gradient                   ...        0 min,  0.001 sec
 * total energy  :   -10.9843419 Eh     change       -0.4304477E-03 Eh
   gradient norm :     0.0128320 Eh/α   predicted    -0.2834932E-03 ( -34.14%)
   displ. norm   :     0.1017480 α      lambda       -0.7893158E-03
   maximum displ.:     0.0613785 α      in ANC's #3, #1, #4, ...

........................................................................
.............................. CYCLE   24 ..............................
........................................................................
   1    -11.1618521 -0.111619E+02  0.501E-01    1.58       0.0  T
   2    -11.1611350  0.717090E-03  0.426E-01    1.60       1.0  T
   3    -11.1607310  0.404001E-03  0.421E-01    1.57       1.0  T
   4    -11.1619342 -0.120325E-02  0.112E-01    1.58       1.0  T
   5    -11.1620221 -0.878799E-04  0.451E-02    1.58       1.0  T
   6    -11.1620338 -0.117246E-04  0.262E-02    1.59       1.7  T
   7    -11.1620377 -0.389894E-05  0.139E-02    1.58       3.2  T
   8    -11.1620384 -0.625881E-06  0.230E-03    1.58      19.4  T
   9    -11.1620384 -0.127144E-07  0.834E-04    1.58      53.6  T
  10    -11.1620384 -0.233739E-08  0.139E-04    1.58     322.5  T
     SCC iter.                  ...        0 min,  0.001 sec
     gradient                   ...        0 min,  0.002 sec
 * total energy  :   -10.9849470 Eh     change       -0.6051543E-03 Eh
   gradient norm :     0.0147244 Eh/α   predicted    -0.3987421E-03 ( -34.11%)
   displ. norm   :     0.2292920 α      lambda       -0.1495078E-02
   maximum displ.:     0.1643683 α      in ANC's #3, #1, #4, ...

........................................................................
.............................. CYCLE   25 ..............................
........................................................................
   1    -11.1737008 -0.111737E+02  0.104E+00    1.68       0.0  T
   2    -11.1716234  0.207742E-02  0.806E-01    1.71       1.0  T
   3    -11.1678423  0.378107E-02  0.901E-01    1.66       1.0  T
   4    -11.1740573 -0.621499E-02  0.231E-01    1.67       1.0  T
   5    -11.1743565 -0.299211E-03  0.899E-02    1.68       1.0  T
   6    -11.1743915 -0.350092E-04  0.593E-02    1.68       1.0  T
   7    -11.1744141 -0.225993E-04  0.437E-02    1.68       1.0  T
   8    -11.1744234 -0.928770E-05  0.425E-03    1.68      10.5  T
   9    -11.1744234 -0.112167E-07  0.251E-03    1.68      17.8  T
  10    -11.1744235 -0.249538E-07  0.285E-04    1.68     156.9  T
  11    -11.1744235 -0.199368E-09  0.338E-05    1.68    1322.6  T
     SCC iter.                  ...        0 min,  0.001 sec
     gradient                   ...        0 min,  0.001 sec
 * total energy  :   -10.9863490 Eh     change       -0.1402013E-02 Eh
   gradient norm :     0.0377249 Eh/α   predicted    -0.7868439E-03 ( -43.88%)
   displ. norm   :     0.8420664 α      lambda       -0.6055038E-02
   maximum displ.:     0.6355474 α      in ANC's #3, #4, #1, ...

........................................................................
.............................. CYCLE   26 ..............................
........................................................................
   1    -11.1890763 -0.111891E+02  0.259E+00    1.12       0.0  T
   2    -11.1866456  0.243078E-02  0.170E+00    1.18       1.0  T
   3    -11.1029350  0.837105E-01  0.275E+00    0.95       1.0  T
   4    -11.1690688 -0.661338E-01  0.143E+00    1.26       1.0  T
   5    -11.1903109 -0.212421E-01  0.283E-01    1.14       1.0  T
   6    -11.1908179 -0.506936E-03  0.139E-01    1.13       1.0  T
   7    -11.1907556  0.622714E-04  0.131E-01    1.12       1.0  T
   8    -11.1908880 -0.132436E-03  0.399E-02    1.12       1.1  T
   9    -11.1908967 -0.865235E-05  0.109E-02    1.12       4.1  T
  10    -11.1908974 -0.704252E-06  0.154E-03    1.12      29.0  T
  11    -11.1908974 -0.147191E-07  0.429E-04    1.12     104.2  T
  12    -11.1908974 -0.214500E-09  0.345E-05    1.12    1297.1  T
     SCC iter.                  ...        0 min,  0.001 sec
     gradient                   ...        0 min,  0.001 sec
 * total energy  :   -10.9837532 Eh     change        0.2595829E-02 Eh
   gradient norm :     0.1437091 Eh/α   predicted    -0.5174269E-02 (-299.33%)
   displ. norm   :     0.3748383 α      lambda       -0.1260950E-01
   maximum displ.:     0.2582111 α      in ANC's #3, #4, #1, ...

........................................................................
.............................. CYCLE   27 ..............................
........................................................................
   1    -11.1911476 -0.111911E+02  0.125E+00    1.62       0.0  T
   2    -11.1899076  0.123995E-02  0.827E-01    1.61       1.0  T
   3    -11.1798192  0.100884E-01  0.117E+00    1.63       1.0  T
   4    -11.1908860 -0.110668E-01  0.336E-01    1.61       1.0  T
   5    -11.1916041 -0.718118E-03  0.102E-01    1.62       1.0  T
   6    -11.1916148 -0.107136E-04  0.109E-01    1.60       1.0  T
   7    -11.1917075 -0.927160E-04  0.345E-02    1.61       1.3  T
   8    -11.1917105 -0.301276E-05  0.676E-03    1.61       6.6  T
   9    -11.1917107 -0.170236E-06  0.303E-03    1.61      14.8  T
  10    -11.1917107 -0.240385E-07  0.400E-04    1.61     111.9  T
  11    -11.1917107 -0.698499E-09  0.399E-05    1.61    1121.4  T
     SCC iter.                  ...        0 min,  0.001 sec
     gradient                   ...        0 min,  0.002 sec
 * total energy  :   -10.9906226 Eh     change       -0.6869401E-02 Eh
   gradient norm :     0.0854305 Eh/α   predicted    -0.7190583E-02 (   4.68%)
   displ. norm   :     0.1072526 α      lambda       -0.4073509E-02
   maximum displ.:     0.0785914 α      in ANC's #3, #2, #1, ...

........................................................................
.............................. CYCLE   28 ..............................
........................................................................
   1    -11.1978508 -0.111979E+02  0.438E-01    1.73       0.0  T
   2    -11.1978205  0.302568E-04  0.264E-01    1.72       1.0  T
   3    -11.1958636  0.195693E-02  0.405E-01    1.77       1.0  T
   4    -11.1978606 -0.199703E-02  0.370E-02    1.72       1.2  T
   5    -11.1978655 -0.489156E-05  0.218E-02    1.72       2.1  T
   6    -11.1978657 -0.190175E-06  0.146E-02    1.72       3.1  T
   7    -11.1978660 -0.323334E-06  0.139E-02    1.72       3.2  T
   8    -11.1978674 -0.141284E-05  0.210E-03    1.72      21.3  T
   9    -11.1978674 -0.164493E-07  0.661E-04    1.72      67.6  T
  10    -11.1978674 -0.126603E-08  0.843E-05    1.72     530.4  T
     SCC iter.                  ...        0 min,  0.001 sec
     gradient                   ...        0 min,  0.001 sec
 * total energy  :   -10.9944939 Eh     change       -0.3871265E-02 Eh
   gradient norm :     0.0775140 Eh/α   predicted    -0.2060185E-02 ( -46.78%)
   displ. norm   :     0.7581380 α      lambda       -0.2634449E-01
   maximum displ.:     0.6246254 α      in ANC's #3, #2, #6, ...

........................................................................
.............................. CYCLE   29 ..............................
........................................................................
   1    -11.2113791 -0.112114E+02  0.246E+00    2.02       0.0  T
   2    -11.0380049  0.173374E+00  0.415E+00    1.64       1.0  T
   3    -11.2000681 -0.162063E+00  0.174E+00    2.04       1.0  T
   4    -11.2160491 -0.159810E-01  0.793E-01    2.00       1.0  T
   5    -11.2180663 -0.201723E-02  0.547E-01    1.92       1.0  T
   6    -11.2190566 -0.990287E-03  0.425E-01    1.93       1.0  T
   7    -11.2194742 -0.417580E-03  0.276E-01    1.93       1.0  T
   8    -11.2200098 -0.535642E-03  0.623E-02    1.90       1.0  T
   9    -11.2200165 -0.663921E-05  0.506E-02    1.91       1.0  T
  10    -11.2200309 -0.144335E-04  0.147E-02    1.90       3.0  T
  11    -11.2200315 -0.542131E-06  0.343E-03    1.90      13.0  T
  12    -11.2200315 -0.546836E-07  0.583E-04    1.90      76.7  T
  13    -11.2200315 -0.265406E-08  0.117E-04    1.90     383.0  T
     SCC iter.                  ...        0 min,  0.001 sec
     gradient                   ...        0 min,  0.001 sec
 * total energy  :   -11.0137168 Eh     change       -0.1922288E-01 Eh
   gradient norm :     0.0439837 Eh/α   predicted    -0.2074326E-01 (   7.91%)
   displ. norm   :     0.6298808 α      lambda       -0.1188194E-01
   maximum displ.:     0.5082453 α      in ANC's #3, #2, #5, ...

........................................................................
.............................. CYCLE   30 ..............................
........................................................................
   1    -11.2032030 -0.112032E+02  0.169E+00    1.34       0.0  T
   2    -11.1536198  0.495832E-01  0.227E+00    1.06       1.0  T
   3    -11.1840054 -0.303856E-01  0.155E+00    1.44       1.0  T
   4    -11.1987733 -0.147679E-01  0.918E-01    1.40       1.0  T
   5    -11.2027174 -0.394410E-02  0.535E-01    1.29       1.0  T
   6    -11.2047943 -0.207693E-02  0.330E-01    1.29       1.0  T
   7    -11.2048370 -0.426593E-04  0.307E-01    1.29       1.0  T
   8    -11.2054453 -0.608264E-03  0.117E-01    1.27       1.0  T
   9    -11.2055355 -0.902505E-04  0.500E-02    1.26       1.0  T
  10    -11.2055544 -0.188769E-04  0.441E-03    1.26      10.1  T
  11    -11.2055545 -0.963075E-07  0.172E-03    1.25      26.0  T
  12    -11.2055545 -0.125453E-07  0.134E-04    1.25     333.8  T
  13    -11.2055545  0.530154E-10  0.117E-04    1.25     381.6  T
     SCC iter.                  ...        0 min,  0.001 sec
     gradient                   ...        0 min,  0.001 sec
 * total energy  :   -11.0188984 Eh     change       -0.5181655E-02 Eh
   gradient norm :     0.0795705 Eh/α   predicted    -0.8298070E-02 (  60.14%)
   displ. norm   :     0.1510286 α      lambda       -0.6375358E-02
   maximum displ.:     0.0953770 α      in ANC's #2, #1, #8, ...

........................................................................
.............................. CYCLE   31 ..............................
........................................................................
   1    -11.2309688 -0.112310E+02  0.875E-01    1.34       0.0  T
   2    -11.1669904  0.639784E-01  0.240E+00    1.14       1.0  T
   3    -11.2317757 -0.647852E-01  0.545E-01    1.33       1.0  T
   4    -11.2301842  0.159145E-02  0.598E-01    1.26       1.0  T
   5    -11.2324715 -0.228724E-02  0.204E-01    1.31       1.0  T
   6    -11.2326303 -0.158817E-03  0.151E-01    1.29       1.0  T
   7    -11.2327127 -0.824606E-04  0.112E-01    1.29       1.0  T
   8    -11.2327918 -0.790531E-04  0.612E-02    1.29       1.0  T
   9    -11.2327989 -0.711812E-05  0.538E-02    1.28       1.0  T
  10    -11.2328224 -0.234662E-04  0.629E-03    1.28       7.1  T
  11    -11.2328227 -0.301241E-06  0.112E-03    1.28      39.9  T
  12    -11.2328227 -0.562907E-08  0.261E-04    1.28     171.3  T
  13    -11.2328227 -0.361242E-09  0.139E-04    1.28     322.7  T
     SCC iter.                  ...        0 min,  0.001 sec
     gradient                   ...        0 min,  0.001 sec
 * total energy  :   -11.0235661 Eh     change       -0.4667654E-02 Eh
   gradient norm :     0.0580729 Eh/α   predicted    -0.3260386E-02 ( -30.15%)
   displ. norm   :     0.3574233 α      lambda       -0.1209882E-01
   maximum displ.:     0.1935338 α      in ANC's #8, #5, #4, ...

........................................................................
.............................. CYCLE   32 ..............................
........................................................................
   1    -11.2679273 -0.112679E+02  0.157E+00    1.42       0.0  T
   2    -10.9710238  0.296904E+00  0.556E+00    1.05       1.0  T
   3    -11.2687373 -0.297713E+00  0.109E+00    1.35       1.0  T
   4    -11.2432294  0.255078E-01  0.186E+00    1.23       1.0  T
   5    -11.2713943 -0.281649E-01  0.340E-01    1.36       1.0  T
   6    -11.2717739 -0.379576E-03  0.222E-01    1.35       1.0  T
   7    -11.2717492  0.247239E-04  0.206E-01    1.34       1.0  T
   8    -11.2720291 -0.279903E-03  0.122E-01    1.34       1.0  T
   9    -11.2720597 -0.306041E-04  0.106E-01    1.34       1.0  T
  10    -11.2721247 -0.649837E-04  0.542E-02    1.33       1.0  T
  11    -11.2721350 -0.103550E-04  0.390E-02    1.33       1.1  T
  12    -11.2721461 -0.110691E-04  0.193E-03    1.32      23.2  T
  13    -11.2721461 -0.274473E-07  0.560E-04    1.32      79.9  T
  14    -11.2721461 -0.819059E-09  0.212E-04    1.32     210.7  T
     SCC iter.                  ...        0 min,  0.002 sec
     gradient                   ...        0 min,  0.001 sec
 * total energy  :   -11.0369841 Eh     change       -0.1341807E-01 Eh
   gradient norm :     0.0788031 Eh/α   predicted    -0.6822235E-02 ( -49.16%)
   displ. norm   :     0.4688334 α      lambda       -0.1883386E-01
   maximum displ.:     0.2558636 α      in ANC's #5, #8, #3, ...

........................................................................
.............................. CYCLE   33 ..............................
........................................................................
   1    -11.2486749 -0.112487E+02  0.263E+00    1.85       0.0  T
   2    -10.9388615  0.309813E+00  0.539E+00    2.79       1.0  T
   3    -11.2768412 -0.337980E+00  0.131E+00    2.12       1.0  T
   4    -11.2213135  0.555276E-01  0.247E+00    1.90       1.0  T
   5    -11.2788295 -0.575160E-01  0.108E+00    2.04       1.0  T
   6    -11.2796995 -0.869998E-03  0.968E-01    2.08       1.0  T
   7    -11.2793158  0.383692E-03  0.987E-01    2.08       1.0  T
   8    -11.2819309 -0.261511E-02  0.789E-01    2.05       1.0  T
   9    -11.2844436 -0.251267E-02  0.527E-01    2.02       1.0  T
  10    -11.2857990 -0.135543E-02  0.291E-01    1.99       1.0  T
  11    -11.2864050 -0.606012E-03  0.238E-02    1.97       1.9  T
  12    -11.2864076 -0.258149E-05  0.903E-03    1.97       5.0  T
  13    -11.2864079 -0.287544E-06  0.739E-03    1.97       6.1  T
  14    -11.2864082 -0.299344E-06  0.246E-03    1.97      18.2  T
  15    -11.2864082 -0.375191E-07  0.451E-04    1.97      99.2  T
  16    -11.2864082  0.529277E-08  0.946E-04    1.97      47.3  T
     SCC iter.                  ...        0 min,  0.002 sec
     gradient                   ...        0 min,  0.001 sec
 * total energy  :   -11.0542375 Eh     change       -0.1725337E-01 Eh
   gradient norm :     0.1096664 Eh/α   predicted    -0.1148681E-01 ( -33.42%)
   displ. norm   :     0.6790233 α      lambda       -0.3613907E-01
   maximum displ.:     0.4429072 α      in ANC's #8, #5, #6, ...

........................................................................
.............................. CYCLE   34 ..............................
........................................................................
   1    -11.2595020 -0.112595E+02  0.285E+00    2.78       0.0  T
   2    -10.9081368  0.351365E+00  0.570E+00    2.48       1.0  T
   3    -11.2814741 -0.373337E+00  0.153E+00    2.74       1.0  T
   4    -11.2738938  0.758032E-02  0.150E+00    2.74       1.0  T
   5    -11.2747326 -0.838863E-03  0.106E+00    2.75       1.0  T
   6    -11.2882049 -0.134723E-01  0.594E-01    2.68       1.0  T
   7    -11.2895312 -0.132634E-02  0.464E-01    2.69       1.0  T
   8    -11.2906884 -0.115723E-02  0.277E-01    2.69       1.0  T
   9    -11.2908336 -0.145191E-03  0.241E-01    2.70       1.0  T
  10    -11.2912253 -0.391709E-03  0.922E-02    2.71       1.0  T
  11    -11.2912787 -0.533595E-04  0.134E-02    2.72       3.3  T
  12    -11.2912800 -0.131836E-05  0.463E-03    2.71       9.7  T
  13    -11.2912802 -0.155396E-06  0.791E-04    2.71      56.6  T
  14    -11.2912802 -0.406921E-08  0.731E-05    2.71     611.9  T
     SCC iter.                  ...        0 min,  0.001 sec
     gradient                   ...        0 min,  0.001 sec
 * total energy  :   -11.0667077 Eh     change       -0.1247016E-01 Eh
   gradient norm :     0.1786011 Eh/α   predicted    -0.2640094E-01 ( 111.71%)
   displ. norm   :     0.2901812 α      lambda       -0.2372540E-01
   maximum displ.:     0.2444122 α      in ANC's #3, #4, #7, ...

........................................................................
.............................. CYCLE   35 ..............................
........................................................................
   1    -11.3414027 -0.113414E+02  0.125E+00    3.25       0.0  T
   2    -11.2530525  0.883502E-01  0.275E+00    3.34       1.0  T
   3    -11.3415252 -0.884727E-01  0.765E-01    3.26       1.0  T
   4    -11.3380719  0.345330E-02  0.880E-01    3.24       1.0  T
   5    -11.3440164 -0.594449E-02  0.154E-01    3.27       1.0  T
   6    -11.3439161  0.100259E-03  0.153E-01    3.26       1.0  T
   7    -11.3440964 -0.180333E-03  0.693E-02    3.27       1.0  T
   8    -11.3441147 -0.182870E-04  0.476E-02    3.27       1.0  T
   9    -11.3441332 -0.185159E-04  0.141E-02    3.27       3.2  T
  10    -11.3441344 -0.115946E-05  0.505E-03    3.27       8.9  T
  11    -11.3441346 -0.187422E-06  0.169E-03    3.27      26.5  T
  12    -11.3441346 -0.181183E-07  0.113E-04    3.27     394.9  T
  13    -11.3441346 -0.314504E-10  0.992E-05    3.27     450.9  T
     SCC iter.                  ...        0 min,  0.001 sec
     gradient                   ...        0 min,  0.001 sec
 * total energy  :   -11.0778580 Eh     change       -0.1115030E-01 Eh
   gradient norm :     0.0786162 Eh/α   predicted    -0.1286161E-01 (  15.35%)
   displ. norm   :     0.2845569 α      lambda       -0.8857860E-02
   maximum displ.:     0.1805813 α      in ANC's #3, #6, #8, ...

........................................................................
.............................. CYCLE   36 ..............................
........................................................................
   1    -11.3232530 -0.113233E+02  0.724E-01    3.37       0.0  T
   2    -11.3184981  0.475495E-02  0.796E-01    3.30       1.0  T
   3    -11.3169577  0.154041E-02  0.749E-01    3.36       1.0  T
   4    -11.3197445 -0.278683E-02  0.636E-01    3.35       1.0  T
   5    -11.3239679 -0.422341E-02  0.821E-02    3.33       1.0  T
   6    -11.3239981 -0.302057E-04  0.469E-02    3.33       1.0  T
   7    -11.3240080 -0.984571E-05  0.238E-02    3.34       1.9  T
   8    -11.3240125 -0.448328E-05  0.572E-03    3.34       7.8  T
   9    -11.3240128 -0.304201E-06  0.371E-03    3.34      12.1  T
  10    -11.3240129 -0.118260E-06  0.233E-04    3.34     192.2  T
  11    -11.3240129  0.264389E-09  0.229E-04    3.34     195.6  T
     SCC iter.                  ...        0 min,  0.001 sec
     gradient                   ...        0 min,  0.001 sec
 * total energy  :   -11.0821089 Eh     change       -0.4250893E-02 Eh
   gradient norm :     0.0512886 Eh/α   predicted    -0.4787558E-02 (  12.62%)
   displ. norm   :     0.1418822 α      lambda       -0.3101560E-02
   maximum displ.:     0.0875089 α      in ANC's #8, #3, #1, ...

........................................................................
.............................. CYCLE   37 ..............................
........................................................................
   1    -11.3310223 -0.113310E+02  0.537E-01    3.41       0.0  T
   2    -11.3303692  0.653047E-03  0.396E-01    3.38       1.0  T
   3    -11.3209591  0.941016E-02  0.878E-01    3.45       1.0  T
   4    -11.3291034 -0.814433E-02  0.415E-01    3.41       1.0  T
   5    -11.3310897 -0.198633E-02  0.725E-02    3.40       1.0  T
   6    -11.3311344 -0.446986E-04  0.342E-02    3.40       1.3  T
   7    -11.3311327  0.170973E-05  0.311E-02    3.40       1.4  T
   8    -11.3311393 -0.652851E-05  0.108E-02    3.40       4.1  T
   9    -11.3311402 -0.945098E-06  0.393E-03    3.40      11.4  T
  10    -11.3311403 -0.972527E-07  0.175E-04    3.40     256.0  T
  11    -11.3311403  0.660272E-11  0.838E-05    3.40     533.8  T
     SCC iter.                  ...        0 min,  0.001 sec
     gradient                   ...        0 min,  0.002 sec
 * total energy  :   -11.0844063 Eh     change       -0.2297418E-02 Eh
   gradient norm :     0.0359792 Eh/α   predicted    -0.1582000E-02 ( -31.14%)
   displ. norm   :     0.1495125 α      lambda       -0.2459667E-02
   maximum displ.:     0.1039113 α      in ANC's #8, #3, #2, ...

........................................................................
.............................. CYCLE   38 ..............................
........................................................................
   1    -11.3389533 -0.113390E+02  0.574E-01    3.40       0.0  T
   2    -11.3389126  0.407249E-04  0.343E-01    3.39       1.0  T
   3    -11.3336265  0.528602E-02  0.623E-01    3.44       1.0  T
   4    -11.3387407 -0.511416E-02  0.138E-01    3.40       1.0  T
   5    -11.3389697 -0.229035E-03  0.322E-02    3.39       1.4  T
   6    -11.3389733 -0.353632E-05  0.158E-02    3.39       2.8  T
   7    -11.3389737 -0.375344E-06  0.545E-03    3.39       8.2  T
   8    -11.3389738 -0.117324E-06  0.169E-03    3.39      26.4  T
   9    -11.3389738 -0.252412E-07  0.773E-04    3.39      57.9  T
  10    -11.3389738 -0.278393E-08  0.118E-04    3.39     380.6  T
     SCC iter.                  ...        0 min,  0.001 sec
     gradient                   ...        0 min,  0.001 sec
 * total energy  :   -11.0860354 Eh     change       -0.1629170E-02 Eh
   gradient norm :     0.0257582 Eh/α   predicted    -0.1257321E-02 ( -22.82%)
   displ. norm   :     0.0993145 α      lambda       -0.1310231E-02
   maximum displ.:     0.0661769 α      in ANC's #8, #1, #2, ...

........................................................................
.............................. CYCLE   39 ..............................
........................................................................
   1    -11.3477359 -0.113477E+02  0.359E-01    3.46       0.0  T
   2    -11.3477157  0.202417E-04  0.222E-01    3.44       1.0  T
   3    -11.3450238  0.269181E-02  0.443E-01    3.47       1.0  T
   4    -11.3476713 -0.264747E-02  0.847E-02    3.44       1.0  T
   5    -11.3477460 -0.746440E-04  0.273E-02    3.45       1.6  T
   6    -11.3477513 -0.538046E-05  0.122E-02    3.44       3.7  T
   7    -11.3477517 -0.385860E-06  0.573E-03    3.45       7.8  T
   8    -11.3477521 -0.319178E-06  0.833E-04    3.45      53.7  T
   9    -11.3477521 -0.527217E-08  0.376E-04    3.45     118.8  T
     SCC iter.                  ...        0 min,  0.001 sec
     gradient                   ...        0 min,  0.001 sec
 * total energy  :   -11.0869487 Eh     change       -0.9132773E-03 Eh
   gradient norm :     0.0226677 Eh/α   predicted    -0.6615776E-03 ( -27.56%)
   displ. norm   :     0.1716350 α      lambda       -0.1797266E-02
   maximum displ.:     0.1408736 α      in ANC's #8, #2, #6, ...

........................................................................
.............................. CYCLE   40 ..............................
........................................................................
   1    -11.3476627 -0.113477E+02  0.580E-01    3.38       0.0  T
   2    -11.3476586  0.407676E-05  0.345E-01    3.39       1.0  T
   3    -11.3472676  0.391021E-03  0.217E-01    3.37       1.0  T
   4    -11.3476765 -0.408923E-03  0.246E-02    3.38       1.8  T
   5    -11.3476683  0.816119E-05  0.291E-02    3.39       1.5  T
   6    -11.3476634  0.495302E-05  0.313E-02    3.38       1.4  T
   7    -11.3476774 -0.140229E-04  0.138E-03    3.38      32.3  T
   8    -11.3476774 -0.164221E-09  0.846E-04    3.38      52.8  T
   9    -11.3476774 -0.235974E-08  0.181E-04    3.38     247.2  T
     SCC iter.                  ...        0 min,  0.001 sec
     gradient                   ...        0 min,  0.001 sec
 * total energy  :   -11.0882457 Eh     change       -0.1296957E-02 Eh
   gradient norm :     0.0252792 Eh/α   predicted    -0.9251041E-03 ( -28.67%)
   displ. norm   :     0.2800813 α      lambda       -0.3289034E-02
   maximum displ.:     0.1774185 α      in ANC's #8, #3, #5, ...

........................................................................
.............................. CYCLE   41 ..............................
........................................................................
   1    -11.3548483 -0.113548E+02  0.910E-01    3.35       0.0  T
   2    -11.3543722  0.476074E-03  0.572E-01    3.38       1.0  T
   3    -11.3418372  0.125350E-01  0.103E+00    3.27       1.0  T
   4    -11.3540134 -0.121763E-01  0.309E-01    3.35       1.0  T
   5    -11.3548470 -0.833570E-03  0.107E-01    3.36       1.0  T
   6    -11.3549858 -0.138833E-03  0.347E-02    3.36       1.3  T
   7    -11.3549853  0.498688E-06  0.175E-02    3.36       2.6  T
   8    -11.3549874 -0.203786E-05  0.472E-03    3.36       9.5  T
   9    -11.3549876 -0.174734E-06  0.213E-03    3.36      21.0  T
  10    -11.3549876 -0.159839E-07  0.165E-04    3.36     270.4  T
  11    -11.3549876  0.137543E-10  0.100E-04    3.36     445.6  T
     SCC iter.                  ...        0 min,  0.001 sec
     gradient                   ...        0 min,  0.001 sec
 * total energy  :   -11.0906996 Eh     change       -0.2453874E-02 Eh
   gradient norm :     0.0230831 Eh/α   predicted    -0.1773517E-02 ( -27.73%)
   displ. norm   :     0.4357048 α      lambda       -0.3997195E-02
   maximum displ.:     0.3201395 α      in ANC's #3, #8, #5, ...

........................................................................
.............................. CYCLE   42 ..............................
........................................................................
   1    -11.3415598 -0.113416E+02  0.138E+00    3.20       0.0  T
   2    -11.3414759  0.839339E-04  0.807E-01    3.23       1.0  T
   3    -11.3305417  0.109342E-01  0.916E-01    3.15       1.0  T
   4    -11.3415080 -0.109664E-01  0.137E-01    3.21       1.0  T
   5    -11.3416164 -0.108414E-03  0.839E-02    3.22       1.0  T
   6    -11.3416728 -0.563237E-04  0.345E-02    3.22       1.3  T
   7    -11.3416612  0.115599E-04  0.300E-02    3.22       1.5  T
   8    -11.3416743 -0.131382E-04  0.568E-03    3.22       7.9  T
   9    -11.3416746 -0.261948E-06  0.246E-03    3.22      18.2  T
  10    -11.3416746 -0.297016E-07  0.314E-04    3.22     142.3  T
  11    -11.3416746  0.331671E-09  0.299E-04    3.22     149.5  T
     SCC iter.                  ...        0 min,  0.001 sec
     gradient                   ...        0 min,  0.001 sec
 * total energy  :   -11.0928462 Eh     change       -0.2146665E-02 Eh
   gradient norm :     0.0535700 Eh/α   predicted    -0.2378000E-02 (  10.78%)
   displ. norm   :     0.2107335 α      lambda       -0.3721249E-02
   maximum displ.:     0.1430869 α      in ANC's #3, #5, #2, ...
 * RMSD in coord.:     1.8055609 α      energy gain  -0.1112109E+00 Eh

generating ANC from model Hessian ...
Using Lindh-Hessian (1995)
 Shifting diagonal of input Hessian by    9.6508211276570485E-003
 Lowest  eigenvalues of input Hessian
   -0.000000   -0.000000   -0.000000    0.000000    0.000000    0.000000
    0.010000    0.013372    0.138805    0.345714    0.566031    1.131267
    1.213231    2.332726    2.952858
 Highest eigenvalues
    0.345714    0.566031    1.131267    1.213231    2.332726    2.952858


........................................................................
.............................. CYCLE   43 ..............................
........................................................................
   1    -11.3609022 -0.113609E+02  0.820E-01    3.35       0.0  T
   2    -11.3556416  0.526065E-02  0.807E-01    3.40       1.0  T
   3    -11.3517100  0.393156E-02  0.897E-01    3.32       1.0  T
   4    -11.3602859 -0.857593E-02  0.329E-01    3.34       1.0  T
   5    -11.3610997 -0.813777E-03  0.147E-01    3.36       1.0  T
   6    -11.3612674 -0.167739E-03  0.944E-02    3.36       1.0  T
   7    -11.3612749 -0.748914E-05  0.735E-02    3.36       1.0  T
   8    -11.3613127 -0.377621E-04  0.864E-03    3.37       5.2  T
   9    -11.3613129 -0.223017E-06  0.389E-03    3.37      11.5  T
  10    -11.3613129 -0.288191E-07  0.231E-04    3.37     193.8  T
  11    -11.3613129 -0.362494E-09  0.920E-05    3.37     486.0  T
     SCC iter.                  ...        0 min,  0.001 sec
     gradient                   ...        0 min,  0.001 sec
 * total energy  :   -11.0925901 Eh     change        0.2560954E-03 Eh
   gradient norm :     0.0759194 Eh/α   predicted     0.0000000E+00 (-100.00%)
   displ. norm   :     0.3185873 α      lambda       -0.4930953E-02
   maximum displ.:     0.3091736 α      in ANC's #2, #1, #7, ...

........................................................................
.............................. CYCLE   44 ..............................
........................................................................
   1    -11.3483894 -0.113484E+02  0.114E+00    3.31       0.0  T
   2    -11.3457710  0.261841E-02  0.840E-01    3.26       1.0  T
   3    -11.1490603  0.196711E+00  0.379E+00    3.38       1.0  T
   4    -11.3487101 -0.199650E+00  0.202E-01    3.28       1.0  T
   5    -11.3485290  0.181141E-03  0.170E-01    3.27       1.0  T
   6    -11.3484765  0.524790E-04  0.168E-01    3.27       1.0  T
   7    -11.3485834 -0.106915E-03  0.133E-01    3.27       1.0  T
   8    -11.3486857 -0.102273E-03  0.893E-02    3.27       1.0  T
   9    -11.3487038 -0.181294E-04  0.763E-02    3.27       1.0  T
  10    -11.3487400 -0.361465E-04  0.417E-02    3.27       1.1  T
  11    -11.3487517 -0.117427E-04  0.198E-02    3.28       2.3  T
  12    -11.3487552 -0.345960E-05  0.992E-04    3.28      45.1  T
  13    -11.3487552 -0.784719E-08  0.170E-04    3.28     263.6  T
  14    -11.3487552 -0.137897E-09  0.447E-05    3.28     999.9  T
     SCC iter.                  ...        0 min,  0.001 sec
     gradient                   ...        0 min,  0.001 sec
 * total energy  :   -11.0941661 Eh     change       -0.1575970E-02 Eh
   gradient norm :     0.0356054 Eh/α   predicted    -0.2715713E-02 (  72.32%)
   displ. norm   :     0.2729908 α      lambda       -0.3147309E-02
   maximum displ.:     0.2007138 α      in ANC's #1, #2, #3, ...

........................................................................
.............................. CYCLE   45 ..............................
........................................................................
   1    -11.3623512 -0.113624E+02  0.112E+00    3.43       0.0  T
   2    -11.3623883 -0.371226E-04  0.635E-01    3.42       1.0  T
   3    -11.3589654  0.342291E-02  0.508E-01    3.43       1.0  T
   4    -11.3616392 -0.267382E-02  0.246E-01    3.41       1.0  T
   5    -11.3624116 -0.772426E-03  0.627E-02    3.42       1.0  T
   6    -11.3624386 -0.269607E-04  0.292E-02    3.41       1.5  T
   7    -11.3624433 -0.469096E-05  0.467E-03    3.42       9.6  T
   8    -11.3624433 -0.131920E-08  0.133E-03    3.42      33.5  T
   9    -11.3624433  0.401638E-08  0.102E-03    3.42      44.0  T
  10    -11.3624433 -0.111037E-07  0.124E-04    3.42     361.7  T
  11    -11.3624433 -0.483720E-10  0.542E-05    3.42     824.5  T
     SCC iter.                  ...        0 min,  0.001 sec
     gradient                   ...        0 min,  0.001 sec
 * total energy  :   -11.0945453 Eh     change       -0.3791972E-03 Eh
   gradient norm :     0.0163681 Eh/α   predicted    -0.1690934E-02 ( 345.92%)
   displ. norm   :     0.2394489 α      lambda       -0.1619136E-02
   maximum displ.:     0.2344985 α      in ANC's #1, #2, #3, ...

........................................................................
.............................. CYCLE   46 ..............................
........................................................................
   1    -11.3674522 -0.113675E+02  0.106E+00    3.44       0.0  T
   2    -11.3672823  0.169873E-03  0.622E-01    3.45       1.0  T
   3    -11.3529700  0.143123E-01  0.101E+00    3.38       1.0  T
   4    -11.3673757 -0.144057E-01  0.113E-01    3.43       1.0  T
   5    -11.3675239 -0.148163E-03  0.452E-02    3.44       1.0  T
   6    -11.3675279 -0.406489E-05  0.281E-02    3.44       1.6  T
   7    -11.3675322 -0.424094E-05  0.103E-02    3.44       4.4  T
   8    -11.3675327 -0.520255E-06  0.556E-03    3.44       8.0  T
   9    -11.3675329 -0.169548E-06  0.220E-03    3.44      20.3  T
  10    -11.3675329 -0.269254E-07  0.323E-04    3.44     138.4  T
  11    -11.3675329 -0.586660E-09  0.221E-04    3.44     202.6  T
     SCC iter.                  ...        0 min,  0.001 sec
     gradient                   ...        0 min,  0.001 sec
 * total energy  :   -11.0947670 Eh     change       -0.2216885E-03 Eh
   gradient norm :     0.0161436 Eh/α   predicted    -0.8559869E-03 ( 286.12%)
   displ. norm   :     0.1788905 α      lambda       -0.1038539E-02
   maximum displ.:     0.1413987 α      in ANC's #2, #1, #3, ...

........................................................................
.............................. CYCLE   47 ..............................
........................................................................
   1    -11.3616839 -0.113617E+02  0.689E-01    3.39       0.0  T
   2    -11.3616771  0.685606E-05  0.408E-01    3.39       1.0  T
   3    -11.3596194  0.205771E-02  0.391E-01    3.42       1.0  T
   4    -11.3613223 -0.170287E-02  0.170E-01    3.38       1.0  T
   5    -11.3617033 -0.381086E-03  0.322E-02    3.39       1.4  T
   6    -11.3617061 -0.273234E-05  0.157E-02    3.39       2.9  T
   7    -11.3617075 -0.142981E-05  0.326E-03    3.39      13.7  T
   8    -11.3617076 -0.692764E-07  0.110E-03    3.39      40.5  T
   9    -11.3617076 -0.643156E-08  0.514E-04    3.39      87.1  T
  10    -11.3617076 -0.721098E-09  0.488E-05    3.39     915.9  T
     SCC iter.                  ...        0 min,  0.001 sec
     gradient                   ...        0 min,  0.001 sec
 * total energy  :   -11.0953246 Eh     change       -0.5576193E-03 Eh
   gradient norm :     0.0054098 Eh/α   predicted    -0.5358856E-03 (  -3.90%)
   displ. norm   :     0.0239215 α      lambda       -0.8558703E-04
   maximum displ.:     0.0229471 α      in ANC's #3, #4, #6, ...

........................................................................
.............................. CYCLE   48 ..............................
........................................................................
   1    -11.3626976 -0.113627E+02  0.879E-02    3.40       0.0  T
   2    -11.3626973  0.235959E-06  0.516E-02    3.40       1.0  T
   3    -11.3626306  0.667424E-04  0.703E-02    3.40       1.0  T
   4    -11.3626915 -0.608741E-04  0.235E-02    3.40       1.9  T
   5    -11.3626978 -0.635376E-05  0.709E-03    3.40       6.3  T
   6    -11.3626984 -0.556350E-06  0.215E-03    3.40      20.8  T
   7    -11.3626984 -0.144523E-07  0.158E-04    3.40     283.0  T
   8    -11.3626984 -0.320810E-11  0.105E-04    3.40     425.8  T
     SCC iter.                  ...        0 min,  0.001 sec
     gradient                   ...        0 min,  0.001 sec
 * total energy  :   -11.0954018 Eh     change       -0.7720325E-04 Eh
   gradient norm :     0.0043860 Eh/α   predicted    -0.4281811E-04 ( -44.54%)
   displ. norm   :     0.1904455 α      lambda       -0.5061281E-03
   maximum displ.:     0.1654044 α      in ANC's #3, #2, #6, ...

........................................................................
.............................. CYCLE   49 ..............................
........................................................................
   1    -11.3613293 -0.113613E+02  0.690E-01    3.38       0.0  T
   2    -11.3613453 -0.159432E-04  0.396E-01    3.38       1.0  T
   3    -11.3613413  0.396697E-05  0.420E-02    3.39       1.1  T
   4    -11.3613472 -0.588849E-05  0.299E-02    3.39       1.5  T
   5    -11.3613287  0.185121E-04  0.423E-02    3.38       1.1  T
   6    -11.3613487 -0.200332E-04  0.165E-02    3.39       2.7  T
   7    -11.3613529 -0.420840E-05  0.138E-03    3.39      32.4  T
   8    -11.3613529 -0.588441E-08  0.736E-04    3.39      60.8  T
   9    -11.3613529 -0.127213E-08  0.205E-04    3.39     217.7  T
     SCC iter.                  ...        0 min,  0.001 sec
     gradient                   ...        0 min,  0.001 sec
 * total energy  :   -11.0957037 Eh     change       -0.3018995E-03 Eh
   gradient norm :     0.0099523 Eh/α   predicted    -0.2622418E-03 ( -13.14%)
   displ. norm   :     0.0700751 α      lambda       -0.1302561E-03
[...]
C        -2.04311822344303   -0.63261451329220    1.23341858297471
C         1.05195876357069    0.31916238574905   -0.62483010472269

 Bond Distances (Angstroems)
 ---------------------------
C1-N2=1.2414         C1-C5=1.2937         N2-C1=1.2414         N2-C4=1.1987         C3-C5=1.2393         C4-N2=1.1987         
C5-C1=1.2937         C5-C3=1.2393         
 C  C  Rav=1.2665 sigma=0.0272  Rmin=1.2393  Rmax=1.2937     2
 N  C  Rav=1.2201 sigma=0.0213  Rmin=1.1987  Rmax=1.2414     2

 selected bond angles (degree)
 --------------------
C5-C1-N2=178.19                C4-N2-C1=179.86                C3-C5-C1=179.03                

 selected dihedral angles (degree)
 ---------------------------------
C4-N2-C1-C5=203.25            C3-C5-C1-N2=176.19            
           -------------------------------------------------
          |                Final Singlepoint                |
           -------------------------------------------------

          ...................................................
          :                      SETUP                      :
          :.................................................:
          :  # basis functions                  20          :
          :  # atomic orbitals                  20          :
          :  # shells                           10          :
          :  # electrons                        21          :
          :  max. iterations                   250          :
          :  Hamiltonian                  GFN2-xTB          :
          :  restarted?                      false          :
          :  GBSA solvation                  false          :
          :  PC potential                    false          :
          :  electronic temp.          300.0000000     K    :
          :  accuracy                    1.0000000          :
          :  -> integral cutoff          0.2500000E+02      :
          :  -> integral neglect         0.1000000E-07      :
          :  -> SCF convergence          0.1000000E-05 Eh   :
          :  -> wf. convergence          0.1000000E-03 e    :
          :  Broyden damping             0.4000000          :
          ...................................................

 iter      E             dE          RMSdq      gap      omega  full diag
   1    -11.3674774 -0.113675E+02  0.407E-05    3.45       0.0  T
   2    -11.3674774  0.749107E-10  0.734E-05    3.45     608.9  T
   3    -11.3674774 -0.563940E-10  0.462E-05    3.45     967.9  T

   *** convergence criteria satisfied after 3 iterations ***

         #    Occupation            Energy/Eh            Energy/eV
      -------------------------------------------------------------
         1        2.0000           -0.6972140             -18.9722
       ...           ...                  ...                  ...
         6        2.0000           -0.5576543             -15.1745
         7        2.0000           -0.4808034             -13.0833
         8        2.0000           -0.4807973             -13.0832
         9        2.0000           -0.4566279             -12.4255
        10        1.0000           -0.4325887             -11.7713
        11        1.0000           -0.3675908             -10.0027
        12        1.0000           -0.3675636             -10.0019 (HOMO)
        13                         -0.2406726              -6.5490 (LUMO)
        14                         -0.2406529              -6.5485
        15                         -0.1091513              -2.9702
        16                         -0.1090136              -2.9664
        17                          0.0578302               1.5736
       ...                                ...                  ...
        20                          1.4353204              39.0571
      -------------------------------------------------------------
                  HL-Gap            0.1268909 Eh            3.4529 eV
             Fermi-level           -0.3743632 Eh          -10.1869 eV

 SCC (total)                   0 d,  0 h,  0 min,  0.003 sec
 SCC setup                      ...        0 min,  0.000 sec (  1.796%)
 Dispersion                     ...        0 min,  0.000 sec (  0.480%)
 integral evaluation            ...        0 min,  0.001 sec ( 43.753%)
 zeroth order Hamiltonian       ...        0 min,  0.000 sec (  0.525%)
 iterations                     ...        0 min,  0.000 sec ( 10.751%)
 molecular gradient             ...        0 min,  0.001 sec ( 40.285%)
 printout                       ...        0 min,  0.000 sec (  2.090%)

         :::::::::::::::::::::::::::::::::::::::::::::::::::::
         ::                     SUMMARY                     ::
         :::::::::::::::::::::::::::::::::::::::::::::::::::::
         :: total energy             -11.096036919464 Eh    ::
         :: gradient norm              0.000662910937 Eh/a0 ::
         :: HOMO-LUMO gap              3.452877516128 eV    ::
         ::.................................................::
         :: SCC energy               -11.367477385624 Eh    ::
         :: -> isotropic ES           -0.009814982791 Eh    ::
         :: -> anisotropic ES         -0.000242559783 Eh    ::
         :: -> anisotropic XC          0.019209910950 Eh    ::
         :: -> dispersion             -0.002675126138 Eh    ::
         :: repulsion energy           0.271441583359 Eh    ::
         :: add. restraining           0.000000000000 Eh    ::
         :::::::::::::::::::::::::::::::::::::::::::::::::::::

           ------------------------------------------------- 
          |                Numerical Hessian                |
           ------------------------------------------------- 
step length          :   0.00500
SCC accuracy         :   0.30000
Hessian scale factor :   1.00000
frozen atoms in %    :   0.00000    0
RMS gradient         :   0.00066
estimated CPU  time      0.00 min
estimated wall time      0.00 min

writing file <hessian>.

 projected vibrational frequencies (cm-1)
eigval :       -0.00    -0.00    -0.00    -0.00     0.00     0.00
eigval :       76.36   212.20   213.01   353.09   356.01   829.32
eigval :     1647.87  1888.11  1993.97
           -------------------------------------------------
          |                Property Printout                |
           -------------------------------------------------

    * Orbital Energies and Occupations

         #    Occupation            Energy/Eh            Energy/eV
      -------------------------------------------------------------
         1        2.0000           -0.6972140             -18.9722
         2        2.0000           -0.6703502             -18.2412
         3        2.0000           -0.6524845             -17.7550
         4        2.0000           -0.6042385             -16.4422
         5        2.0000           -0.5576616             -15.1747
         6        2.0000           -0.5576544             -15.1745
         7        2.0000           -0.4808036             -13.0833
         8        2.0000           -0.4807975             -13.0832
         9        2.0000           -0.4566274             -12.4255
        10        1.0000           -0.4325889             -11.7713
        11        1.0000           -0.3675909             -10.0027
        12        1.0000           -0.3675636             -10.0019 (HOMO)
        13                         -0.2406724              -6.5490 (LUMO)
        14                         -0.2406527              -6.5485
        15                         -0.1091515              -2.9702
        16                         -0.1090139              -2.9664
        17                          0.0578301               1.5736
        18                          0.4876709              13.2702
        19                          0.9897939              26.9337
        20                          1.4353200              39.0570
      -------------------------------------------------------------
                  HL-Gap            0.1268911 Eh            3.4529 eV
             Fermi-level           -0.3743631 Eh          -10.1869 eV

     #   Z        covCN         q      C6AA      α(0)
     1   6 C      1.903     0.056    29.688     8.800
     2   7 N      1.822     0.098    20.175     6.655
     3   6 C      0.983    -0.041    37.190    10.244
     4   6 C      0.920    -0.134    39.810    10.565
     5   6 C      1.962     0.021    30.531     8.923

 Mol. C6AA /au·bohr⁶  :        775.616679
 Mol. C8AA /au·bohr⁸  :      21529.050480
 Mol. α(0) /au        :         45.186748


Wiberg/Mayer (AO) data.
largest (>0.10) Wiberg bond orders for each atom
          total WBO             WBO to atom ...
     1  C   3.193        C    5 1.581    N    2 1.544
     2  N   3.702        C    4 2.069    C    1 1.544
     3  C   2.359        C    5 2.215
     4  C   2.282        N    2 2.069
     5  C   3.906        C    3 2.215    C    1 1.581

MOs/occ written to file <molden.input>


molecular dipole:
                 x           y           z       tot (Debye)
 q only:        0.199       0.065      -0.124
   full:        0.546       0.172      -0.334       1.685
molecular quadrupole (traceless):
                xx          xy          yy          xz          yz          zz
 q only:       -1.666      -1.003       1.268       1.957       0.605       0.398
  q+dip:       -0.938      -0.630       0.745       1.202       0.398       0.192
   full:       -3.064      -1.895       2.358       3.678       1.157       0.707

           -------------------------------------------------
          |                Geometry Summary                 |
           -------------------------------------------------

      molecular mass/u    :       62.0496468
   center of mass at/Å    :       -0.0339540      -0.0103197       0.0202565
  moments of inertia/u·Å² :        0.6533534E-02   0.1902208E+03   0.1902273E+03
rotational constants/cm⁻¹ :        0.2580171E+04   0.8862138E-01   0.8861835E-01

 * 4 selected distances

     #   Z        #   Z                                     value/Å
     1   6 C      2   7 N                                 1.2414180
     2   7 N      4   6 C                                 1.1987293 (min)
     1   6 C      5   6 C                                 1.2936716 (max)
     3   6 C      5   6 C                                 1.2393167

 * 2 distinct bonds (by element types)

   Z      Z             #   av. dist./Å        max./Å        min./Å
   6 C    6 C           2     1.2664942     1.2936716     1.2393167
   6 C    7 N           2     1.2200737     1.2414180     1.1987293

           -------------------------------------------------
          |               Frequency Printout                |
           -------------------------------------------------
 projected vibrational frequencies (cm-1)
eigval :       -0.00    -0.00    -0.00    -0.00     0.00     0.00
eigval :       76.36   212.20   213.01   353.09   356.01   829.32
eigval :     1647.87  1888.11  1993.97
Molecule has the following symmetry elements: (Cinf) (sigma) 
It seems to be the Cinfv point group
 reduced masses (amu)
   1: 12.29   2: 12.13   3: 12.57   4: 12.30   5: 12.40   6: 12.21   7: 12.01   8: 12.46
   9: 12.46  10: 12.86  11: 12.88  12: 12.38  13: 12.10  14: 12.68  15: 12.43
 IR intensities (amu)
   1:  0.18   2:  0.06   3:  0.05   4:  0.09   5:  0.03   6:  0.14   7:  0.19   8:  0.22
   9:  0.24  10:  0.05  11:  0.07  12:  0.18  13:  1.32  14:  1.31  15:  0.37
 Raman intensities (amu)
   1:  0.00   2:  0.00   3:  0.00   4:  0.00   5:  0.00   6:  0.00   7:  0.00   8:  0.00
   9:  0.00  10:  0.00  11:  0.00  12:  0.00  13:  0.00  14:  0.00  15:  0.00
 output can be read by thermo (or use thermo option).
 writing <g98.out> molden fake output.
 recommended (thermochemical) frequency scaling factor: 1.0
           -------------------------------------------------
          |             Thermodynamic Functions             |
           -------------------------------------------------

cin symmetry found (for desy threshold:  0.10E+00) used in thermo

          ...................................................
          :                      SETUP                      :
          :.................................................:
          :  # frequencies                           9      :
          :  # imaginary freq.                       0      :
          :  linear?                             false      :
          :  only rotor calc.                    false      :
          :  symmetry                              cin      :
          :  rotational number                       1      :
          :  scaling factor                  1.0000000      :
          :  rotor cutoff                   50.0000000 cm⁻¹ :
          :  imag. cutoff                  -20.0000000 cm⁻¹ :
          :.................................................:

    mode    ω/cm⁻¹     T·S(HO)/kcal·mol⁻¹    T·S(FR)/kcal·mol⁻¹   T·S(vib)
   ------------------------------------------------------------------------
       1     76.36    -0.00000 ( 84.47%)     0.00252 ( 15.53%)     0.00039
       2    212.20    -0.00000 ( 99.69%)     0.01266 (  0.31%)     0.00004
       3    213.01    -0.00000 ( 99.70%)     0.01270 (  0.30%)     0.00004
   ------------------------------------------------------------------------

   temp. (K)  partition function   enthalpy   heat capacity  entropy
                                   cal/mol     cal/K/mol   cal/K/mol   J/K/mol
 298.15  VIB   12.0                 1663.242      9.419     10.379
         ROT  0.117E+04              888.752      2.981     17.028
         INT  0.141E+05             2551.994     12.400     27.407
         TR   0.473E+27             1481.254      4.968     38.278
         TOT                        4033.2482    17.3677    65.6848   274.8252

   temp. (K)  partition function   enthalpy   heat capacity  entropy
                                   cal/mol     cal/K/mol   cal/K/mol   J/K/mol
 120.00  VIB   2.02                  278.228      5.292      3.717
         ROT   300.                  357.707      2.981     14.315
         INT   606.                  635.935      8.273     18.032
         TR   0.121E+27              596.178      4.968     33.759
         TOT                        1232.1129    13.2410    51.7913   216.6946

   temp. (K)  partition function   enthalpy   heat capacity  entropy
                                   cal/mol     cal/K/mol   cal/K/mol   J/K/mol
 100.00  VIB   1.67                  181.472      4.360      2.861
         ROT   228.                  298.089      2.981     13.772
         INT   381.                  479.561      7.341     16.633
         TR   0.919E+26              496.815      4.968     32.853
         TOT                         976.3759    12.3092    49.4866   207.0519

   temp. (K)  partition function   enthalpy   heat capacity  entropy
                                   cal/mol     cal/K/mol   cal/K/mol   J/K/mol
  80.00  VIB   1.40                  104.659      3.305      2.035
         ROT   163.                  238.471      2.981     13.107
         INT   229.                  343.130      6.286     15.141
         TR   0.657E+26              397.452      4.968     31.745
         TOT                         740.5822    11.2543    46.8867   196.1738

   temp. (K)  partition function   enthalpy   heat capacity  entropy
                                   cal/mol     cal/K/mol   cal/K/mol   J/K/mol
  60.00  VIB   1.21                   49.542      2.211      1.276
         ROT   106.                  178.853      2.981     12.249
         INT   128.                  228.395      5.192     13.525
         TR   0.427E+26              298.089      4.968     30.317
         TOT                         526.4840    10.1601    43.8419   183.4347

   temp. (K)  partition function   enthalpy   heat capacity  entropy
                                   cal/mol     cal/K/mol   cal/K/mol   J/K/mol
  40.00  VIB   1.07                   15.549      1.211      0.619
         ROT   57.7                  119.236      2.981     11.040
         INT   61.7                  134.785      4.192     11.659
         TR   0.232E+26              198.726      4.968     28.303
         TOT                         333.5109     9.1599    39.9626   167.2034

   temp. (K)  partition function   enthalpy   heat capacity  entropy
                                   cal/mol     cal/K/mol   cal/K/mol   J/K/mol
  20.00  VIB   1.00                    0.902      0.249      0.108
         ROT   20.4                   59.618      2.981      8.974
         INT   20.5                   60.520      3.230      9.083
         TR   0.822E+25               99.363      4.968     24.861
         TOT                         159.8829     8.1980    33.9440   142.0215

   temp. (K)  partition function   enthalpy   heat capacity  entropy
                                   cal/mol     cal/K/mol   cal/K/mol   J/K/mol
  10.00  VIB   1.00                    0.004      0.004     -0.048
         ROT   7.21                   29.809      2.981      6.908
         INT   7.21                   29.813      2.985      6.860
         TR   0.290E+25               49.681      4.968     21.419
         TOT                          79.4941     7.9531    28.2794   118.3211

       T/K    H(0)-H(T)+PV         H(T)/Eh          T*S/Eh         G(T)/Eh
   ------------------------------------------------------------------------
    298.15    0.642739E-02    0.236730E-01    0.312090E-01   -0.753598E-02
    120.00    0.196350E-02    0.192091E-01    0.990415E-02    0.930494E-02
    100.00    0.155595E-02    0.188015E-01    0.788619E-02    0.109154E-01
     80.00    0.118019E-02    0.184258E-01    0.597749E-02    0.124483E-01
     60.00    0.839006E-03    0.180846E-01    0.419199E-02    0.138926E-01
     40.00    0.531483E-03    0.177771E-01    0.254738E-02    0.152297E-01
     20.00    0.254790E-03    0.175004E-01    0.108186E-02    0.164185E-01
     10.00    0.126682E-03    0.173723E-01    0.450661E-03    0.169216E-01 (used)
   ------------------------------------------------------------------------

         :::::::::::::::::::::::::::::::::::::::::::::::::::::
         ::                  THERMODYNAMIC                  ::
         :::::::::::::::::::::::::::::::::::::::::::::::::::::
         :: total free energy         -11.079115304519 Eh   ::
         ::.................................................::
         :: total energy              -11.096036918699 Eh   ::
         :: zero point energy           0.017245593600 Eh   ::
         :: G(RRHO) w/o ZPVE           -0.000323979420 Eh   ::
         :: G(RRHO) contrib.            0.016921614180 Eh   ::
         :::::::::::::::::::::::::::::::::::::::::::::::::::::

optimized geometry written to: xtbopt.xyz


           -------------------------------------------------
          | TOTAL ENERGY              -11.096036918699 Eh   |
          | TOTAL ENTHALPY            -11.078664643196 Eh   |
          | TOTAL FREE ENERGY         -11.079115304519 Eh   |
          | GRADIENT NORM               0.000663660319 Eh/α |
          | HOMO-LUMO GAP               3.452883763470 eV   |
           -------------------------------------------------

------------------------------------------------------------------------
 * finished run on 2020/05/12 at 11:43:57.390     
------------------------------------------------------------------------
 total:
 * wall-time:     0 d,  0 h,  0 min,  0.331 sec
 *  cpu-time:     0 d,  0 h,  0 min,  0.330 sec
 * ratio c/w:     0.997 speedup
 SCF:
 * wall-time:     0 d,  0 h,  0 min,  0.004 sec
 *  cpu-time:     0 d,  0 h,  0 min,  0.004 sec
 * ratio c/w:     1.000 speedup
 ANC optimizer:
 * wall-time:     0 d,  0 h,  0 min,  0.219 sec
 *  cpu-time:     0 d,  0 h,  0 min,  0.218 sec
 * ratio c/w:     0.998 speedup
 numerical hessian:
 * wall-time:     0 d,  0 h,  0 min,  0.092 sec
 *  cpu-time:     0 d,  0 h,  0 min,  0.091 sec
 * ratio c/w:     0.994 speedup

