5
 energy: -10.673799053923 gnorm: 0.088802314887 xtb: 6.2.2 (9d81278992624c895f80dd42a50cac0aa55982e2)
C        -0.90636600000000    0.05142800000000   -1.13201700000000
N         0.00000000000000    0.00000000000000    0.00000000000000
C         0.95337200000000   -1.07690900000000   -0.19223900000000
C        -0.75697200000000   -0.23535400000000    1.21540500000000
C         0.70996700000000    1.26083600000000    0.10885100000000
5
 energy: -10.684036257233 gnorm: 0.040126488416 xtb: 6.2.2 (9d81278992624c895f80dd42a50cac0aa55982e2)
C        -0.88055262562626    0.04996403813563   -1.09977697224421
N        -0.00000056232090   -0.00000037583267    0.00000021570395
C         0.92622050288293   -1.04623760518431   -0.18676367505486
C        -0.73541357017420   -0.22865126012512    1.18079024474553
C         0.68974725523843    1.22492620300648    0.10575018684959
5
 energy: -10.686052863937 gnorm: 0.010135576783 xtb: 6.2.2 (9d81278992624c895f80dd42a50cac0aa55982e2)
C        -0.85961685127838    0.04878505032075   -1.07362714622113
N        -0.00000709132615   -0.00000725943744    0.00000031227820
C         0.90420608043093   -1.02135141547368   -0.18231867195415
C        -0.71792997071372   -0.22321525447669    1.15271681636924
C         0.67334883288732    1.19578987906705    0.10322868952785
5
 energy: -10.686169624027 gnorm: 0.000979198114 xtb: 6.2.2 (9d81278992624c895f80dd42a50cac0aa55982e2)
C        -0.86384756719678    0.04908019275855   -1.07890858855046
N        -0.00004780272840   -0.00005088951465    0.00000834442989
C         0.90870460461569   -1.02631932182987   -0.18319505243174
C        -0.72147074797394   -0.22430906340889    1.15839931712886
C         0.67666251328343    1.20160008199486    0.10369597942345
5
 energy: -10.686174882738 gnorm: 0.003857244879 xtb: 6.2.2 (9d81278992624c895f80dd42a50cac0aa55982e2)
C        -0.86341516109141    0.04964769463738   -1.07842229134671
N        -0.00050798707851   -0.00053636793899    0.00008630688484
C         0.90881408053591   -1.02523012631203   -0.18292308466926
C        -0.72121247197998   -0.22411981734375    1.15803015553987
C         0.67632253961399    1.20023961695740    0.10322891359126
5
 energy: -10.686446068807 gnorm: 0.030151893783 xtb: 6.2.2 (9d81278992624c895f80dd42a50cac0aa55982e2)
C        -0.86398287828067    0.05405690063535   -1.08009261607647
N        -0.00404292287620   -0.00429195435293    0.00066855610568
C         0.91379221539576   -1.02196264000260   -0.18197626947972
C        -0.72244806440117   -0.22345157374411    1.16095717279917
C         0.67668265016228    1.19565026746429    0.10044315665134
5
 energy: -10.695680617978 gnorm: 0.091937379256 xtb: 6.2.2 (9d81278992624c895f80dd42a50cac0aa55982e2)
C        -0.86566546239743    0.08702237748537   -1.09236991455479
N        -0.03045792547792   -0.03404283062263    0.00414362782984
C         0.94918253906412   -0.99758430418397   -0.17579751499302
C        -0.72840062939264   -0.21509387912506    1.18219888706901
C         0.67534247820386    1.15969963644630    0.08182491464896
5
 energy: -10.728498183893 gnorm: 0.107198200018 xtb: 6.2.2 (9d81278992624c895f80dd42a50cac0aa55982e2)
C        -0.87718982294838    0.18246947209769   -1.10756408039530
N        -0.09354795203943   -0.11570758958548    0.00894749174818
C         1.04526663365746   -0.92925735760981   -0.14713343549754
C        -0.74629533955609   -0.19825711200511    1.22016162956377
C         0.67176748088644    1.06075358710271    0.02558839458089
5
 energy: -10.771231919677 gnorm: 0.123714039932 xtb: 6.2.2 (9d81278992624c895f80dd42a50cac0aa55982e2)
C        -0.86502435158710    0.26581273977355   -1.09694925012028
N        -0.16259199995759   -0.17341709361321    0.03563125998492
C         1.10907293304210   -0.81722279604878   -0.11384936205273
C        -0.77795750314154   -0.22349252803968    1.24322146876173
C         0.69650192164413    0.94832067792810   -0.06805411657364
5
 energy: -10.825570673245 gnorm: 0.123763272312 xtb: 6.2.2 (9d81278992624c895f80dd42a50cac0aa55982e2)
C        -0.82913538819973    0.32535768580712   -1.07339043723917
N        -0.23518019306706   -0.20617345209301    0.08197432355416
C         1.14199945517587   -0.67501450627706   -0.09129799385970
C        -0.82450177714100   -0.27745318446042    1.26541595073696
C         0.74681890323192    0.83328445702336   -0.18270184319226
5
 energy: -10.829286679104 gnorm: 0.616918410289 xtb: 6.2.2 (9d81278992624c895f80dd42a50cac0aa55982e2)
C        -0.72566487648880    0.43098258727119   -1.01123840750255
N        -0.38083954194730   -0.28329389749159    0.17191452067914
C         1.17411520648192   -0.38439989926476   -0.05797314361224
C        -0.88964465340215   -0.36343982968128    1.29138186313124
C         0.82203486535632    0.60015203916645   -0.39408483269558
5
 energy: -10.897302234100 gnorm: 0.129079130867 xtb: 6.2.2 (9d81278992624c895f80dd42a50cac0aa55982e2)
C        -0.71014177006622    0.53089065838515   -0.99831812387149
N        -0.36145225812359   -0.29389196432369    0.18729328583499
C         1.20187477286356   -0.50939936533040   -0.01550812107966
C        -0.90402269391345   -0.43009936226802    1.30786173010564
C         0.77374294923969    0.70250103353697   -0.48132877098948
5
 energy: -10.925593826749 gnorm: 0.192258456055 xtb: 6.2.2 (9d81278992624c895f80dd42a50cac0aa55982e2)
C        -0.56353077554006    0.63306784321074   -0.93236432644055
N        -0.43601674480812   -0.33665375081977    0.23369036222205
C         1.12576517391327   -0.44667681134788    0.04354837882775
C        -0.86271658286597   -0.53395510455229    1.29423890463664
C         0.73649992930088    0.68421882350920   -0.63911331924589
5
 energy: -10.945956212978 gnorm: 0.151474076013 xtb: 6.2.2 (9d81278992624c895f80dd42a50cac0aa55982e2)
C        -0.51535416981435    0.71240360033667   -0.92541871605791
N        -0.52824898336568   -0.29781590235404    0.28553668538425
C         1.16391246544388   -0.33946106328918    0.09075382315521
C        -0.97967064902809   -0.72042581839681    1.39928583441541
C         0.85936233676424    0.64530018370336   -0.85015762689697
5
 energy: -10.967010423763 gnorm: 0.105697847735 xtb: 6.2.2 (9d81278992624c895f80dd42a50cac0aa55982e2)
C        -0.50575996106506    0.55128171666344   -0.83925114033547
N        -0.51179679014307   -0.22456916118937    0.24620278802385
C         1.07630663090730   -0.33170433218036    0.03418222933692
C        -1.00148370278988   -0.71686593526821    1.32180240096811
C         0.94273482309071    0.72185871197450   -0.76293627799341
5
 energy: -10.975157637109 gnorm: 0.149544274707 xtb: 6.2.2 (9d81278992624c895f80dd42a50cac0aa55982e2)
C        -0.41980185195159    0.62649936473630   -0.68801538425026
N        -0.55553821145876   -0.27359928179578    0.34640517731182
C         1.07889479665053   -0.25529608949024    0.04537810938216
C        -1.07700474936269   -0.80296668507418    1.23549080696665
C         0.97345101612250    0.70536369162390   -0.93925870941036
5
 energy: -10.979983701692 gnorm: 0.044937725943 xtb: 6.2.2 (9d81278992624c895f80dd42a50cac0aa55982e2)
C        -0.43485669555750    0.60022949640418   -0.72538028533237
N        -0.55308692201052   -0.25074546091078    0.32124865801096
C         1.08146335810956   -0.26135301277685    0.03429828786723
C        -1.08040836299271   -0.79577039010624    1.27753954881752
C         0.98688962245117    0.70764036738970   -0.90770620936333
5
 energy: -10.980213913163 gnorm: 0.030552648109 xtb: 6.2.2 (9d81278992624c895f80dd42a50cac0aa55982e2)
C        -0.44744667495051    0.59901362512213   -0.74666984829612
N        -0.54647557296501   -0.27304978425823    0.30859137510367
C         1.10693891957482   -0.27693285553385    0.01337780302893
C        -1.07213626417207   -0.74188282024535    1.29248167518021
C         0.95912059251276    0.69285283491530   -0.86778100501668
5
 energy: -10.981207998329 gnorm: 0.030159987283 xtb: 6.2.2 (9d81278992624c895f80dd42a50cac0aa55982e2)
C        -0.43989669428642    0.60421985256492   -0.71541854701147
N        -0.54789353598242   -0.26955689976402    0.31765349272688
C         1.10621045731672   -0.26544553935256    0.01795626037583
C        -1.09189261670615   -0.76370907727134    1.27545603629788
C         0.97347338965828    0.69449266382301   -0.89564724238912
5
 energy: -10.981635310556 gnorm: 0.029907214266 xtb: 6.2.2 (9d81278992624c895f80dd42a50cac0aa55982e2)
C        -0.42731173777799    0.61282874364034   -0.69725573726044
N        -0.55252607901271   -0.27152174385330    0.32394012372291
C         1.10848541279391   -0.25782115222967    0.01726473950430
C        -1.10524401859535   -0.77457697598505    1.27312618987798
C         0.97659742259214    0.69109212842768   -0.91707531584476
5
 energy: -10.982273604871 gnorm: 0.029317482550 xtb: 6.2.2 (9d81278992624c895f80dd42a50cac0aa55982e2)
C        -0.41656775130220    0.62457296182218   -0.66064564982668
N        -0.55261930852684   -0.27788461783029    0.32965167028744
C         1.12782320576207   -0.25098504667275    0.00770071688437
C        -1.13670578854146   -0.77579777335283    1.26521942033437
C         0.97807064260842    0.68009547603369   -0.94192615767951
5
 energy: -10.983911428389 gnorm: 0.023268074690 xtb: 6.2.2 (9d81278992624c895f80dd42a50cac0aa55982e2)
C        -0.41552034293457    0.61586764125212   -0.65858442505689
N        -0.52195159341587   -0.22174345481606    0.38805563199811
C         1.15425065287492   -0.24232564636770    0.00178695024600
C        -1.17734869556270   -0.81250406938849    1.23313989418013
C         0.96057097903822    0.66070652932013   -0.96439805136736
5
 energy: -10.984341876120 gnorm: 0.012834792900 xtb: 6.2.2 (9d81278992624c895f80dd42a50cac0aa55982e2)
C        -0.41211976249426    0.61729654524436   -0.65003681751593
N        -0.52467129447402   -0.22730299440350    0.38450928827657
C         1.16319425544304   -0.23861531394574    0.00286087308122
C        -1.17829921564096   -0.80701908935957    1.22830486731743
C         0.95189701716620    0.65564185246445   -0.96563821115930
5
 energy: -10.984947030401 gnorm: 0.014732050785 xtb: 6.2.2 (9d81278992624c895f80dd42a50cac0aa55982e2)
C        -0.40423623030349    0.62007150749505   -0.62928328277250
N        -0.53034059055744   -0.23083302301587    0.39024489069443
C         1.19573278420451   -0.22629503270400    0.00212022749437
C        -1.19585704099642   -0.80554441063285    1.21648832913852
C         0.93470207765283    0.64260195885766   -0.97957016455482
5
 energy: -10.986349043051 gnorm: 0.037798364285 xtb: 6.2.2 (9d81278992624c895f80dd42a50cac0aa55982e2)
C        -0.38846792782084    0.61803097073211   -0.58708180643239
N        -0.55152843331382   -0.24013456438331    0.40588241120373
C         1.27736165255560   -0.20125856540620   -0.01202054338617
C        -1.24345716510782   -0.80170798797355    1.20000455354948
C         0.90609287368689    0.62507114703094   -1.00678461493465
5
 energy: -10.983753213730 gnorm: 0.145473515804 xtb: 6.2.2 (9d81278992624c895f80dd42a50cac0aa55982e2)
C        -0.33241545532550    0.59040500521685   -0.44297773056870
N        -0.64066229227011   -0.27706084924432    0.46483773798438
C         1.58657623292149   -0.11849911211520   -0.08901750030581
C        -1.42548285669295   -0.77898134224085    1.15411175948051
C         0.81198537136707    0.58413729838351   -1.08695426659039
5
 energy: -10.990622615200 gnorm: 0.085853063935 xtb: 6.2.2 (9d81278992624c895f80dd42a50cac0aa55982e2)
C        -0.35377488477127    0.58755983702740   -0.51307915487770
N        -0.59687533004053   -0.25729990337330    0.45174187209222
C         1.44753145616120   -0.15613869481296   -0.07361709746632
C        -1.35842179763960   -0.78984942049885    1.17987083963560
C         0.86154155629020    0.61572918165771   -1.04491645938381
5
 energy: -10.994493879989 gnorm: 0.077763551017 xtb: 6.2.2 (9d81278992624c895f80dd42a50cac0aa55982e2)
C        -0.34972559366685    0.56609601023671   -0.50868908991385
N        -0.60732077277723   -0.26553931534628    0.46151207961334
C         1.46361859277901   -0.15037217367313   -0.10516553819724
C        -1.38108664621597   -0.78246852989316    1.18984299460035
C         0.87451541988104    0.63228500867586   -1.03750044610261
5
 energy: -11.013716755491 gnorm: 0.044101298114 xtb: 6.2.2 (9d81278992624c895f80dd42a50cac0aa55982e2)
C        -0.31721159922784    0.43850125093858   -0.42908307970233
N        -0.68440365577746   -0.30262599547523    0.54026825369554
C         1.63898202201261   -0.07406031577556   -0.30679375287158
C        -1.57284041278376   -0.75494292268219    1.22947023799685
C         0.93547464577645    0.69312898299439   -1.03386165911848
5
 energy: -11.018898410821 gnorm: 0.080547306452 xtb: 6.2.2 (9d81278992624c895f80dd42a50cac0aa55982e2)
C        -0.28127083922521    0.33347446792029   -0.37328140672201
N        -0.76111146493556   -0.33986464865695    0.58573097570260
C         1.81935727798418   -0.03808729360674   -0.46475001018724
C        -1.71495847963291   -0.70840921460677    1.25725083162436
C         0.93798450580950    0.75288768895018   -1.00495039041771
5
 energy: -11.023566065174 gnorm: 0.058450329682 xtb: 6.2.2 (9d81278992624c895f80dd42a50cac0aa55982e2)
C        -0.27554232768831    0.35356006926651   -0.34682544561733
N        -0.79040007799361   -0.34276685025549    0.56053623041467
C         1.83588217922622   -0.00190100890859   -0.46155349724972
C        -1.70717605314081   -0.71747600855041    1.25957236503444
C         0.93723727959651    0.70858479844798   -1.01172965258206
5
 energy: -11.036984133270 gnorm: 0.080107704820 xtb: 6.2.2 (9d81278992624c895f80dd42a50cac0aa55982e2)
C        -0.26923646691325    0.35531030555745   -0.30483269436124
N        -0.85655038633693   -0.32342797385215    0.53031197706694
C         1.94404555352212    0.06445634851229   -0.51497231308776
C        -1.72751277998579   -0.72410812320073    1.26156428833724
C         0.90925507971384    0.62777044298313   -0.97207125795518
5
 energy: -11.054237500594 gnorm: 0.115938553411 xtb: 6.2.2 (9d81278992624c895f80dd42a50cac0aa55982e2)
C        -0.25745408095060    0.33758314769774   -0.26118884143023
N        -0.95547220479789   -0.32248811926284    0.50203641980347
C         2.08836302081716    0.14490015388756   -0.61620071635152
C        -1.77420452398186   -0.72050818815335    1.28791925956005
C         0.89876878891319    0.56051400583090   -0.91256612158177
5
 energy: -11.066707662867 gnorm: 0.184688231175 xtb: 6.2.2 (9d81278992624c895f80dd42a50cac0aa55982e2)
C        -0.26514827310278    0.32881598737919   -0.27093308113216
N        -1.11015091346317   -0.29006814383961    0.41587522628924
C         2.22710885846704    0.24243031931781   -0.76180037515358
C        -1.75847894009411   -0.72964415446157    1.36171271264897
C         0.90667026819302    0.44846699160418   -0.74485448265247
5
 energy: -11.077857961632 gnorm: 0.078623124908 xtb: 6.2.2 (9d81278992624c895f80dd42a50cac0aa55982e2)
C        -0.29905287709709    0.34956622569923   -0.31788287830482
N        -1.06410334044683   -0.23887482216632    0.44282185760708
C         2.13994547904816    0.22424386530474   -0.72441358399601
C        -1.71262306377008   -0.76850799066148    1.34392149111675
C         0.93583480226583    0.43357372182383   -0.74444688642301
5
 energy: -11.082108854907 gnorm: 0.054204028213 xtb: 6.2.2 (9d81278992624c895f80dd42a50cac0aa55982e2)
C        -0.29248059013288    0.31698702091573   -0.28252362026551
N        -1.11219467246401   -0.22957759149834    0.48467615054066
C         2.20545561200186    0.27730651938379   -0.79390813867192
C        -1.76610239485523   -0.77958212410682    1.33982809835831
C         0.96532304545026    0.41486717530564   -0.74807248996154
5
 energy: -11.084406272918 gnorm: 0.038052692471 xtb: 6.2.2 (9d81278992624c895f80dd42a50cac0aa55982e2)
C        -0.29924600018766    0.30648434538819   -0.30723961889553
N        -1.13036394111587   -0.20598140482630    0.48668488928802
C         2.20437708791434    0.28239801476129   -0.82364415429149
C        -1.74547788849447   -0.78405876292550    1.34335168805842
C         0.97071174188367    0.40115880760232   -0.69915280415942
5
 energy: -11.086035443285 gnorm: 0.027473212333 xtb: 6.2.2 (9d81278992624c895f80dd42a50cac0aa55982e2)
C        -0.30508098952922    0.29592617044747   -0.32681148134513
N        -1.13357128871188   -0.17074776707858    0.50091138403025
C         2.19629376057429    0.29582569736654   -0.85258225499391
C        -1.72908802404860   -0.79552900295909    1.33314103540165
C         0.97144754171541    0.37452590222366   -0.65465868309285
5
 energy: -11.086948720566 gnorm: 0.023014107697 xtb: 6.2.2 (9d81278992624c895f80dd42a50cac0aa55982e2)
C        -0.30309115790753    0.27683455620406   -0.33433589210302
N        -1.13114979145801   -0.16653377825054    0.51177767859333
C         2.18543508796824    0.30418142596754   -0.88413372121058
C        -1.72888922881652   -0.78889178489098    1.33095171912949
C         0.97769609021382    0.37441058096993   -0.62425978440923
5
 energy: -11.088245677668 gnorm: 0.026726975466 xtb: 6.2.2 (9d81278992624c895f80dd42a50cac0aa55982e2)
C        -0.29337929645062    0.25233840756458   -0.32490845889856
N        -1.12478387225047   -0.15668579739519    0.53175332780299
C         2.18114650677580    0.34412942615568   -0.93963970120019
C        -1.74855590536435   -0.78932519510902    1.32367752348703
C         0.98557356728964    0.34954415878394   -0.59088269119126
5
 energy: -11.090699551405 gnorm: 0.023617172768 xtb: 6.2.2 (9d81278992624c895f80dd42a50cac0aa55982e2)
C        -0.26093393894971    0.21567688500829   -0.28776845715734
N        -1.09264280543556   -0.17736738496705    0.56434389931761
C         2.15785357986052    0.41259868958135   -1.01794737465002
C        -1.80481389712534   -0.77890383727313    1.31558368685534
C         1.00053806165009    0.32799664765055   -0.57421175436559
5
 energy: -11.092846216201 gnorm: 0.054927007533 xtb: 6.2.2 (9d81278992624c895f80dd42a50cac0aa55982e2)
C        -0.21080232378862    0.15232535598898   -0.21848519425371
N        -1.06331947966929   -0.24420556954788    0.60065996235470
C         2.14186064921227    0.50448724747348   -1.13727700168317
C        -1.90279029768383   -0.74213292031849    1.32029525353385
C         1.03505245192947    0.32952688640392   -0.56519301995167
5
 energy: -11.092590120818 gnorm: 0.075919400204 xtb: 6.2.2 (9d81278992624c895f80dd42a50cac0aa55982e2)
C        -0.18330132446622    0.14995815347108   -0.17727190483091
N        -1.04017957145215   -0.30668427104876    0.59866123850505
C         2.12229711902470    0.51722279231013   -1.13057275113284
C        -1.93776361857365   -0.71593348661110    1.32275194099390
C         1.03894839546732    0.35543781187865   -0.61356852353520
5
 energy: -11.094166091008 gnorm: 0.035616660016 xtb: 6.2.2 (9d81278992624c895f80dd42a50cac0aa55982e2)
C        -0.16563462467429    0.12389510041576   -0.14755320471069
N        -1.04519990488086   -0.27352987528700    0.63408387074799
C         2.11260056373557    0.60540755540138   -1.17469360265934
C        -1.96407790476833   -0.70513612426179    1.28463857332519
C         1.06231287058791    0.24936434373167   -0.59647563670312
5
 energy: -11.094545288175 gnorm: 0.016386466569 xtb: 6.2.2 (9d81278992624c895f80dd42a50cac0aa55982e2)
C        -0.17076093901544    0.15155566363460   -0.13954614361830
N        -1.05480468723312   -0.35384275773695    0.57511671881769
C         2.11886000274493    0.55870527825034   -1.15916246125942
C        -1.93571767863074   -0.67001799768650    1.31549165388121
C         1.04242430213435    0.31360081353848   -0.59189976782125
5
 energy: -11.094766976655 gnorm: 0.016147189689 xtb: 6.2.2 (9d81278992624c895f80dd42a50cac0aa55982e2)
C        -0.16992098585357    0.11828156588456   -0.16420538040327
N        -1.03776880561518   -0.27915927234209    0.63740630707325
C         2.11965803672233    0.53789218211085   -1.15004524457075
C        -1.94455248440033   -0.71546987463116    1.28425268164357
C         1.03258523914677    0.33845639897786   -0.60740836374275
5
 energy: -11.095324595940 gnorm: 0.005412263981 xtb: 6.2.2 (9d81278992624c895f80dd42a50cac0aa55982e2)
C        -0.15487142833978    0.12515726834269   -0.13937165817579
N        -1.04678970068352   -0.31013072234531    0.61567885205577
C         2.11055614675421    0.58199071769849   -1.17269691831420
C        -1.96131514178128   -0.68711750547149    1.29177876235178
C         1.05242112405037    0.29010124177562   -0.59538903791756
5
 energy: -11.095401799190 gnorm: 0.004388455444 xtb: 6.2.2 (9d81278992624c895f80dd42a50cac0aa55982e2)
C        -0.15035310154792    0.11981164054263   -0.13464449573857
N        -1.04623483831495   -0.31291513731881    0.61788427130674
C         2.10961687868744    0.58225889508177   -1.17653545675345
C        -1.96560077330478   -0.68393626239717    1.28863677266640
C         1.05257283448021    0.29478186409159   -0.59534109148113
5
 energy: -11.095703698651 gnorm: 0.009954516470 xtb: 6.2.2 (9d81278992624c895f80dd42a50cac0aa55982e2)
C        -0.11265700691848    0.07842744302208   -0.09531710719099
N        -1.04153176776208   -0.32782644296869    0.63642499137759
C         2.09870567073889    0.60202482009007   -1.21178402361217
C        -2.00695010626727   -0.65997617010222    1.26427218160563
C         1.06243421020894    0.30735134995877   -0.59359604218006
5
 energy: -11.095795553235 gnorm: 0.005685954768 xtb: 6.2.2 (9d81278992624c895f80dd42a50cac0aa55982e2)
C        -0.09991179061251    0.06055927538042   -0.07977741897604
N        -1.03736809408089   -0.32948083149012    0.64388802884891
C         2.09234975782410    0.60670077215457   -1.22229966294158
C        -2.01841313003164   -0.65175649198131    1.25164077351426
C         1.06334425690093    0.31397827593644   -0.59345172044556
5
 energy: -11.095843494548 gnorm: 0.003591316169 xtb: 6.2.2 (9d81278992624c895f80dd42a50cac0aa55982e2)
C        -0.08710645877413    0.04612137280028   -0.06400358526554
N        -1.03459473019689   -0.33145762431398    0.64768677849166
C         2.08421720657936    0.61626196983066   -1.23218070673897
C        -2.02836026315693   -0.64260510911515    1.24096628782120
C         1.06584524554859    0.31168039079819   -0.59246877430835
5
 energy: -11.095863555450 gnorm: 0.003120913197 xtb: 6.2.2 (9d81278992624c895f80dd42a50cac0aa55982e2)
C        -0.08048744936525    0.03922570734696   -0.05594428083997
N        -1.03418667097932   -0.33156212133876    0.64864240859692
C         2.08016780008517    0.62058949885674   -1.23588400889748
C        -2.03237193521508   -0.63880188243124    1.23641175987783
C         1.06687925547448    0.31054979756631   -0.59322587873730
5
 energy: -11.095887164304 gnorm: 0.003546679392 xtb: 6.2.2 (9d81278992624c895f80dd42a50cac0aa55982e2)
C        -0.07019160665563    0.02989790187362   -0.04351669827926
N        -1.03535470130433   -0.33249955496900    0.64889267873366
C         2.07541041664856    0.62826018797870   -1.24186360984035
C        -2.03882019808317   -0.63313677936109    1.23129277283552
C         1.06895708939456    0.30747924447777   -0.59480514344958
5
 energy: -11.095917301514 gnorm: 0.005998164012 xtb: 6.2.2 (9d81278992624c895f80dd42a50cac0aa55982e2)
C        -0.06141833869747    0.02314406681637   -0.03240211370232
N        -1.03883092356071   -0.33159079843622    0.64580641859734
C         2.07261642320064    0.63307863724810   -1.24383199950385
C        -2.04110188072911   -0.63008171250691    1.22929703887968
C         1.06873571978664    0.30545080687866   -0.59886934427084
5
 energy: -11.095955132495 gnorm: 0.006325522688 xtb: 6.2.2 (9d81278992624c895f80dd42a50cac0aa55982e2)
C        -0.04727061646576    0.01181963461213   -0.01527434129626
N        -1.04407200799875   -0.33081789662955    0.64233616461857
C         2.07067689718561    0.63975481101048   -1.24836167181109
C        -2.04732719244907   -0.62586634203888    1.22681299705672
C         1.06799391972795    0.30511079304583   -0.60551314856795
5
 energy: -11.096002383305 gnorm: 0.006043506159 xtb: 6.2.2 (9d81278992624c895f80dd42a50cac0aa55982e2)
C        -0.03941904011256    0.00729751987517   -0.00464876361162
N        -1.05132167069991   -0.32636732532740    0.63419957968568
C         2.07405795032107    0.63899264255171   -1.24483759531781
C        -2.04510409749973   -0.62784970960196    1.23035842935161
C         1.06178785799111    0.30792787250248   -0.61507165010787
5
 energy: -11.096032544891 gnorm: 0.002453351643 xtb: 6.2.2 (9d81278992624c895f80dd42a50cac0aa55982e2)
C        -0.03450207667953    0.00318426222184    0.00198918585686
N        -1.05581631192175   -0.32209288318978    0.62948788145737
C         2.07962708136816    0.63430981357711   -1.24136500677807
C        -2.04381907734426   -0.63135114145218    1.23342871388299
C         1.05451138457738    0.31595094884302   -0.62354077441915
5
 energy: -11.096036918986 gnorm: 0.000662295871 xtb: 6.2.2 (9d81278992624c895f80dd42a50cac0aa55982e2)
C        -0.03452561730020    0.00244875871479    0.00193173267155
N        -1.05555144794771   -0.32082586977728    0.62972033015679
C         2.08123752512024    0.63183023860565   -1.24024054108036
C        -2.04311822344303   -0.63261451329220    1.23341858297471
C         1.05195876357069    0.31916238574905   -0.62483010472269
