 Entering Gaussian System, Link 0=g16
 Initial command:
 /applis/site/cecic/gaussian16/B.01/nehalem/g16/l1.exe "/bettik/tinaccil/g16/12339097_l-C5H_2Pi/Gau-51612.inp" -scrdir="/bettik/tinaccil/g16/12339097_l-C5H_2Pi/"
 Entering Link 1 = /applis/site/cecic/gaussian16/B.01/nehalem/g16/l1.exe PID=     51616.
  
 Copyright (c) 1988-2017, Gaussian, Inc.  All Rights Reserved.
  
 This is part of the Gaussian(R) 16 program.  It is based on
 the Gaussian(R) 09 system (copyright 2009, Gaussian, Inc.),
 the Gaussian(R) 03 system (copyright 2003, Gaussian, Inc.),
 the Gaussian(R) 98 system (copyright 1998, Gaussian, Inc.),
 the Gaussian(R) 94 system (copyright 1995, Gaussian, Inc.),
 the Gaussian 92(TM) system (copyright 1992, Gaussian, Inc.),
 the Gaussian 90(TM) system (copyright 1990, Gaussian, Inc.),
 the Gaussian 88(TM) system (copyright 1988, Gaussian, Inc.),
 the Gaussian 86(TM) system (copyright 1986, Carnegie Mellon
 University), and the Gaussian 82(TM) system (copyright 1983,
 Carnegie Mellon University). Gaussian is a federally registered
 trademark of Gaussian, Inc.
  
 This software contains proprietary and confidential information,
 including trade secrets, belonging to Gaussian, Inc.
  
 This software is provided under written license and may be
 used, copied, transmitted, or stored only in accord with that
 written license.
  
 The following legend is applicable only to US Government
 contracts under FAR:
  
                    RESTRICTED RIGHTS LEGEND
  
 Use, reproduction and disclosure by the US Government is
 subject to restrictions as set forth in subparagraphs (a)
 and (c) of the Commercial Computer Software - Restricted
 Rights clause in FAR 52.227-19.
  
 Gaussian, Inc.
 340 Quinnipiac St., Bldg. 40, Wallingford CT 06492
  
  
 ---------------------------------------------------------------
 Warning -- This program may not be used in any manner that
 competes with the business of Gaussian, Inc. or will provide
 assistance to any competitor of Gaussian, Inc.  The licensee
 of this program is prohibited from giving any competitor of
 Gaussian, Inc. access to this program.  By using this program,
 the user acknowledges that Gaussian, Inc. is engaged in the
 business of creating and licensing software in the field of
 computational chemistry and represents and warrants to the
 licensee that it is not a competitor of Gaussian, Inc. and that
 it will not use this program in any manner prohibited above.
 ---------------------------------------------------------------
  

 Cite this work as:
 Gaussian 16, Revision B.01,
 M. J. Frisch, G. W. Trucks, H. B. Schlegel, G. E. Scuseria, 
 M. A. Robb, J. R. Cheeseman, G. Scalmani, V. Barone, 
 G. A. Petersson, H. Nakatsuji, X. Li, M. Caricato, A. V. Marenich, 
 J. Bloino, B. G. Janesko, R. Gomperts, B. Mennucci, H. P. Hratchian, 
 J. V. Ortiz, A. F. Izmaylov, J. L. Sonnenberg, D. Williams-Young, 
 F. Ding, F. Lipparini, F. Egidi, J. Goings, B. Peng, A. Petrone, 
 T. Henderson, D. Ranasinghe, V. G. Zakrzewski, J. Gao, N. Rega, 
 G. Zheng, W. Liang, M. Hada, M. Ehara, K. Toyota, R. Fukuda, 
 J. Hasegawa, M. Ishida, T. Nakajima, Y. Honda, O. Kitao, H. Nakai, 
 T. Vreven, K. Throssell, J. A. Montgomery, Jr., J. E. Peralta, 
 F. Ogliaro, M. J. Bearpark, J. J. Heyd, E. N. Brothers, K. N. Kudin, 
 V. N. Staroverov, T. A. Keith, R. Kobayashi, J. Normand, 
 K. Raghavachari, A. P. Rendell, J. C. Burant, S. S. Iyengar, 
 J. Tomasi, M. Cossi, J. M. Millam, M. Klene, C. Adamo, R. Cammi, 
 J. W. Ochterski, R. L. Martin, K. Morokuma, O. Farkas, 
 J. B. Foresman, and D. J. Fox, Gaussian, Inc., Wallingford CT, 2016.
 
 ******************************************
 Gaussian 16:  ES64L-G16RevB.01 20-Dec-2017
                28-Sep-2020 
 ******************************************
 %nosave
 %nproc=8
 Will use up to    8 processors via shared memory.
 %mem=2gb
 %chk=input
 --------------------------------------------------------
 #P M062X/cc-pvtz nosymm opt(noeigentest) optcyc=120 freq
 --------------------------------------------------------
 1/6=120,11=1,18=20,19=15,26=3,38=1/1,3;
 2/9=110,12=2,15=1,17=6,18=5,40=1/2;
 3/5=16,6=1,11=2,25=1,30=1,71=1,74=-55/1,2,3;
 4//1;
 5/5=2,38=5/2;
 6/7=2,8=2,9=2,10=2,28=1/1;
 7/30=1/1,2,3,16;
 1/6=120,11=1,18=20,19=15,26=3/3(2);
 2/9=110,15=1/2;
 99//99;
 2/9=110,15=1/2;
 3/5=16,6=1,11=2,25=1,30=1,71=1,74=-55/1,2,3;
 4/5=5,16=3,69=1/1;
 5/5=2,38=5/2;
 7/30=1/1,2,3,16;
 1/6=120,11=1,18=20,19=15,26=3/3(-5);
 2/9=110,15=1/2;
 6/7=2,8=2,9=2,10=2,19=2,28=1/1;
 99/9=1/99;
 Leave Link    1 at Mon Sep 28 11:12:51 2020, MaxMem=   268435456 cpu:               1.0 elap:               0.2
 (Enter /applis/site/cecic/gaussian16/B.01/nehalem/g16/l101.exe)
 -----
 Title
 -----
 Symbolic Z-matrix:
 Charge =  0 Multiplicity = 2
 C
 C                    1    B1
 C                    2    B2       1    A2
 C                    3    B3       2    A3       1    D3       0
 H                    4    B4       3    A4       2    D4       0
 C                    1    B5       2    A5       3    D5       0
       Variables:
  B1                    1.20531                  
  B2                    1.41182                  
  A2                  179.97438                  
  B3                    1.20531                  
  A3                  179.97438                  
  D3                  360.                       
  B4                    1.05834                  
  A4                  179.97438                  
  D4                  360.                       
  B5                    1.46287                  
  A5                  179.97438                  
  D5                  360.                       
 
 ITRead=  0  0  0  0  0  0
 MicOpt= -1 -1 -1 -1 -1 -1
 NAtoms=      6 NQM=        6 NQMF=       0 NMMI=      0 NMMIF=      0
                NMic=       0 NMicF=      0.
                    Isotopes and Nuclear Properties:
 (Nuclear quadrupole moments (NQMom) in fm**2, nuclear magnetic moments (NMagM)
  in nuclear magnetons)

  Atom         1           2           3           4           5           6
 IAtWgt=          12          12          12          12           1          12
 AtmWgt=  12.0000000  12.0000000  12.0000000  12.0000000   1.0078250  12.0000000
 NucSpn=           0           0           0           0           1           0
 AtZEff=  -0.0000000  -0.0000000  -0.0000000  -0.0000000  -0.0000000  -0.0000000
 NQMom=    0.0000000   0.0000000   0.0000000   0.0000000   0.0000000   0.0000000
 NMagM=    0.0000000   0.0000000   0.0000000   0.0000000   2.7928460   0.0000000
 AtZNuc=   6.0000000   6.0000000   6.0000000   6.0000000   1.0000000   6.0000000
 Leave Link  101 at Mon Sep 28 11:12:51 2020, MaxMem=   268435456 cpu:               2.3 elap:               0.3
 (Enter /applis/site/cecic/gaussian16/B.01/nehalem/g16/l103.exe)

 GradGradGradGradGradGradGradGradGradGradGradGradGradGradGradGradGradGrad
 Berny optimization.
 Initialization pass.
                           ----------------------------
                           !    Initial Parameters    !
                           ! (Angstroms and Degrees)  !
 --------------------------                            --------------------------
 ! Name  Definition              Value          Derivative Info.                !
 --------------------------------------------------------------------------------
 ! R1    R(1,2)                  1.2053         estimate D2E/DX2                !
 ! R2    R(1,6)                  1.4629         estimate D2E/DX2                !
 ! R3    R(2,3)                  1.4118         estimate D2E/DX2                !
 ! R4    R(3,4)                  1.2053         estimate D2E/DX2                !
 ! R5    R(4,5)                  1.0583         estimate D2E/DX2                !
 ! A1    L(2,1,6,-2,-1)        180.0256         estimate D2E/DX2                !
 ! A2    L(1,2,3,-2,-1)        179.9744         estimate D2E/DX2                !
 ! A3    L(2,3,4,-2,-1)        179.9744         estimate D2E/DX2                !
 ! A4    L(3,4,5,-2,-1)        179.9744         estimate D2E/DX2                !
 ! A5    L(2,1,6,-1,-2)        180.0            estimate D2E/DX2                !
 ! A6    L(1,2,3,-1,-2)        180.0            estimate D2E/DX2                !
 ! A7    L(2,3,4,-1,-2)        180.0            estimate D2E/DX2                !
 ! A8    L(3,4,5,-1,-2)        180.0            estimate D2E/DX2                !
 --------------------------------------------------------------------------------
 Trust Radius=3.00D-01 FncErr=1.00D-07 GrdErr=1.00D-06 EigMax=2.50D+02 EigMin=1.00D-04
 Number of steps in this run=    100 maximum allowed number of steps=    100.
 GradGradGradGradGradGradGradGradGradGradGradGradGradGradGradGradGradGrad

 Leave Link  103 at Mon Sep 28 11:12:51 2020, MaxMem=   268435456 cpu:               0.3 elap:               0.1
 (Enter /applis/site/cecic/gaussian16/B.01/nehalem/g16/l202.exe)
                          Input orientation:                          
 ---------------------------------------------------------------------
 Center     Atomic      Atomic             Coordinates (Angstroms)
 Number     Number       Type             X           Y           Z
 ---------------------------------------------------------------------
      1          6           0        0.000000    0.000000    0.000000
      2          6           0        0.000000    0.000000    1.205310
      3          6           0        0.000631    0.000000    2.617130
      4          6           0        0.001709    0.000000    3.822439
      5          1           0        0.003129    0.000000    4.880778
      6          6           0        0.000654    0.000000   -1.462870
 ---------------------------------------------------------------------
                    Distance matrix (angstroms):
                    1          2          3          4          5
     1  C    0.000000
     2  C    1.205310   0.000000
     3  C    2.617130   1.411820   0.000000
     4  C    3.822440   2.617130   1.205310   0.000000
     5  H    4.880779   3.675470   2.263650   1.058340   0.000000
     6  C    1.462870   2.668180   4.080000   5.285309   6.343649
                    6
     6  C    0.000000
 Symmetry turned off by external request.
 This structure is nearly, but not quite of a higher symmetry.
 Consider Symm=Loose if the higher symmetry is desired.
 Stoichiometry    C5H(2)
 Framework group  CS[SG(C5H)]
 Deg. of freedom     9
 Full point group                 CS      NOp   2
 Rotational constants (GHZ):    28272639.6591905           2.2756519           2.2756517
 Leave Link  202 at Mon Sep 28 11:12:51 2020, MaxMem=   268435456 cpu:               0.7 elap:               0.2
 (Enter /applis/site/cecic/gaussian16/B.01/nehalem/g16/l301.exe)
 Standard basis: CC-pVTZ (5D, 7F)
 Ernie: Thresh=  0.10000D-02 Tol=  0.10000D-05 Strict=F.
 Ernie:  15 primitive shells out of 138 were deleted.
   164 basis functions,   277 primitive gaussians,   190 cartesian basis functions
    16 alpha electrons       15 beta electrons
       nuclear repulsion energy        99.4999122379 Hartrees.
 IExCor= 4336 DFT=T Ex+Corr=M062X ExCW=0 ScaHFX=  0.540000
 ScaDFX=  1.000000  1.000000  1.000000  1.000000 ScalE2=  1.000000  1.000000
 IRadAn=      5 IRanWt=     -1 IRanGd=            0 ICorTp=0 IEmpDi=  4
 NAtoms=    6 NActive=    6 NUniq=    6 SFac= 1.00D+00 NAtFMM=   60 NAOKFM=F Big=F
 Integral buffers will be    131072 words long.
 Raffenetti 2 integral format.
 Two-electron integral symmetry is turned off.
 Leave Link  301 at Mon Sep 28 11:12:51 2020, MaxMem=   268435456 cpu:               0.7 elap:               0.1
 (Enter /applis/site/cecic/gaussian16/B.01/nehalem/g16/l302.exe)
 NPDir=0 NMtPBC=     1 NCelOv=     1 NCel=       1 NClECP=     1 NCelD=      1
         NCelK=      1 NCelE2=     1 NClLst=     1 CellRange=     0.0.
 One-electron integrals computed using PRISM.
 NBasis=   164 RedAO= T EigKep=  2.20D-05  NBF=   164
 NBsUse=   164 1.00D-06 EigRej= -1.00D+00 NBFU=   164
 Precomputing XC quadrature grid using
 IXCGrd= 4 IRadAn=           5 IRanWt=          -1 IRanGd=           0 AccXCQ= 0.00D+00.
 Generated NRdTot=       0 NPtTot=           0 NUsed=           0 NTot=          32
 NSgBfM=   190   190   190   190   190 MxSgAt=     6 MxSgA2=     6.
 Leave Link  302 at Mon Sep 28 11:12:52 2020, MaxMem=   268435456 cpu:               2.0 elap:               0.3
 (Enter /applis/site/cecic/gaussian16/B.01/nehalem/g16/l303.exe)
 DipDrv:  MaxL=1.
 Leave Link  303 at Mon Sep 28 11:12:52 2020, MaxMem=   268435456 cpu:               0.8 elap:               0.2
 (Enter /applis/site/cecic/gaussian16/B.01/nehalem/g16/l401.exe)
 ExpMin= 1.03D-01 ExpMax= 8.24D+03 ExpMxC= 2.81D+02 IAcc=3 IRadAn=         5 AccDes= 0.00D+00
 Harris functional with IExCor= 1009 and IRadAn=       5 diagonalized for initial guess.
 HarFok:  IExCor= 1009 AccDes= 0.00D+00 IRadAn=         5 IDoV= 1 UseB2=F ITyADJ=14
 ICtDFT=  3500011 ScaDFX=  1.000000  1.000000  1.000000  1.000000
 FoFCou: FMM=F IPFlag=           0 FMFlag=      100000 FMFlg1=           0
         NFxFlg=           0 DoJE=T BraDBF=F KetDBF=T FulRan=T
         wScrn=  0.000000 ICntrl=       500 IOpCl=  0 I1Cent=   200000004 NGrid=           0
         NMat0=    1 NMatS0=      1 NMatT0=    0 NMatD0=    1 NMtDS0=    0 NMtDT0=    0
 Symmetry not used in FoFCou.
 Harris En= -190.719090901330    
 JPrj=0 DoOrth=F DoCkMO=F.
 Initial guess <Sx>= 0.0000 <Sy>= 0.0000 <Sz>= 0.5000 <S**2>= 0.7500 S= 0.5000
 Leave Link  401 at Mon Sep 28 11:12:53 2020, MaxMem=   268435456 cpu:               4.0 elap:               0.6
 (Enter /applis/site/cecic/gaussian16/B.01/nehalem/g16/l502.exe)
 Keep R1 and R2 ints in memory in canonical form, NReq=191223282.
 FoFCou: FMM=F IPFlag=           0 FMFlag=           0 FMFlg1=           0
         NFxFlg=           0 DoJE=F BraDBF=F KetDBF=F FulRan=T
         wScrn=  0.000000 ICntrl=       600 IOpCl=  0 I1Cent=           0 NGrid=           0
         NMat0=    1 NMatS0=  13530 NMatT0=    0 NMatD0=    1 NMtDS0=    0 NMtDT0=    0
 Symmetry not used in FoFCou.
 Two-electron integral symmetry not used.
 UHF open shell SCF:
 Using DIIS extrapolation, IDIIS=  1040.
 NGot=   268435456 LenX=    85286028 LenY=    85249487
 Requested convergence on RMS density matrix=1.00D-08 within 128 cycles.
 Requested convergence on MAX density matrix=1.00D-06.
 Requested convergence on             energy=1.00D-06.
 No special actions if energy rises.
 Integral accuracy reduced to 1.0D-05 until final iterations.

 Cycle   1  Pass 0  IDiag  1:
 E= -190.674814296976    
 DIIS: error= 3.55D-02 at cycle   1 NSaved=   1.
 NSaved= 1 IEnMin= 1 EnMin= -190.674814296976     IErMin= 1 ErrMin= 3.55D-02
 ErrMax= 3.55D-02  0.00D+00 EMaxC= 1.00D-01 BMatC= 6.02D-01 BMatP= 6.02D-01
 IDIUse=3 WtCom= 6.45D-01 WtEn= 3.55D-01
 Coeff-Com:  0.100D+01
 Coeff-En:   0.100D+01
 Coeff:      0.100D+01
 Gap=     0.145 Goal=   None    Shift=    0.000
 Gap=     0.357 Goal=   None    Shift=    0.000
 GapD=    0.145 DampG=1.000 DampE=0.500 DampFc=0.5000 IDamp=-1.
 Damping current iteration by 5.00D-01
 RMSDP=4.41D-03 MaxDP=2.36D-01              OVMax= 2.77D-01

 Cycle   2  Pass 0  IDiag  1:
 E= -190.719542594785     Delta-E=       -0.044728297809 Rises=F Damp=T
 DIIS: error= 1.14D-02 at cycle   2 NSaved=   2.
 NSaved= 2 IEnMin= 2 EnMin= -190.719542594785     IErMin= 2 ErrMin= 1.14D-02
 ErrMax= 1.14D-02  0.00D+00 EMaxC= 1.00D-01 BMatC= 7.47D-02 BMatP= 6.02D-01
 IDIUse=3 WtCom= 8.86D-01 WtEn= 1.14D-01
 Coeff-Com:  0.178D-01 0.982D+00
 Coeff-En:   0.219D+00 0.781D+00
 Coeff:      0.408D-01 0.959D+00
 Gap=     0.201 Goal=   None    Shift=    0.000
 Gap=     0.279 Goal=   None    Shift=    0.000
 RMSDP=1.03D-02 MaxDP=6.80D-01 DE=-4.47D-02 OVMax= 2.92D-01

 Cycle   3  Pass 0  IDiag  1:
 E= -190.778903252796     Delta-E=       -0.059360658012 Rises=F Damp=F
 DIIS: error= 1.86D-02 at cycle   3 NSaved=   3.
 NSaved= 3 IEnMin= 3 EnMin= -190.778903252796     IErMin= 2 ErrMin= 1.14D-02
 ErrMax= 1.86D-02  0.00D+00 EMaxC= 1.00D-01 BMatC= 8.67D-02 BMatP= 7.47D-02
 IDIUse=2 WtCom= 0.00D+00 WtEn= 1.00D+00
 Coeff-En:   0.000D+00 0.000D+00 0.100D+01
 Coeff:      0.000D+00 0.000D+00 0.100D+01
 Gap=     0.177 Goal=   None    Shift=    0.000
 Gap=     0.354 Goal=   None    Shift=    0.000
 RMSDP=9.18D-03 MaxDP=6.06D-01 DE=-5.94D-02 OVMax= 1.83D-01

 Cycle   4  Pass 0  IDiag  1:
 E= -190.711596388623     Delta-E=        0.067306864173 Rises=F Damp=F
 DIIS: error= 3.47D-02 at cycle   4 NSaved=   4.
 NSaved= 4 IEnMin= 3 EnMin= -190.778903252796     IErMin= 2 ErrMin= 1.14D-02
 ErrMax= 3.47D-02  0.00D+00 EMaxC= 1.00D-01 BMatC= 3.21D-01 BMatP= 7.47D-02
 IDIUse=2 WtCom= 0.00D+00 WtEn= 1.00D+00
 Coeff-En:   0.000D+00 0.000D+00 0.734D+00 0.266D+00
 Coeff:      0.000D+00 0.000D+00 0.734D+00 0.266D+00
 Gap=     0.153 Goal=   None    Shift=    0.000
 Gap=     0.246 Goal=   None    Shift=    0.000
 RMSDP=2.91D-03 MaxDP=1.97D-01 DE= 6.73D-02 OVMax= 1.10D-01

 Cycle   5  Pass 0  IDiag  1:
 E= -190.803959755876     Delta-E=       -0.092363367252 Rises=F Damp=F
 DIIS: error= 7.34D-03 at cycle   5 NSaved=   5.
 NSaved= 5 IEnMin= 5 EnMin= -190.803959755876     IErMin= 5 ErrMin= 7.34D-03
 ErrMax= 7.34D-03  0.00D+00 EMaxC= 1.00D-01 BMatC= 1.33D-02 BMatP= 7.47D-02
 IDIUse=3 WtCom= 9.27D-01 WtEn= 7.34D-02
 Coeff-Com: -0.556D-02 0.478D-02 0.174D+00-0.101D+00 0.928D+00
 Coeff-En:   0.000D+00 0.000D+00 0.108D+00 0.000D+00 0.892D+00
 Coeff:     -0.515D-02 0.443D-02 0.169D+00-0.934D-01 0.925D+00
 Gap=     0.153 Goal=   None    Shift=    0.000
 Gap=     0.258 Goal=   None    Shift=    0.000
 RMSDP=1.45D-03 MaxDP=1.08D-01 DE=-9.24D-02 OVMax= 3.90D-02

 Cycle   6  Pass 0  IDiag  1:
 E= -190.808210634832     Delta-E=       -0.004250878956 Rises=F Damp=F
 DIIS: error= 1.67D-03 at cycle   6 NSaved=   6.
 NSaved= 6 IEnMin= 6 EnMin= -190.808210634832     IErMin= 6 ErrMin= 1.67D-03
 ErrMax= 1.67D-03  0.00D+00 EMaxC= 1.00D-01 BMatC= 8.80D-04 BMatP= 1.33D-02
 IDIUse=3 WtCom= 9.83D-01 WtEn= 1.67D-02
 Coeff-Com: -0.788D-02 0.374D-03 0.106D-01-0.111D+00 0.594D+00 0.515D+00
 Coeff-En:   0.000D+00 0.000D+00 0.000D+00 0.000D+00 0.000D+00 0.100D+01
 Coeff:     -0.774D-02 0.368D-03 0.104D-01-0.109D+00 0.584D+00 0.523D+00
 Gap=     0.154 Goal=   None    Shift=    0.000
 Gap=     0.258 Goal=   None    Shift=    0.000
 RMSDP=1.52D-04 MaxDP=8.14D-03 DE=-4.25D-03 OVMax= 1.11D-02

 Cycle   7  Pass 0  IDiag  1:
 E= -190.808519825213     Delta-E=       -0.000309190381 Rises=F Damp=F
 DIIS: error= 7.43D-04 at cycle   7 NSaved=   7.
 NSaved= 7 IEnMin= 7 EnMin= -190.808519825213     IErMin= 7 ErrMin= 7.43D-04
 ErrMax= 7.43D-04  0.00D+00 EMaxC= 1.00D-01 BMatC= 4.58D-05 BMatP= 8.80D-04
 IDIUse=3 WtCom= 9.93D-01 WtEn= 7.43D-03
 Coeff-Com: -0.123D-02 0.416D-02-0.572D-01 0.179D-01-0.248D+00-0.286D-01
 Coeff-Com:  0.131D+01
 Coeff-En:   0.000D+00 0.000D+00 0.000D+00 0.000D+00 0.000D+00 0.000D+00
 Coeff-En:   0.100D+01
 Coeff:     -0.122D-02 0.413D-02-0.567D-01 0.178D-01-0.246D+00-0.284D-01
 Coeff:      0.131D+01
 Gap=     0.155 Goal=   None    Shift=    0.000
 Gap=     0.259 Goal=   None    Shift=    0.000
 RMSDP=3.37D-04 MaxDP=2.75D-02 DE=-3.09D-04 OVMax= 1.05D-02

 Cycle   8  Pass 0  IDiag  1:
 E= -190.808593672102     Delta-E=       -0.000073846889 Rises=F Damp=F
 DIIS: error= 2.38D-04 at cycle   8 NSaved=   8.
 NSaved= 8 IEnMin= 8 EnMin= -190.808593672102     IErMin= 8 ErrMin= 2.38D-04
 ErrMax= 2.38D-04  0.00D+00 EMaxC= 1.00D-01 BMatC= 8.11D-06 BMatP= 4.58D-05
 IDIUse=3 WtCom= 9.98D-01 WtEn= 2.38D-03
 Coeff-Com:  0.150D-02-0.388D-02-0.897D-02 0.185D-01-0.941D-01-0.543D-01
 Coeff-Com:  0.160D+00 0.981D+00
 Coeff-En:   0.000D+00 0.000D+00 0.000D+00 0.000D+00 0.000D+00 0.000D+00
 Coeff-En:   0.000D+00 0.100D+01
 Coeff:      0.149D-02-0.387D-02-0.895D-02 0.185D-01-0.939D-01-0.542D-01
 Coeff:      0.160D+00 0.981D+00
 Gap=     0.156 Goal=   None    Shift=    0.000
 Gap=     0.259 Goal=   None    Shift=    0.000
 RMSDP=1.12D-04 MaxDP=9.07D-03 DE=-7.38D-05 OVMax= 3.52D-03

 Cycle   9  Pass 0  IDiag  1:
 E= -190.808599421840     Delta-E=       -0.000005749738 Rises=F Damp=F
 DIIS: error= 7.57D-05 at cycle   9 NSaved=   9.
 NSaved= 9 IEnMin= 9 EnMin= -190.808599421840     IErMin= 9 ErrMin= 7.57D-05
 ErrMax= 7.57D-05  0.00D+00 EMaxC= 1.00D-01 BMatC= 1.73D-06 BMatP= 8.11D-06
 IDIUse=1 WtCom= 1.00D+00 WtEn= 0.00D+00
 Coeff-Com:  0.490D-03-0.112D-02 0.470D-02 0.381D-02 0.868D-03-0.163D-01
 Coeff-Com: -0.117D+00 0.429D+00 0.696D+00
 Coeff:      0.490D-03-0.112D-02 0.470D-02 0.381D-02 0.868D-03-0.163D-01
 Coeff:     -0.117D+00 0.429D+00 0.696D+00
 Gap=     0.156 Goal=   None    Shift=    0.000
 Gap=     0.259 Goal=   None    Shift=    0.000
 RMSDP=2.90D-05 MaxDP=2.24D-03 DE=-5.75D-06 OVMax= 5.97D-04

 Cycle  10  Pass 0  IDiag  1:
 E= -190.808600208604     Delta-E=       -0.000000786764 Rises=F Damp=F
 DIIS: error= 3.32D-05 at cycle  10 NSaved=  10.
 NSaved=10 IEnMin=10 EnMin= -190.808600208604     IErMin=10 ErrMin= 3.32D-05
 ErrMax= 3.32D-05  0.00D+00 EMaxC= 1.00D-01 BMatC= 1.98D-07 BMatP= 1.73D-06
 IDIUse=1 WtCom= 1.00D+00 WtEn= 0.00D+00
 Coeff-Com: -0.899D-04 0.418D-03 0.284D-02-0.238D-02 0.154D-01 0.500D-02
 Coeff-Com: -0.295D-01-0.112D+00 0.963D-01 0.102D+01
 Coeff:     -0.899D-04 0.418D-03 0.284D-02-0.238D-02 0.154D-01 0.500D-02
 Coeff:     -0.295D-01-0.112D+00 0.963D-01 0.102D+01
 Gap=     0.156 Goal=   None    Shift=    0.000
 Gap=     0.259 Goal=   None    Shift=    0.000
 RMSDP=1.12D-05 MaxDP=6.75D-04 DE=-7.87D-07 OVMax= 2.82D-04

 Cycle  11  Pass 0  IDiag  1:
 E= -190.808600408808     Delta-E=       -0.000000200204 Rises=F Damp=F
 DIIS: error= 2.47D-05 at cycle  11 NSaved=  11.
 NSaved=11 IEnMin=11 EnMin= -190.808600408808     IErMin=11 ErrMin= 2.47D-05
 ErrMax= 2.47D-05  0.00D+00 EMaxC= 1.00D-01 BMatC= 3.58D-08 BMatP= 1.98D-07
 IDIUse=1 WtCom= 1.00D+00 WtEn= 0.00D+00
 Coeff-Com:  0.388D-04-0.193D-03-0.495D-03-0.129D-03-0.119D-02 0.194D-02
 Coeff-Com:  0.187D-01-0.822D-01-0.115D+00-0.503D-02 0.118D+01
 Coeff:      0.388D-04-0.193D-03-0.495D-03-0.129D-03-0.119D-02 0.194D-02
 Coeff:      0.187D-01-0.822D-01-0.115D+00-0.503D-02 0.118D+01
 Gap=     0.156 Goal=   None    Shift=    0.000
 Gap=     0.259 Goal=   None    Shift=    0.000
 RMSDP=1.01D-05 MaxDP=7.62D-04 DE=-2.00D-07 OVMax= 3.01D-04

 Cycle  12  Pass 0  IDiag  1:
 E= -190.808600476745     Delta-E=       -0.000000067937 Rises=F Damp=F
 DIIS: error= 9.58D-06 at cycle  12 NSaved=  12.
 NSaved=12 IEnMin=12 EnMin= -190.808600476745     IErMin=12 ErrMin= 9.58D-06
 ErrMax= 9.58D-06  0.00D+00 EMaxC= 1.00D-01 BMatC= 7.75D-09 BMatP= 3.58D-08
 IDIUse=1 WtCom= 1.00D+00 WtEn= 0.00D+00
 Coeff-Com: -0.598D-04 0.145D-03-0.298D-03 0.829D-04-0.593D-03-0.138D-02
 Coeff-Com: -0.266D-02 0.365D-01 0.246D-01-0.137D+00-0.425D+00 0.151D+01
 Coeff:     -0.598D-04 0.145D-03-0.298D-03 0.829D-04-0.593D-03-0.138D-02
 Coeff:     -0.266D-02 0.365D-01 0.246D-01-0.137D+00-0.425D+00 0.151D+01
 Gap=     0.156 Goal=   None    Shift=    0.000
 Gap=     0.259 Goal=   None    Shift=    0.000
 RMSDP=3.38D-06 MaxDP=1.94D-04 DE=-6.79D-08 OVMax= 1.71D-04

 Initial convergence to 1.0D-05 achieved.  Increase integral accuracy.
 Cycle  13  Pass 1  IDiag  1:
 E= -190.808608874056     Delta-E=       -0.000008397311 Rises=F Damp=F
 DIIS: error= 2.59D-05 at cycle   1 NSaved=   1.
 NSaved= 1 IEnMin= 1 EnMin= -190.808608874056     IErMin= 1 ErrMin= 2.59D-05
 ErrMax= 2.59D-05  0.00D+00 EMaxC= 1.00D-01 BMatC= 4.07D-07 BMatP= 4.07D-07
 IDIUse=1 WtCom= 1.00D+00 WtEn= 0.00D+00
 Coeff-Com:  0.100D+01
 Coeff:      0.100D+01
 Gap=     0.156 Goal=   None    Shift=    0.000
 Gap=     0.259 Goal=   None    Shift=    0.000
 RMSDP=3.38D-06 MaxDP=1.94D-04 DE=-8.40D-06 OVMax= 5.81D-05

 Cycle  14  Pass 1  IDiag  1:
 E= -190.808608930618     Delta-E=       -0.000000056562 Rises=F Damp=F
 DIIS: error= 3.21D-06 at cycle   2 NSaved=   2.
 NSaved= 2 IEnMin= 2 EnMin= -190.808608930618     IErMin= 2 ErrMin= 3.21D-06
 ErrMax= 3.21D-06  0.00D+00 EMaxC= 1.00D-01 BMatC= 5.19D-09 BMatP= 4.07D-07
 IDIUse=1 WtCom= 1.00D+00 WtEn= 0.00D+00
 Coeff-Com: -0.489D-01 0.105D+01
 Coeff:     -0.489D-01 0.105D+01
 Gap=     0.156 Goal=   None    Shift=    0.000
 Gap=     0.259 Goal=   None    Shift=    0.000
 RMSDP=1.12D-06 MaxDP=4.33D-05 DE=-5.66D-08 OVMax= 2.70D-05

 Cycle  15  Pass 1  IDiag  1:
 E= -190.808608931728     Delta-E=       -0.000000001110 Rises=F Damp=F
 DIIS: error= 4.65D-06 at cycle   3 NSaved=   3.
 NSaved= 3 IEnMin= 3 EnMin= -190.808608931728     IErMin= 2 ErrMin= 3.21D-06
 ErrMax= 4.65D-06  0.00D+00 EMaxC= 1.00D-01 BMatC= 3.87D-09 BMatP= 5.19D-09
 IDIUse=1 WtCom= 1.00D+00 WtEn= 0.00D+00
 Coeff-Com: -0.304D-01 0.508D+00 0.522D+00
 Coeff:     -0.304D-01 0.508D+00 0.522D+00
 Gap=     0.156 Goal=   None    Shift=    0.000
 Gap=     0.259 Goal=   None    Shift=    0.000
 RMSDP=3.51D-07 MaxDP=2.18D-05 DE=-1.11D-09 OVMax= 1.47D-05

 Cycle  16  Pass 1  IDiag  1:
 E= -190.808608932658     Delta-E=       -0.000000000930 Rises=F Damp=F
 DIIS: error= 2.33D-06 at cycle   4 NSaved=   4.
 NSaved= 4 IEnMin= 4 EnMin= -190.808608932658     IErMin= 4 ErrMin= 2.33D-06
 ErrMax= 2.33D-06  0.00D+00 EMaxC= 1.00D-01 BMatC= 1.01D-09 BMatP= 3.87D-09
 IDIUse=1 WtCom= 1.00D+00 WtEn= 0.00D+00
 Coeff-Com: -0.458D-02-0.453D-02 0.315D+00 0.694D+00
 Coeff:     -0.458D-02-0.453D-02 0.315D+00 0.694D+00
 Gap=     0.156 Goal=   None    Shift=    0.000
 Gap=     0.259 Goal=   None    Shift=    0.000
 RMSDP=1.76D-07 MaxDP=7.06D-06 DE=-9.30D-10 OVMax= 1.23D-05

 Cycle  17  Pass 1  IDiag  1:
 E= -190.808608933111     Delta-E=       -0.000000000453 Rises=F Damp=F
 DIIS: error= 1.36D-06 at cycle   5 NSaved=   5.
 NSaved= 5 IEnMin= 5 EnMin= -190.808608933111     IErMin= 5 ErrMin= 1.36D-06
 ErrMax= 1.36D-06  0.00D+00 EMaxC= 1.00D-01 BMatC= 1.31D-10 BMatP= 1.01D-09
 IDIUse=1 WtCom= 1.00D+00 WtEn= 0.00D+00
 Coeff-Com:  0.504D-02-0.971D-01-0.112D-01 0.148D+00 0.955D+00
 Coeff:      0.504D-02-0.971D-01-0.112D-01 0.148D+00 0.955D+00
 Gap=     0.156 Goal=   None    Shift=    0.000
 Gap=     0.259 Goal=   None    Shift=    0.000
 RMSDP=1.89D-07 MaxDP=1.11D-05 DE=-4.53D-10 OVMax= 1.32D-05

 Cycle  18  Pass 1  IDiag  1:
 E= -190.808608933311     Delta-E=       -0.000000000201 Rises=F Damp=F
 DIIS: error= 8.67D-07 at cycle   6 NSaved=   6.
 NSaved= 6 IEnMin= 6 EnMin= -190.808608933311     IErMin= 6 ErrMin= 8.67D-07
 ErrMax= 8.67D-07  0.00D+00 EMaxC= 1.00D-01 BMatC= 6.27D-11 BMatP= 1.31D-10
 IDIUse=1 WtCom= 1.00D+00 WtEn= 0.00D+00
 Coeff-Com:  0.184D-02-0.164D-03-0.137D+00-0.320D+00 0.177D+00 0.128D+01
 Coeff:      0.184D-02-0.164D-03-0.137D+00-0.320D+00 0.177D+00 0.128D+01
 Gap=     0.156 Goal=   None    Shift=    0.000
 Gap=     0.259 Goal=   None    Shift=    0.000
 RMSDP=2.52D-07 MaxDP=1.92D-05 DE=-2.01D-10 OVMax= 1.38D-05

 Cycle  19  Pass 1  IDiag  1:
 E= -190.808608933464     Delta-E=       -0.000000000152 Rises=F Damp=F
 DIIS: error= 6.19D-07 at cycle   7 NSaved=   7.
 NSaved= 7 IEnMin= 7 EnMin= -190.808608933464     IErMin= 7 ErrMin= 6.19D-07
 ErrMax= 6.19D-07  0.00D+00 EMaxC= 1.00D-01 BMatC= 2.30D-11 BMatP= 6.27D-11
 IDIUse=1 WtCom= 1.00D+00 WtEn= 0.00D+00
 Coeff-Com: -0.744D-03 0.317D-01-0.552D-01-0.159D+00-0.296D+00 0.523D+00
 Coeff-Com:  0.957D+00
 Coeff:     -0.744D-03 0.317D-01-0.552D-01-0.159D+00-0.296D+00 0.523D+00
 Coeff:      0.957D+00
 Gap=     0.156 Goal=   None    Shift=    0.000
 Gap=     0.259 Goal=   None    Shift=    0.000
 RMSDP=1.55D-07 MaxDP=7.98D-06 DE=-1.52D-10 OVMax= 1.04D-05

 Cycle  20  Pass 1  IDiag  1:
 E= -190.808608933518     Delta-E=       -0.000000000054 Rises=F Damp=F
 DIIS: error= 3.22D-07 at cycle   8 NSaved=   8.
 NSaved= 8 IEnMin= 8 EnMin= -190.808608933518     IErMin= 8 ErrMin= 3.22D-07
 ErrMax= 3.22D-07  0.00D+00 EMaxC= 1.00D-01 BMatC= 8.03D-12 BMatP= 2.30D-11
 IDIUse=1 WtCom= 1.00D+00 WtEn= 0.00D+00
 Coeff-Com: -0.129D-02 0.223D-01 0.180D-01 0.329D-01-0.250D+00-0.146D+00
 Coeff-Com:  0.441D+00 0.883D+00
 Coeff:     -0.129D-02 0.223D-01 0.180D-01 0.329D-01-0.250D+00-0.146D+00
 Coeff:      0.441D+00 0.883D+00
 Gap=     0.156 Goal=   None    Shift=    0.000
 Gap=     0.259 Goal=   None    Shift=    0.000
 RMSDP=1.48D-07 MaxDP=1.06D-05 DE=-5.39D-11 OVMax= 5.24D-06

 Cycle  21  Pass 1  IDiag  1:
 E= -190.808608933533     Delta-E=       -0.000000000016 Rises=F Damp=F
 DIIS: error= 1.81D-07 at cycle   9 NSaved=   9.
 NSaved= 9 IEnMin= 9 EnMin= -190.808608933533     IErMin= 9 ErrMin= 1.81D-07
 ErrMax= 1.81D-07  0.00D+00 EMaxC= 1.00D-01 BMatC= 2.31D-12 BMatP= 8.03D-12
 IDIUse=1 WtCom= 1.00D+00 WtEn= 0.00D+00
 Coeff-Com: -0.101D-03-0.389D-02 0.270D-01 0.775D-01 0.195D-03-0.260D+00
 Coeff-Com: -0.136D+00 0.382D+00 0.913D+00
 Coeff:     -0.101D-03-0.389D-02 0.270D-01 0.775D-01 0.195D-03-0.260D+00
 Coeff:     -0.136D+00 0.382D+00 0.913D+00
 Gap=     0.156 Goal=   None    Shift=    0.000
 Gap=     0.259 Goal=   None    Shift=    0.000
 RMSDP=8.76D-08 MaxDP=6.22D-06 DE=-1.59D-11 OVMax= 3.39D-06

 Cycle  22  Pass 1  IDiag  1:
 E= -190.808608933538     Delta-E=       -0.000000000005 Rises=F Damp=F
 DIIS: error= 8.46D-08 at cycle  10 NSaved=  10.
 NSaved=10 IEnMin=10 EnMin= -190.808608933538     IErMin=10 ErrMin= 8.46D-08
 ErrMax= 8.46D-08  0.00D+00 EMaxC= 1.00D-01 BMatC= 6.64D-13 BMatP= 2.31D-12
 IDIUse=1 WtCom= 1.00D+00 WtEn= 0.00D+00
 Coeff-Com:  0.174D-03-0.551D-02 0.821D-02 0.223D-01 0.557D-01-0.847D-01
 Coeff-Com: -0.147D+00-0.369D-01 0.411D+00 0.776D+00
 Coeff:      0.174D-03-0.551D-02 0.821D-02 0.223D-01 0.557D-01-0.847D-01
 Coeff:     -0.147D+00-0.369D-01 0.411D+00 0.776D+00
 Gap=     0.156 Goal=   None    Shift=    0.000
 Gap=     0.259 Goal=   None    Shift=    0.000
 RMSDP=3.63D-08 MaxDP=2.84D-06 DE=-4.77D-12 OVMax= 1.11D-06

 Cycle  23  Pass 1  IDiag  1:
 E= -190.808608933538     Delta-E=        0.000000000000 Rises=F Damp=F
 DIIS: error= 4.59D-08 at cycle  11 NSaved=  11.
 NSaved=11 IEnMin=10 EnMin= -190.808608933538     IErMin=11 ErrMin= 4.59D-08
 ErrMax= 4.59D-08  0.00D+00 EMaxC= 1.00D-01 BMatC= 1.96D-13 BMatP= 6.64D-13
 IDIUse=1 WtCom= 1.00D+00 WtEn= 0.00D+00
 Coeff-Com:  0.142D-03-0.734D-03-0.774D-02-0.253D-01 0.254D-01 0.684D-01
 Coeff-Com:  0.141D-01-0.183D+00-0.264D+00 0.270D+00 0.110D+01
 Coeff:      0.142D-03-0.734D-03-0.774D-02-0.253D-01 0.254D-01 0.684D-01
 Coeff:      0.141D-01-0.183D+00-0.264D+00 0.270D+00 0.110D+01
 Gap=     0.156 Goal=   None    Shift=    0.000
 Gap=     0.259 Goal=   None    Shift=    0.000
 RMSDP=2.33D-08 MaxDP=1.71D-06 DE= 0.00D+00 OVMax= 1.10D-06

 Cycle  24  Pass 1  IDiag  1:
 E= -190.808608933540     Delta-E=       -0.000000000002 Rises=F Damp=F
 DIIS: error= 1.91D-08 at cycle  12 NSaved=  12.
 NSaved=12 IEnMin=12 EnMin= -190.808608933540     IErMin=12 ErrMin= 1.91D-08
 ErrMax= 1.91D-08  0.00D+00 EMaxC= 1.00D-01 BMatC= 2.70D-14 BMatP= 1.96D-13
 IDIUse=1 WtCom= 1.00D+00 WtEn= 0.00D+00
 Coeff-Com: -0.789D-04 0.198D-02-0.119D-02-0.166D-02-0.218D-01 0.935D-02
 Coeff-Com:  0.455D-01 0.394D-01-0.556D-01-0.249D+00-0.242D+00 0.147D+01
 Coeff:     -0.789D-04 0.198D-02-0.119D-02-0.166D-02-0.218D-01 0.935D-02
 Coeff:      0.455D-01 0.394D-01-0.556D-01-0.249D+00-0.242D+00 0.147D+01
 Gap=     0.156 Goal=   None    Shift=    0.000
 Gap=     0.259 Goal=   None    Shift=    0.000
 RMSDP=1.06D-08 MaxDP=7.55D-07 DE=-1.93D-12 OVMax= 4.70D-07

 Cycle  25  Pass 1  IDiag  1:
 E= -190.808608933539     Delta-E=        0.000000000001 Rises=F Damp=F
 DIIS: error= 4.42D-09 at cycle  13 NSaved=  13.
 NSaved=13 IEnMin=12 EnMin= -190.808608933540     IErMin=13 ErrMin= 4.42D-09
 ErrMax= 4.42D-09  0.00D+00 EMaxC= 1.00D-01 BMatC= 2.00D-15 BMatP= 2.70D-14
 IDIUse=1 WtCom= 1.00D+00 WtEn= 0.00D+00
 Coeff-Com: -0.983D-05-0.964D-04 0.818D-03 0.316D-02-0.448D-03-0.831D-02
 Coeff-Com: -0.694D-02 0.158D-01 0.363D-01 0.594D-03-0.111D+00-0.134D+00
 Coeff-Com:  0.120D+01
 Coeff:     -0.983D-05-0.964D-04 0.818D-03 0.316D-02-0.448D-03-0.831D-02
 Coeff:     -0.694D-02 0.158D-01 0.363D-01 0.594D-03-0.111D+00-0.134D+00
 Coeff:      0.120D+01
 Gap=     0.156 Goal=   None    Shift=    0.000
 Gap=     0.259 Goal=   None    Shift=    0.000
 RMSDP=2.52D-09 MaxDP=1.23D-07 DE= 1.08D-12 OVMax= 7.68D-08

 SCF Done:  E(UM062X) =  -190.808608934     A.U. after   25 cycles
            NFock= 25  Conv=0.25D-08     -V/T= 2.0069
 <Sx>= 0.0000 <Sy>= 0.0000 <Sz>= 0.5000 <S**2>= 0.7702 S= 0.5100
 <L.S>= 0.000000000000E+00
 KE= 1.895070365869D+02 PE=-6.410071628543D+02 EE= 1.611916050960D+02
 Annihilation of the first spin contaminant:
 S**2 before annihilation     0.7702,   after     0.7502
 Leave Link  502 at Mon Sep 28 11:13:21 2020, MaxMem=   268435456 cpu:             181.3 elap:              28.6
 (Enter /applis/site/cecic/gaussian16/B.01/nehalem/g16/l601.exe)
 Copying SCF densities to generalized density rwf, IOpCl= 1 IROHF=0.

 **********************************************************************

            Population analysis using the SCF Density.

 **********************************************************************

 Alpha  occ. eigenvalues --  -10.65187 -10.62145 -10.60282 -10.59501 -10.58447
 Alpha  occ. eigenvalues --   -0.94119  -0.88754  -0.78578  -0.70366  -0.62415
 Alpha  occ. eigenvalues --   -0.46916  -0.45876  -0.40699  -0.38779  -0.36849
 Alpha  occ. eigenvalues --   -0.27850
 Alpha virt. eigenvalues --   -0.12286   0.01612   0.03166   0.07071   0.15959
 Alpha virt. eigenvalues --    0.17824   0.18422   0.19212   0.20484   0.25084
 Alpha virt. eigenvalues --    0.29414   0.29617   0.30395   0.33635   0.33689
 Alpha virt. eigenvalues --    0.35320   0.39777   0.39884   0.41478   0.47934
 Alpha virt. eigenvalues --    0.48334   0.53219   0.53271   0.57115   0.59343
 Alpha virt. eigenvalues --    0.59715   0.60348   0.60462   0.66025   0.71386
 Alpha virt. eigenvalues --    0.71579   0.74887   0.75098   0.77521   0.81005
 Alpha virt. eigenvalues --    0.84441   0.88998   0.89143   0.89241   0.93945
 Alpha virt. eigenvalues --    0.94408   0.98469   1.11117   1.11591   1.12568
 Alpha virt. eigenvalues --    1.12606   1.16812   1.25344   1.32590   1.32604
 Alpha virt. eigenvalues --    1.32873   1.46551   1.46566   1.48659   1.65598
 Alpha virt. eigenvalues --    1.65701   1.80410   1.95010   1.95585   2.03129
 Alpha virt. eigenvalues --    2.14157   2.14727   2.18002   2.25349   2.28126
 Alpha virt. eigenvalues --    2.28235   2.31853   2.31999   2.38564   2.41805
 Alpha virt. eigenvalues --    2.42063   2.42142   2.42305   2.49542   2.51469
 Alpha virt. eigenvalues --    2.51699   2.52103   2.52385   2.54595   2.54787
 Alpha virt. eigenvalues --    2.62494   2.64887   2.66018   2.70568   2.70960
 Alpha virt. eigenvalues --    2.75396   2.75788   2.79989   2.80539   2.80939
 Alpha virt. eigenvalues --    2.81362   2.81471   2.85281   2.85478   2.86881
 Alpha virt. eigenvalues --    2.89618   2.89805   2.96411   2.97885   2.98194
 Alpha virt. eigenvalues --    2.98260   2.99530   2.99830   2.99973   3.06253
 Alpha virt. eigenvalues --    3.06263   3.09538   3.09662   3.17484   3.17874
 Alpha virt. eigenvalues --    3.25720   3.28012   3.28712   3.35891   3.36069
 Alpha virt. eigenvalues --    3.41123   3.43185   3.43787   3.54855   3.78764
 Alpha virt. eigenvalues --    3.78958   3.81062   3.81378   3.84470   3.96267
 Alpha virt. eigenvalues --    3.96369   4.24940   4.25120   4.28493   4.41941
 Alpha virt. eigenvalues --    4.42442   4.45321   4.74050   5.01067   5.01819
 Alpha virt. eigenvalues --    5.15530   5.38525   5.58258   5.58952   5.82182
 Alpha virt. eigenvalues --    5.88785   5.89443   6.22764   6.94512   9.24533
 Alpha virt. eigenvalues --   10.25943  16.49173  17.28163
  Beta  occ. eigenvalues --  -10.64501 -10.61895 -10.60353 -10.59398 -10.58609
  Beta  occ. eigenvalues --   -0.93611  -0.88346  -0.76405  -0.69346  -0.62107
  Beta  occ. eigenvalues --   -0.45563  -0.45068  -0.38075  -0.36664  -0.36176
  Beta virt. eigenvalues --   -0.10234  -0.08330   0.03567   0.04411   0.07001
  Beta virt. eigenvalues --    0.15241   0.17674   0.19388   0.19927   0.21098
  Beta virt. eigenvalues --    0.25131   0.29473   0.29673   0.29924   0.33302
  Beta virt. eigenvalues --    0.33401   0.36210   0.39637   0.39703   0.41446
  Beta virt. eigenvalues --    0.47594   0.47628   0.53613   0.53617   0.57511
  Beta virt. eigenvalues --    0.59157   0.59258   0.60947   0.60960   0.65447
  Beta virt. eigenvalues --    0.72723   0.72783   0.75180   0.75659   0.77352
  Beta virt. eigenvalues --    0.80558   0.84396   0.88655   0.89415   0.89427
  Beta virt. eigenvalues --    0.94259   0.94638   0.98719   1.11343   1.11811
  Beta virt. eigenvalues --    1.12768   1.12771   1.17315   1.26446   1.32578
  Beta virt. eigenvalues --    1.32824   1.32994   1.46618   1.47192   1.48860
  Beta virt. eigenvalues --    1.65646   1.66151   1.81010   1.95861   1.96629
  Beta virt. eigenvalues --    2.03840   2.16249   2.18275   2.19073   2.25124
  Beta virt. eigenvalues --    2.28374   2.28937   2.32587   2.32613   2.38742
  Beta virt. eigenvalues --    2.42700   2.42703   2.42924   2.43470   2.49592
  Beta virt. eigenvalues --    2.52009   2.52016   2.53016   2.53677   2.55674
  Beta virt. eigenvalues --    2.55730   2.62992   2.67886   2.67914   2.71631
  Beta virt. eigenvalues --    2.72305   2.77080   2.77134   2.81744   2.82446
  Beta virt. eigenvalues --    2.82454   2.82775   2.83933   2.85814   2.85819
  Beta virt. eigenvalues --    2.87471   2.90692   2.90703   2.98973   2.99572
  Beta virt. eigenvalues --    2.99969   3.00386   3.00388   3.02613   3.02735
  Beta virt. eigenvalues --    3.06882   3.07666   3.09671   3.09702   3.18703
  Beta virt. eigenvalues --    3.18718   3.26915   3.28659   3.29762   3.36781
  Beta virt. eigenvalues --    3.36794   3.41195   3.43939   3.45414   3.55109
  Beta virt. eigenvalues --    3.79501   3.79512   3.81916   3.82623   3.85509
  Beta virt. eigenvalues --    3.96790   3.97253   4.25711   4.25715   4.30245
  Beta virt. eigenvalues --    4.43295   4.44210   4.47452   4.75012   5.02819
  Beta virt. eigenvalues --    5.03722   5.18179   5.39338   5.59431   5.60199
  Beta virt. eigenvalues --    5.83643   5.89756   5.90337   6.23501   6.95167
  Beta virt. eigenvalues --    9.28517  10.27688  16.49128  17.28346
          Condensed to atoms (all electrons):
               1          2          3          4          5          6
     1  C    6.448952  -0.584479  -0.310231   0.001531  -0.000097   0.542408
     2  C   -0.584479   6.028702   0.715443  -0.484311  -0.006682  -0.027870
     3  C   -0.310231   0.715443   5.347935   0.285140  -0.075046  -0.005425
     4  C    0.001531  -0.484311   0.285140   6.096854   0.460757  -0.000137
     5  H   -0.000097  -0.006682  -0.075046   0.460757   0.482726  -0.000000
     6  C    0.542408  -0.027870  -0.005425  -0.000137  -0.000000   5.572829
          Atomic-Atomic Spin Densities.
               1          2          3          4          5          6
     1  C   -0.539557   0.208530   0.081465   0.006855   0.000001  -0.008399
     2  C    0.208530   0.118611   0.015226   0.032339   0.000052  -0.012265
     3  C    0.081465   0.015226  -0.195740  -0.011289  -0.004143   0.004444
     4  C    0.006855   0.032339  -0.011289   0.133517   0.005671   0.000306
     5  H    0.000001   0.000052  -0.004143   0.005671  -0.003088   0.000001
     6  C   -0.008399  -0.012265   0.004444   0.000306   0.000001   0.848670
 Mulliken charges and spin densities:
               1          2
     1  C   -0.098084  -0.251105
     2  C    0.359198   0.362494
     3  C    0.042184  -0.110038
     4  C   -0.359835   0.167399
     5  H    0.138342  -0.001506
     6  C   -0.081805   0.832757
 Sum of Mulliken charges =  -0.00000   1.00000
 Mulliken charges and spin densities with hydrogens summed into heavy atoms:
               1          2
     1  C   -0.098084  -0.251105
     2  C    0.359198   0.362494
     3  C    0.042184  -0.110038
     4  C   -0.221493   0.165892
     6  C   -0.081805   0.832757
 Electronic spatial extent (au):  <R**2>=            678.1666
 Charge=             -0.0000 electrons
 Dipole moment (field-independent basis, Debye):
    X=              0.0012    Y=             -0.0000    Z=              3.6078  Tot=              3.6078
 Quadrupole moment (field-independent basis, Debye-Ang):
   XX=            -28.3388   YY=            -30.1259   ZZ=            -17.2575
   XY=              0.0000   XZ=              0.0142   YZ=             -0.0000
 Traceless Quadrupole moment (field-independent basis, Debye-Ang):
   XX=             -3.0980   YY=             -4.8852   ZZ=              7.9832
   XY=              0.0000   XZ=              0.0142   YZ=             -0.0000
 Octapole moment (field-independent basis, Debye-Ang**2):
  XXX=             -0.0566  YYY=             -0.0000  ZZZ=             -9.6737  XYY=             -0.0201
  XXY=              0.0000  XXZ=            -38.3523  XZZ=              0.0451  YZZ=             -0.0000
  YYZ=            -37.7394  XYZ=             -0.0000
 Hexadecapole moment (field-independent basis, Debye-Ang**3):
 XXXX=            -31.7265 YYYY=            -35.2417 ZZZZ=           -483.8774 XXXY=              0.0000
 XXXZ=             -0.1503 YYYX=              0.0000 YYYZ=              0.0000 ZZZX=              0.2509
 ZZZY=             -0.0000 XXYY=            -11.1624 XXZZ=           -168.7485 YYZZ=           -176.0568
 XXYZ=              0.0000 YYXZ=             -0.0504 ZZXY=              0.0000
 N-N= 9.949991223788D+01 E-N=-6.410071628908D+02  KE= 1.895070365869D+02
                          Isotropic Fermi Contact Couplings
        Atom                 a.u.       MegaHertz       Gauss      10(-4) cm-1
     1  C(13)             -0.05947     -66.85750     -23.85642     -22.30126
     2  C(13)              0.04609      51.81777      18.48987      17.28455
     3  C(13)             -0.02737     -30.76890     -10.97911     -10.26340
     4  C(13)              0.02116      23.78274       8.48627       7.93307
     5  H(1)              -0.00204      -9.11460      -3.25231      -3.04030
     6  C(13)              0.10774     121.11655      43.21740      40.40013
 --------------------------------------------------------
       Center         ----  Spin Dipole Couplings  ----
                      3XX-RR        3YY-RR        3ZZ-RR
 --------------------------------------------------------
     1   Atom        0.000351     -0.129656      0.129306
     2   Atom       -0.178947      0.363531     -0.184583
     3   Atom       -0.002235     -0.056232      0.058467
     4   Atom       -0.069403      0.152224     -0.082822
     5   Atom       -0.010922     -0.001323      0.012246
     6   Atom       -0.503034      1.000379     -0.497346
 --------------------------------------------------------
                        XY            XZ            YZ
 --------------------------------------------------------
     1   Atom        0.000000     -0.000045      0.000000
     2   Atom       -0.000000     -0.000001      0.000000
     3   Atom        0.000000      0.000034     -0.000000
     4   Atom       -0.000000     -0.000016      0.000000
     5   Atom       -0.000000      0.000030      0.000000
     6   Atom       -0.000000     -0.000005     -0.000000
 --------------------------------------------------------


 ---------------------------------------------------------------------------------
              Anisotropic Spin Dipole Couplings in Principal Axis System
 ---------------------------------------------------------------------------------

       Atom             a.u.   MegaHertz   Gauss  10(-4) cm-1        Axes

              Baa    -0.1297   -17.399    -6.208    -5.804 -0.0000  1.0000 -0.0000
     1 C(13)  Bbb     0.0004     0.047     0.017     0.016  1.0000  0.0000  0.0003
              Bcc     0.1293    17.352     6.191     5.788 -0.0003 -0.0000  1.0000
 
              Baa    -0.1846   -24.769    -8.838    -8.262  0.0001 -0.0000  1.0000
     2 C(13)  Bbb    -0.1789   -24.013    -8.568    -8.010  1.0000  0.0000 -0.0001
              Bcc     0.3635    48.782    17.407    16.272 -0.0000  1.0000  0.0000
 
              Baa    -0.0562    -7.546    -2.693    -2.517 -0.0000  1.0000  0.0000
     3 C(13)  Bbb    -0.0022    -0.300    -0.107    -0.100  1.0000  0.0000 -0.0006
              Bcc     0.0585     7.846     2.800     2.617  0.0006 -0.0000  1.0000
 
              Baa    -0.0828   -11.114    -3.966    -3.707  0.0012 -0.0000  1.0000
     4 C(13)  Bbb    -0.0694    -9.313    -3.323    -3.107  1.0000  0.0000 -0.0012
              Bcc     0.1522    20.427     7.289     6.814 -0.0000  1.0000  0.0000
 
              Baa    -0.0109    -5.828    -2.079    -1.944  1.0000  0.0000 -0.0013
     5 H(1)   Bbb    -0.0013    -0.706    -0.252    -0.235 -0.0000  1.0000  0.0000
              Bcc     0.0122     6.534     2.331     2.179  0.0013  0.0000  1.0000
 
              Baa    -0.5030   -67.502   -24.087   -22.516  1.0000  0.0000  0.0008
     6 C(13)  Bbb    -0.4973   -66.739   -23.814   -22.262 -0.0008 -0.0000  1.0000
              Bcc     1.0004   134.241    47.901    44.778 -0.0000  1.0000 -0.0000
 

 ---------------------------------------------------------------------------------

 No NMR shielding tensors so no spin-rotation constants.
 Leave Link  601 at Mon Sep 28 11:13:22 2020, MaxMem=   268435456 cpu:               2.1 elap:               0.4
 (Enter /applis/site/cecic/gaussian16/B.01/nehalem/g16/l701.exe)
 ... and contract with generalized density number  0.
 Compute integral first derivatives.
 Leave Link  701 at Mon Sep 28 11:13:22 2020, MaxMem=   268435456 cpu:               1.2 elap:               0.2
 (Enter /applis/site/cecic/gaussian16/B.01/nehalem/g16/l702.exe)
 L702 exits ... SP integral derivatives will be done elsewhere.
 Leave Link  702 at Mon Sep 28 11:13:22 2020, MaxMem=   268435456 cpu:               0.6 elap:               0.1
 (Enter /applis/site/cecic/gaussian16/B.01/nehalem/g16/l703.exe)
 Integral derivatives from FoFJK, PRISM(SPDF).
 Compute integral first derivatives, UseDBF=F ICtDFT=           0.
 Calling FoFJK, ICntrl=      2127 FMM=F ISym2X=0 I1Cent= 0 IOpClX= 1 NMat=1 NMatS=1 NMatT=0.
 FoFJK:  IHMeth= 1 ICntrl=    2127 DoSepK=F KAlg= 0 I1Cent=           0 FoldK=F
 IRaf=         0 NMat=       1 IRICut=       1 DoRegI=T DoRafI=F ISym2E= 0 IDoP0=0 IntGTp=1.
 FoFCou: FMM=F IPFlag=           0 FMFlag=      100000 FMFlg1=         800
         NFxFlg=           0 DoJE=F BraDBF=F KetDBF=F FulRan=T
         wScrn=  0.000000 ICntrl=      2127 IOpCl=  1 I1Cent=           0 NGrid=           0
         NMat0=    1 NMatS0=      1 NMatT0=    0 NMatD0=    1 NMtDS0=    0 NMtDT0=    0
 Symmetry not used in FoFCou.
 Leave Link  703 at Mon Sep 28 11:13:25 2020, MaxMem=   268435456 cpu:              23.1 elap:               3.0
 (Enter /applis/site/cecic/gaussian16/B.01/nehalem/g16/l716.exe)
 Dipole        = 4.65839501D-04-2.94139693D-12 1.41940162D+00
 -------------------------------------------------------------------
 Center     Atomic                   Forces (Hartrees/Bohr)
 Number     Number              X              Y              Z
 -------------------------------------------------------------------
      1        6           0.000026427   -0.000000000   -0.117689005
      2        6           0.000034916    0.000000000    0.089481262
      3        6          -0.000016824   -0.000000000   -0.038298509
      4        6           0.000007520    0.000000000   -0.010898514
      5        1          -0.000013320   -0.000000000    0.004026811
      6        6          -0.000038719   -0.000000000    0.073377956
 -------------------------------------------------------------------
 Cartesian Forces:  Max     0.117689005 RMS     0.040030332
 Leave Link  716 at Mon Sep 28 11:13:25 2020, MaxMem=   268435456 cpu:               0.6 elap:               0.1
 (Enter /applis/site/cecic/gaussian16/B.01/nehalem/g16/l103.exe)

 GradGradGradGradGradGradGradGradGradGradGradGradGradGradGradGradGradGrad
 Berny optimization.
 FormGI is forming the generalized inverse of G from B-inverse, IUseBI=4.
 Internal  Forces:  Max     0.073377972 RMS     0.026963766
 Search for a local minimum.
 Step number   1 out of a maximum of  100
 All quantities printed in internal units (Hartrees-Bohrs-Radians)
 RMS Force = .26964D-01 SwitMx=.10000D-02 MixMth= 1
 Mixed Optimization -- RFO/linear search
 Second derivative matrix not updated -- first step.
 The second derivative matrix:
                          R1        R2        R3        R4        R5
           R1           1.02200
           R2           0.00000   0.36607
           R3           0.00000   0.00000   0.43716
           R4           0.00000   0.00000   0.00000   1.02200
           R5           0.00000   0.00000   0.00000   0.00000   0.38744
           A1           0.00000   0.00000   0.00000   0.00000   0.00000
           A2           0.00000   0.00000   0.00000   0.00000   0.00000
           A3           0.00000   0.00000   0.00000   0.00000   0.00000
           A4           0.00000   0.00000   0.00000   0.00000   0.00000
           A5           0.00000   0.00000   0.00000   0.00000   0.00000
           A6           0.00000   0.00000   0.00000   0.00000   0.00000
           A7           0.00000   0.00000   0.00000   0.00000   0.00000
           A8           0.00000   0.00000   0.00000   0.00000   0.00000
                          A1        A2        A3        A4        A5
           A1           0.01257
           A2           0.00000   0.01932
           A3           0.00000   0.00000   0.04664
           A4           0.00000   0.00000   0.00000   0.00654
           A5           0.00000   0.00000   0.00000   0.00000   0.01257
           A6           0.00000   0.00000   0.00000   0.00000   0.00000
           A7           0.00000   0.00000   0.00000   0.00000   0.00000
           A8           0.00000   0.00000   0.00000   0.00000   0.00000
                          A6        A7        A8
           A6           0.01932
           A7           0.00000   0.04664
           A8           0.00000   0.00000   0.00654
 ITU=  0
     Eigenvalues ---    0.00654   0.00750   0.01257   0.01446   0.01932
     Eigenvalues ---    0.03658   0.04664   0.36607   0.38744   0.43716
     Eigenvalues ---    1.02200   1.02200
 RFO step:  Lambda=-2.03616215D-02 EMin= 6.53631227D-03
 Linear search not attempted -- first point.
 Iteration  1 RMS(Cart)=  0.06023207 RMS(Int)=  0.00000437
 Iteration  2 RMS(Cart)=  0.00000901 RMS(Int)=  0.00000000
 Iteration  3 RMS(Cart)=  0.00000000 RMS(Int)=  0.00000001
 ITry= 1 IFail=0 DXMaxC= 1.80D-01 DCOld= 1.00D+10 DXMaxT= 3.00D-01 DXLimC= 3.00D+00 Rises=F
 Variable       Old X    -DE/DX   Delta X   Delta X   Delta X     New X
                                 (Linear)    (Quad)   (Total)
    R1        2.27771   0.04431   0.00000   0.04251   0.04251   2.32022
    R2        2.76442  -0.07338   0.00000  -0.18988  -0.18988   2.57454
    R3        2.66795  -0.04517   0.00000  -0.09873  -0.09873   2.56923
    R4        2.27771  -0.00687   0.00000  -0.00659  -0.00659   2.27111
    R5        1.99997   0.00403   0.00000   0.00987   0.00987   2.00985
    A1        3.14204   0.00001   0.00000   0.00034   0.00034   3.14238
    A2        3.14115   0.00001   0.00000   0.00001   0.00001   3.14115
    A3        3.14115   0.00001   0.00000  -0.00003  -0.00003   3.14111
    A4        3.14115   0.00002   0.00000   0.00072   0.00072   3.14186
    A5        3.14159  -0.00000   0.00000  -0.00000   0.00000   3.14159
    A6        3.14159  -0.00000   0.00000  -0.00000  -0.00000   3.14159
    A7        3.14159   0.00000   0.00000   0.00000   0.00000   3.14159
    A8        3.14159  -0.00000   0.00000  -0.00000   0.00000   3.14159
         Item               Value     Threshold  Converged?
 Maximum Force            0.073378     0.000450     NO 
 RMS     Force            0.026964     0.000300     NO 
 Maximum Displacement     0.179812     0.001800     NO 
 RMS     Displacement     0.060232     0.001200     NO 
 Predicted change in Energy=-1.066696D-02
 Lowest energy point so far.  Saving SCF results.
 GradGradGradGradGradGradGradGradGradGradGradGradGradGradGradGradGradGrad

 Leave Link  103 at Mon Sep 28 11:13:25 2020, MaxMem=   268435456 cpu:               0.8 elap:               0.2
 (Enter /applis/site/cecic/gaussian16/B.01/nehalem/g16/l202.exe)
                          Input orientation:                          
 ---------------------------------------------------------------------
 Center     Atomic      Atomic             Coordinates (Angstroms)
 Number     Number       Type             X           Y           Z
 ---------------------------------------------------------------------
      1          6           0       -0.000175    0.000000   -0.005330
      2          6           0       -0.000021    0.000000    1.222475
      3          6           0        0.000750    0.000000    2.582051
      4          6           0        0.002007   -0.000000    3.783872
      5          1           0        0.002834   -0.000000    4.847437
      6          6           0        0.000729   -0.000000   -1.367717
 ---------------------------------------------------------------------
                    Distance matrix (angstroms):
                    1          2          3          4          5
     1  C    0.000000
     2  C    1.227806   0.000000
     3  C    2.587381   1.359576   0.000000
     4  C    3.789203   2.561397   1.201821   0.000000
     5  H    4.852768   3.624963   2.265387   1.063565   0.000000
     6  C    1.362388   2.590193   3.949768   5.151589   6.215155
                    6
     6  C    0.000000
 Symmetry turned off by external request.
 Stoichiometry    C5H(2)
 Framework group  C1[X(C5H)]
 Deg. of freedom    12
 Full point group                 C1      NOp   1
 Rotational constants (GHZ):    21845636.1374591           2.3798106           2.3798103
 Leave Link  202 at Mon Sep 28 11:13:26 2020, MaxMem=   268435456 cpu:               0.2 elap:               0.1
 (Enter /applis/site/cecic/gaussian16/B.01/nehalem/g16/l301.exe)
 Standard basis: CC-pVTZ (5D, 7F)
 Ernie: Thresh=  0.10000D-02 Tol=  0.10000D-05 Strict=F.
 Ernie:  15 primitive shells out of 138 were deleted.
   164 basis functions,   277 primitive gaussians,   190 cartesian basis functions
    16 alpha electrons       15 beta electrons
       nuclear repulsion energy       101.4937982744 Hartrees.
 IExCor= 4336 DFT=T Ex+Corr=M062X ExCW=0 ScaHFX=  0.540000
 ScaDFX=  1.000000  1.000000  1.000000  1.000000 ScalE2=  1.000000  1.000000
 IRadAn=      5 IRanWt=     -1 IRanGd=            0 ICorTp=0 IEmpDi=  4
 NAtoms=    6 NActive=    6 NUniq=    6 SFac= 1.00D+00 NAtFMM=   60 NAOKFM=F Big=F
 Integral buffers will be    131072 words long.
 Raffenetti 2 integral format.
 Two-electron integral symmetry is turned off.
 Leave Link  301 at Mon Sep 28 11:13:26 2020, MaxMem=   268435456 cpu:               0.6 elap:               0.1
 (Enter /applis/site/cecic/gaussian16/B.01/nehalem/g16/l302.exe)
 NPDir=0 NMtPBC=     1 NCelOv=     1 NCel=       1 NClECP=     1 NCelD=      1
         NCelK=      1 NCelE2=     1 NClLst=     1 CellRange=     0.0.
 One-electron integrals computed using PRISM.
 NBasis=   164 RedAO= T EigKep=  1.93D-05  NBF=   164
 NBsUse=   164 1.00D-06 EigRej= -1.00D+00 NBFU=   164
 Precomputing XC quadrature grid using
 IXCGrd= 4 IRadAn=           5 IRanWt=          -1 IRanGd=           0 AccXCQ= 0.00D+00.
 Generated NRdTot=       0 NPtTot=           0 NUsed=           0 NTot=          32
 NSgBfM=   190   190   190   190   190 MxSgAt=     6 MxSgA2=     6.
 Leave Link  302 at Mon Sep 28 11:13:26 2020, MaxMem=   268435456 cpu:               1.2 elap:               0.2
 (Enter /applis/site/cecic/gaussian16/B.01/nehalem/g16/l303.exe)
 DipDrv:  MaxL=1.
 Leave Link  303 at Mon Sep 28 11:13:26 2020, MaxMem=   268435456 cpu:               0.7 elap:               0.1
 (Enter /applis/site/cecic/gaussian16/B.01/nehalem/g16/l401.exe)
 Initial guess from the checkpoint file:  "input.chk"
 B after Tr=    -0.000017    0.000000    0.010162
         Rot=    1.000000    0.000000   -0.000021    0.000006 Ang=  -0.00 deg.
 Guess basis will be translated and rotated to current coordinates.
 JPrj=2 DoOrth=T DoCkMO=T.
 Initial guess <Sx>= 0.0000 <Sy>= 0.0000 <Sz>= 0.5000 <S**2>= 0.7696 S= 0.5098
 Generating alternative initial guess.
 ExpMin= 1.03D-01 ExpMax= 8.24D+03 ExpMxC= 2.81D+02 IAcc=3 IRadAn=         5 AccDes= 0.00D+00
 Harris functional with IExCor= 1009 and IRadAn=       5 diagonalized for initial guess.
 HarFok:  IExCor= 1009 AccDes= 0.00D+00 IRadAn=         5 IDoV= 1 UseB2=F ITyADJ=14
 ICtDFT=  3500011 ScaDFX=  1.000000  1.000000  1.000000  1.000000
 FoFCou: FMM=F IPFlag=           0 FMFlag=      100000 FMFlg1=           0
         NFxFlg=           0 DoJE=T BraDBF=F KetDBF=T FulRan=T
         wScrn=  0.000000 ICntrl=       500 IOpCl=  0 I1Cent=   200000004 NGrid=           0
         NMat0=    1 NMatS0=      1 NMatT0=    0 NMatD0=    1 NMtDS0=    0 NMtDT0=    0
 Symmetry not used in FoFCou.
 Harris En= -190.736419329849    
 Leave Link  401 at Mon Sep 28 11:13:27 2020, MaxMem=   268435456 cpu:               4.1 elap:               0.5
 (Enter /applis/site/cecic/gaussian16/B.01/nehalem/g16/l502.exe)
 Keep R1 and R2 ints in memory in canonical form, NReq=191223282.
 FoFCou: FMM=F IPFlag=           0 FMFlag=           0 FMFlg1=           0
         NFxFlg=           0 DoJE=F BraDBF=F KetDBF=F FulRan=T
         wScrn=  0.000000 ICntrl=       600 IOpCl=  0 I1Cent=           0 NGrid=           0
         NMat0=    1 NMatS0=  13530 NMatT0=    0 NMatD0=    1 NMtDS0=    0 NMtDT0=    0
 Symmetry not used in FoFCou.
 Two-electron integral symmetry not used.
 UHF open shell SCF:
 Using DIIS extrapolation, IDIIS=  1040.
 NGot=   268435456 LenX=    85286028 LenY=    85249487
 Requested convergence on RMS density matrix=1.00D-08 within 128 cycles.
 Requested convergence on MAX density matrix=1.00D-06.
 Requested convergence on             energy=1.00D-06.
 No special actions if energy rises.
 Integral accuracy reduced to 1.0D-05 until final iterations.

 Cycle   1  Pass 0  IDiag  1:
 E= -190.815083918311    
 DIIS: error= 1.16D-02 at cycle   1 NSaved=   1.
 NSaved= 1 IEnMin= 1 EnMin= -190.815083918311     IErMin= 1 ErrMin= 1.16D-02
 ErrMax= 1.16D-02  0.00D+00 EMaxC= 1.00D-01 BMatC= 3.25D-02 BMatP= 3.25D-02
 IDIUse=3 WtCom= 8.84D-01 WtEn= 1.16D-01
 Coeff-Com:  0.100D+01
 Coeff-En:   0.100D+01
 Coeff:      0.100D+01
 Recover alternate guess density for next cycle.
 RMSDP=8.46D-03 MaxDP=5.95D-01              OVMax= 0.00D+00

 Cycle   2  Pass 0  IDiag  1:
 E= -190.714915925071     Delta-E=        0.100167993240 Rises=F Damp=F
 Switch densities from cycles 1 and 2 for lowest energy.
 DIIS: error= 3.58D-02 at cycle   2 NSaved=   2.
 NSaved= 2 IEnMin= 1 EnMin= -190.815083918311     IErMin= 1 ErrMin= 1.16D-02
 ErrMax= 3.58D-02  0.00D+00 EMaxC= 1.00D+00 BMatC= 5.17D-01 BMatP= 3.25D-02
 IDIUse=1 WtCom= 1.00D+00 WtEn= 0.00D+00
 Coeff-Com:  0.925D+00 0.750D-01
 Coeff:      0.925D+00 0.750D-01
 Gap=     0.144 Goal=   None    Shift=    0.000
 Gap=     0.292 Goal=   None    Shift=    0.000
 RMSDP=2.59D-03 MaxDP=8.23D-02 DE= 1.00D-01 OVMax= 1.66D-01

 Cycle   3  Pass 0  IDiag  1:
 E= -190.821149890801     Delta-E=       -0.106233965730 Rises=F Damp=F
 DIIS: error= 5.35D-03 at cycle   3 NSaved=   3.
 NSaved= 3 IEnMin= 3 EnMin= -190.821149890801     IErMin= 3 ErrMin= 5.35D-03
 ErrMax= 5.35D-03  0.00D+00 EMaxC= 1.00D+00 BMatC= 6.76D-03 BMatP= 3.25D-02
 IDIUse=1 WtCom= 1.00D+00 WtEn= 0.00D+00
 Coeff-Com:  0.181D+00 0.437D-01 0.776D+00
 Coeff:      0.181D+00 0.437D-01 0.776D+00
 Gap=     0.148 Goal=   None    Shift=    0.000
 Gap=     0.262 Goal=   None    Shift=    0.000
 RMSDP=3.07D-03 MaxDP=1.62D-01 DE=-1.06D-01 OVMax= 5.63D-02

 Cycle   4  Pass 0  IDiag  1:
 E= -190.821839509103     Delta-E=       -0.000689618302 Rises=F Damp=F
 DIIS: error= 6.32D-03 at cycle   4 NSaved=   4.
 NSaved= 4 IEnMin= 4 EnMin= -190.821839509103     IErMin= 3 ErrMin= 5.35D-03
 ErrMax= 6.32D-03  0.00D+00 EMaxC= 1.00D+00 BMatC= 5.19D-03 BMatP= 6.76D-03
 IDIUse=1 WtCom= 1.00D+00 WtEn= 0.00D+00
 Coeff-Com: -0.551D-02 0.140D-01 0.477D+00 0.515D+00
 Coeff:     -0.551D-02 0.140D-01 0.477D+00 0.515D+00
 Gap=     0.146 Goal=   None    Shift=    0.000
 Gap=     0.262 Goal=   None    Shift=    0.000
 RMSDP=1.11D-03 MaxDP=7.48D-02 DE=-6.90D-04 OVMax= 2.59D-02

 Cycle   5  Pass 0  IDiag  1:
 E= -190.823561538332     Delta-E=       -0.001722029228 Rises=F Damp=F
 DIIS: error= 1.20D-03 at cycle   5 NSaved=   5.
 NSaved= 5 IEnMin= 5 EnMin= -190.823561538332     IErMin= 5 ErrMin= 1.20D-03
 ErrMax= 1.20D-03  0.00D+00 EMaxC= 1.00D+00 BMatC= 2.71D-04 BMatP= 5.19D-03
 IDIUse=1 WtCom= 1.00D+00 WtEn= 0.00D+00
 Coeff-Com: -0.135D-01 0.472D-03 0.863D-01 0.201D+00 0.726D+00
 Coeff:     -0.135D-01 0.472D-03 0.863D-01 0.201D+00 0.726D+00
 Gap=     0.145 Goal=   None    Shift=    0.000
 Gap=     0.256 Goal=   None    Shift=    0.000
 RMSDP=1.19D-04 MaxDP=5.16D-03 DE=-1.72D-03 OVMax= 1.10D-02

 Cycle   6  Pass 0  IDiag  1:
 E= -190.823701771060     Delta-E=       -0.000140232728 Rises=F Damp=F
 DIIS: error= 8.28D-04 at cycle   6 NSaved=   6.
 NSaved= 6 IEnMin= 6 EnMin= -190.823701771060     IErMin= 6 ErrMin= 8.28D-04
 ErrMax= 8.28D-04  0.00D+00 EMaxC= 1.00D+00 BMatC= 7.31D-05 BMatP= 2.71D-04
 IDIUse=1 WtCom= 1.00D+00 WtEn= 0.00D+00
 Coeff-Com: -0.374D-02-0.183D-02-0.878D-01-0.199D-01 0.278D+00 0.836D+00
 Coeff:     -0.374D-02-0.183D-02-0.878D-01-0.199D-01 0.278D+00 0.836D+00
 Gap=     0.145 Goal=   None    Shift=    0.000
 Gap=     0.256 Goal=   None    Shift=    0.000
 RMSDP=8.92D-05 MaxDP=4.39D-03 DE=-1.40D-04 OVMax= 9.87D-03

 Cycle   7  Pass 0  IDiag  1:
 E= -190.823770357050     Delta-E=       -0.000068585991 Rises=F Damp=F
 DIIS: error= 4.17D-04 at cycle   7 NSaved=   7.
 NSaved= 7 IEnMin= 7 EnMin= -190.823770357050     IErMin= 7 ErrMin= 4.17D-04
 ErrMax= 4.17D-04  0.00D+00 EMaxC= 1.00D+00 BMatC= 3.27D-05 BMatP= 7.31D-05
 IDIUse=1 WtCom= 1.00D+00 WtEn= 0.00D+00
 Coeff-Com:  0.178D-02-0.648D-03-0.774D-01-0.685D-01-0.102D+00 0.479D+00
 Coeff-Com:  0.768D+00
 Coeff:      0.178D-02-0.648D-03-0.774D-01-0.685D-01-0.102D+00 0.479D+00
 Coeff:      0.768D+00
 Gap=     0.144 Goal=   None    Shift=    0.000
 Gap=     0.257 Goal=   None    Shift=    0.000
 RMSDP=8.65D-05 MaxDP=4.82D-03 DE=-6.86D-05 OVMax= 7.02D-03

 Cycle   8  Pass 0  IDiag  1:
 E= -190.823799036192     Delta-E=       -0.000028679141 Rises=F Damp=F
 DIIS: error= 2.18D-04 at cycle   8 NSaved=   8.
 NSaved= 8 IEnMin= 8 EnMin= -190.823799036192     IErMin= 8 ErrMin= 2.18D-04
 ErrMax= 2.18D-04  0.00D+00 EMaxC= 1.00D+00 BMatC= 9.15D-06 BMatP= 3.27D-05
 IDIUse=1 WtCom= 1.00D+00 WtEn= 0.00D+00
 Coeff-Com:  0.268D-02-0.775D-04-0.151D-01-0.353D-01-0.179D+00-0.958D-02
 Coeff-Com:  0.446D+00 0.790D+00
 Coeff:      0.268D-02-0.775D-04-0.151D-01-0.353D-01-0.179D+00-0.958D-02
 Coeff:      0.446D+00 0.790D+00
 Gap=     0.144 Goal=   None    Shift=    0.000
 Gap=     0.256 Goal=   None    Shift=    0.000
 RMSDP=1.44D-04 MaxDP=8.92D-03 DE=-2.87D-05 OVMax= 3.98D-03

 Cycle   9  Pass 0  IDiag  1:
 E= -190.823808519147     Delta-E=       -0.000009482955 Rises=F Damp=F
 DIIS: error= 1.56D-04 at cycle   9 NSaved=   9.
 NSaved= 9 IEnMin= 9 EnMin= -190.823808519147     IErMin= 9 ErrMin= 1.56D-04
 ErrMax= 1.56D-04  0.00D+00 EMaxC= 1.00D+00 BMatC= 1.59D-06 BMatP= 9.15D-06
 IDIUse=1 WtCom= 1.00D+00 WtEn= 0.00D+00
 Coeff-Com:  0.325D-03 0.140D-03 0.117D-01 0.401D-02-0.394D-01-0.949D-01
 Coeff-Com: -0.112D-01 0.258D+00 0.872D+00
 Coeff:      0.325D-03 0.140D-03 0.117D-01 0.401D-02-0.394D-01-0.949D-01
 Coeff:     -0.112D-01 0.258D+00 0.872D+00
 Gap=     0.144 Goal=   None    Shift=    0.000
 Gap=     0.256 Goal=   None    Shift=    0.000
 RMSDP=6.65D-05 MaxDP=4.17D-03 DE=-9.48D-06 OVMax= 1.58D-03

 Cycle  10  Pass 0  IDiag  1:
 E= -190.823810855259     Delta-E=       -0.000002336112 Rises=F Damp=F
 DIIS: error= 1.32D-04 at cycle  10 NSaved=  10.
 NSaved=10 IEnMin=10 EnMin= -190.823810855259     IErMin=10 ErrMin= 1.32D-04
 ErrMax= 1.32D-04  0.00D+00 EMaxC= 1.00D+00 BMatC= 6.41D-07 BMatP= 1.59D-06
 IDIUse=1 WtCom= 1.00D+00 WtEn= 0.00D+00
 Coeff-Com: -0.991D-03 0.119D-03 0.102D-01 0.179D-01 0.649D-01-0.196D-01
 Coeff-Com: -0.184D+00-0.264D+00 0.262D+00 0.111D+01
 Coeff:     -0.991D-03 0.119D-03 0.102D-01 0.179D-01 0.649D-01-0.196D-01
 Coeff:     -0.184D+00-0.264D+00 0.262D+00 0.111D+01
 Gap=     0.144 Goal=   None    Shift=    0.000
 Gap=     0.256 Goal=   None    Shift=    0.000
 RMSDP=3.93D-05 MaxDP=2.48D-03 DE=-2.34D-06 OVMax= 1.65D-03

 Cycle  11  Pass 0  IDiag  1:
 E= -190.823812479577     Delta-E=       -0.000001624319 Rises=F Damp=F
 DIIS: error= 7.12D-05 at cycle  11 NSaved=  11.
 NSaved=11 IEnMin=11 EnMin= -190.823812479577     IErMin=11 ErrMin= 7.12D-05
 ErrMax= 7.12D-05  0.00D+00 EMaxC= 1.00D+00 BMatC= 1.99D-07 BMatP= 6.41D-07
 IDIUse=1 WtCom= 1.00D+00 WtEn= 0.00D+00
 Coeff-Com:  0.525D-03-0.225D-03-0.110D-01-0.138D-01-0.195D-01 0.467D-01
 Coeff-Com:  0.112D+00 0.261D-01-0.524D+00-0.668D+00 0.205D+01
 Coeff:      0.525D-03-0.225D-03-0.110D-01-0.138D-01-0.195D-01 0.467D-01
 Coeff:      0.112D+00 0.261D-01-0.524D+00-0.668D+00 0.205D+01
 Gap=     0.144 Goal=   None    Shift=    0.000
 Gap=     0.256 Goal=   None    Shift=    0.000
 RMSDP=3.45D-05 MaxDP=1.86D-03 DE=-1.62D-06 OVMax= 2.16D-03

 Cycle  12  Pass 0  IDiag  1:
 E= -190.823813581376     Delta-E=       -0.000001101798 Rises=F Damp=F
 DIIS: error= 2.97D-05 at cycle  12 NSaved=  12.
 NSaved=12 IEnMin=12 EnMin= -190.823813581376     IErMin=12 ErrMin= 2.97D-05
 ErrMax= 2.97D-05  0.00D+00 EMaxC= 1.00D+00 BMatC= 3.39D-08 BMatP= 1.99D-07
 IDIUse=1 WtCom= 1.00D+00 WtEn= 0.00D+00
 Coeff-Com: -0.780D-04 0.105D-03 0.308D-02 0.193D-02-0.428D-02-0.163D-01
 Coeff-Com: -0.110D-01 0.413D-01 0.165D+00 0.405D-01-0.857D+00 0.164D+01
 Coeff:     -0.780D-04 0.105D-03 0.308D-02 0.193D-02-0.428D-02-0.163D-01
 Coeff:     -0.110D-01 0.413D-01 0.165D+00 0.405D-01-0.857D+00 0.164D+01
 Gap=     0.144 Goal=   None    Shift=    0.000
 Gap=     0.256 Goal=   None    Shift=    0.000
 RMSDP=1.28D-05 MaxDP=6.07D-04 DE=-1.10D-06 OVMax= 9.36D-04

 Cycle  13  Pass 0  IDiag  1:
 E= -190.823813769173     Delta-E=       -0.000000187797 Rises=F Damp=F
 DIIS: error= 1.29D-05 at cycle  13 NSaved=  13.
 NSaved=13 IEnMin=13 EnMin= -190.823813769173     IErMin=13 ErrMin= 1.29D-05
 ErrMax= 1.29D-05  0.00D+00 EMaxC= 1.00D+00 BMatC= 7.18D-09 BMatP= 3.39D-08
 IDIUse=1 WtCom= 1.00D+00 WtEn= 0.00D+00
 Coeff-Com: -0.716D-04-0.214D-04 0.141D-02 0.257D-02 0.637D-02-0.303D-02
 Coeff-Com: -0.222D-01-0.329D-01 0.515D-01 0.144D+00-0.718D-01-0.823D+00
 Coeff-Com:  0.175D+01
 Coeff:     -0.716D-04-0.214D-04 0.141D-02 0.257D-02 0.637D-02-0.303D-02
 Coeff:     -0.222D-01-0.329D-01 0.515D-01 0.144D+00-0.718D-01-0.823D+00
 Coeff:      0.175D+01
 Gap=     0.144 Goal=   None    Shift=    0.000
 Gap=     0.256 Goal=   None    Shift=    0.000
 RMSDP=6.94D-06 MaxDP=4.36D-04 DE=-1.88D-07 OVMax= 3.85D-04

 Initial convergence to 1.0D-05 achieved.  Increase integral accuracy.
 Cycle  14  Pass 1  IDiag  1:
 E= -190.823819148858     Delta-E=       -0.000005379685 Rises=F Damp=F
 DIIS: error= 2.82D-05 at cycle   1 NSaved=   1.
 NSaved= 1 IEnMin= 1 EnMin= -190.823819148858     IErMin= 1 ErrMin= 2.82D-05
 ErrMax= 2.82D-05  0.00D+00 EMaxC= 1.00D+00 BMatC= 3.85D-07 BMatP= 3.85D-07
 IDIUse=1 WtCom= 1.00D+00 WtEn= 0.00D+00
 Coeff-Com:  0.100D+01
 Coeff:      0.100D+01
 Gap=     0.144 Goal=   None    Shift=    0.000
 Gap=     0.256 Goal=   None    Shift=    0.000
 RMSDP=6.94D-06 MaxDP=4.36D-04 DE=-5.38D-06 OVMax= 6.15D-05

 Cycle  15  Pass 1  IDiag  1:
 E= -190.823819202416     Delta-E=       -0.000000053558 Rises=F Damp=F
 DIIS: error= 5.03D-06 at cycle   2 NSaved=   2.
 NSaved= 2 IEnMin= 2 EnMin= -190.823819202416     IErMin= 2 ErrMin= 5.03D-06
 ErrMax= 5.03D-06  0.00D+00 EMaxC= 1.00D+00 BMatC= 4.55D-09 BMatP= 3.85D-07
 IDIUse=1 WtCom= 1.00D+00 WtEn= 0.00D+00
 Coeff-Com: -0.552D-01 0.106D+01
 Coeff:     -0.552D-01 0.106D+01
 Gap=     0.144 Goal=   None    Shift=    0.000
 Gap=     0.256 Goal=   None    Shift=    0.000
 RMSDP=2.01D-06 MaxDP=1.16D-04 DE=-5.36D-08 OVMax= 3.91D-05

 Cycle  16  Pass 1  IDiag  1:
 E= -190.823819204722     Delta-E=       -0.000000002306 Rises=F Damp=F
 DIIS: error= 2.87D-06 at cycle   3 NSaved=   3.
 NSaved= 3 IEnMin= 3 EnMin= -190.823819204722     IErMin= 3 ErrMin= 2.87D-06
 ErrMax= 2.87D-06  0.00D+00 EMaxC= 1.00D+00 BMatC= 1.07D-09 BMatP= 4.55D-09
 IDIUse=1 WtCom= 1.00D+00 WtEn= 0.00D+00
 Coeff-Com: -0.199D-01 0.240D+00 0.780D+00
 Coeff:     -0.199D-01 0.240D+00 0.780D+00
 Gap=     0.144 Goal=   None    Shift=    0.000
 Gap=     0.256 Goal=   None    Shift=    0.000
 RMSDP=5.42D-07 MaxDP=3.05D-05 DE=-2.31D-09 OVMax= 2.23D-05

 Cycle  17  Pass 1  IDiag  1:
 E= -190.823819205413     Delta-E=       -0.000000000692 Rises=F Damp=F
 DIIS: error= 2.47D-06 at cycle   4 NSaved=   4.
 NSaved= 4 IEnMin= 4 EnMin= -190.823819205413     IErMin= 4 ErrMin= 2.47D-06
 ErrMax= 2.47D-06  0.00D+00 EMaxC= 1.00D+00 BMatC= 6.57D-10 BMatP= 1.07D-09
 IDIUse=1 WtCom= 1.00D+00 WtEn= 0.00D+00
 Coeff-Com: -0.692D-03-0.632D-01 0.414D+00 0.649D+00
 Coeff:     -0.692D-03-0.632D-01 0.414D+00 0.649D+00
 Gap=     0.144 Goal=   None    Shift=    0.000
 Gap=     0.256 Goal=   None    Shift=    0.000
 RMSDP=7.92D-07 MaxDP=5.14D-05 DE=-6.92D-10 OVMax= 1.85D-05

 Cycle  18  Pass 1  IDiag  1:
 E= -190.823819205938     Delta-E=       -0.000000000524 Rises=F Damp=F
 DIIS: error= 2.04D-06 at cycle   5 NSaved=   5.
 NSaved= 5 IEnMin= 5 EnMin= -190.823819205938     IErMin= 5 ErrMin= 2.04D-06
 ErrMax= 2.04D-06  0.00D+00 EMaxC= 1.00D+00 BMatC= 2.50D-10 BMatP= 6.57D-10
 IDIUse=1 WtCom= 1.00D+00 WtEn= 0.00D+00
 Coeff-Com:  0.506D-02-0.107D+00 0.296D-01 0.345D+00 0.727D+00
 Coeff:      0.506D-02-0.107D+00 0.296D-01 0.345D+00 0.727D+00
 Gap=     0.144 Goal=   None    Shift=    0.000
 Gap=     0.256 Goal=   None    Shift=    0.000
 RMSDP=4.40D-07 MaxDP=2.66D-05 DE=-5.24D-10 OVMax= 1.66D-05

 Cycle  19  Pass 1  IDiag  1:
 E= -190.823819206305     Delta-E=       -0.000000000367 Rises=F Damp=F
 DIIS: error= 1.32D-06 at cycle   6 NSaved=   6.
 NSaved= 6 IEnMin= 6 EnMin= -190.823819206305     IErMin= 6 ErrMin= 1.32D-06
 ErrMax= 1.32D-06  0.00D+00 EMaxC= 1.00D+00 BMatC= 1.14D-10 BMatP= 2.50D-10
 IDIUse=1 WtCom= 1.00D+00 WtEn= 0.00D+00
 Coeff-Com:  0.201D-02 0.682D-02-0.305D+00-0.372D+00 0.326D+00 0.134D+01
 Coeff:      0.201D-02 0.682D-02-0.305D+00-0.372D+00 0.326D+00 0.134D+01
 Gap=     0.144 Goal=   None    Shift=    0.000
 Gap=     0.256 Goal=   None    Shift=    0.000
 RMSDP=7.49D-07 MaxDP=4.72D-05 DE=-3.67D-10 OVMax= 2.98D-05

 Cycle  20  Pass 1  IDiag  1:
 E= -190.823819206743     Delta-E=       -0.000000000439 Rises=F Damp=F
 DIIS: error= 9.52D-07 at cycle   7 NSaved=   7.
 NSaved= 7 IEnMin= 7 EnMin= -190.823819206743     IErMin= 7 ErrMin= 9.52D-07
 ErrMax= 9.52D-07  0.00D+00 EMaxC= 1.00D+00 BMatC= 3.75D-11 BMatP= 1.14D-10
 IDIUse=1 WtCom= 1.00D+00 WtEn= 0.00D+00
 Coeff-Com: -0.155D-02 0.444D-01-0.551D-01-0.238D+00-0.238D+00 0.282D+00
 Coeff-Com:  0.121D+01
 Coeff:     -0.155D-02 0.444D-01-0.551D-01-0.238D+00-0.238D+00 0.282D+00
 Coeff:      0.121D+01
 Gap=     0.144 Goal=   None    Shift=    0.000
 Gap=     0.256 Goal=   None    Shift=    0.000
 RMSDP=4.41D-07 MaxDP=2.72D-05 DE=-4.39D-10 OVMax= 2.27D-05

 Cycle  21  Pass 1  IDiag  1:
 E= -190.823819206901     Delta-E=       -0.000000000157 Rises=F Damp=F
 DIIS: error= 3.90D-07 at cycle   8 NSaved=   8.
 NSaved= 8 IEnMin= 8 EnMin= -190.823819206901     IErMin= 8 ErrMin= 3.90D-07
 ErrMax= 3.90D-07  0.00D+00 EMaxC= 1.00D+00 BMatC= 1.57D-11 BMatP= 3.75D-11
 IDIUse=1 WtCom= 1.00D+00 WtEn= 0.00D+00
 Coeff-Com: -0.124D-02 0.122D-01 0.121D+00 0.584D-01-0.255D+00-0.467D+00
 Coeff-Com:  0.583D+00 0.949D+00
 Coeff:     -0.124D-02 0.122D-01 0.121D+00 0.584D-01-0.255D+00-0.467D+00
 Coeff:      0.583D+00 0.949D+00
 Gap=     0.144 Goal=   None    Shift=    0.000
 Gap=     0.256 Goal=   None    Shift=    0.000
 RMSDP=2.13D-07 MaxDP=1.29D-05 DE=-1.57D-10 OVMax= 1.26D-05

 Cycle  22  Pass 1  IDiag  1:
 E= -190.823819206943     Delta-E=       -0.000000000043 Rises=F Damp=F
 DIIS: error= 2.87D-07 at cycle   9 NSaved=   9.
 NSaved= 9 IEnMin= 9 EnMin= -190.823819206943     IErMin= 9 ErrMin= 2.87D-07
 ErrMax= 2.87D-07  0.00D+00 EMaxC= 1.00D+00 BMatC= 3.47D-12 BMatP= 1.57D-11
 IDIUse=1 WtCom= 1.00D+00 WtEn= 0.00D+00
 Coeff-Com:  0.268D-03-0.123D-01 0.186D-01 0.721D-01 0.805D-01-0.913D-01
 Coeff-Com: -0.397D+00 0.628D-01 0.127D+01
 Coeff:      0.268D-03-0.123D-01 0.186D-01 0.721D-01 0.805D-01-0.913D-01
 Coeff:     -0.397D+00 0.628D-01 0.127D+01
 Gap=     0.144 Goal=   None    Shift=    0.000
 Gap=     0.256 Goal=   None    Shift=    0.000
 RMSDP=7.03D-08 MaxDP=3.71D-06 DE=-4.27D-11 OVMax= 6.61D-06

 Cycle  23  Pass 1  IDiag  1:
 E= -190.823819206952     Delta-E=       -0.000000000009 Rises=F Damp=F
 DIIS: error= 1.60D-07 at cycle  10 NSaved=  10.
 NSaved=10 IEnMin=10 EnMin= -190.823819206952     IErMin=10 ErrMin= 1.60D-07
 ErrMax= 1.60D-07  0.00D+00 EMaxC= 1.00D+00 BMatC= 1.75D-12 BMatP= 3.47D-12
 IDIUse=1 WtCom= 1.00D+00 WtEn= 0.00D+00
 Coeff-Com:  0.657D-03-0.139D-01-0.989D-02 0.457D-01 0.112D+00 0.150D-01
 Coeff-Com: -0.370D+00-0.156D+00 0.704D+00 0.673D+00
 Coeff:      0.657D-03-0.139D-01-0.989D-02 0.457D-01 0.112D+00 0.150D-01
 Coeff:     -0.370D+00-0.156D+00 0.704D+00 0.673D+00
 Gap=     0.144 Goal=   None    Shift=    0.000
 Gap=     0.256 Goal=   None    Shift=    0.000
 RMSDP=3.56D-08 MaxDP=2.28D-06 DE=-8.87D-12 OVMax= 1.57D-06

 Cycle  24  Pass 1  IDiag  1:
 E= -190.823819206955     Delta-E=       -0.000000000002 Rises=F Damp=F
 DIIS: error= 6.58D-08 at cycle  11 NSaved=  11.
 NSaved=11 IEnMin=11 EnMin= -190.823819206955     IErMin=11 ErrMin= 6.58D-08
 ErrMax= 6.58D-08  0.00D+00 EMaxC= 1.00D+00 BMatC= 4.68D-13 BMatP= 1.75D-12
 IDIUse=1 WtCom= 1.00D+00 WtEn= 0.00D+00
 Coeff-Com:  0.845D-04 0.206D-02-0.220D-01-0.256D-01 0.141D-01 0.745D-01
 Coeff-Com:  0.327D-01-0.118D+00-0.282D+00 0.335D+00 0.989D+00
 Coeff:      0.845D-04 0.206D-02-0.220D-01-0.256D-01 0.141D-01 0.745D-01
 Coeff:      0.327D-01-0.118D+00-0.282D+00 0.335D+00 0.989D+00
 Gap=     0.144 Goal=   None    Shift=    0.000
 Gap=     0.256 Goal=   None    Shift=    0.000
 RMSDP=1.66D-08 MaxDP=8.18D-07 DE=-2.16D-12 OVMax= 1.07D-06

 Cycle  25  Pass 1  IDiag  1:
 E= -190.823819206956     Delta-E=       -0.000000000002 Rises=F Damp=F
 DIIS: error= 1.29D-08 at cycle  12 NSaved=  12.
 NSaved=12 IEnMin=12 EnMin= -190.823819206956     IErMin=12 ErrMin= 1.29D-08
 ErrMax= 1.29D-08  0.00D+00 EMaxC= 1.00D+00 BMatC= 2.64D-14 BMatP= 4.68D-13
 IDIUse=1 WtCom= 1.00D+00 WtEn= 0.00D+00
 Coeff-Com: -0.841D-04 0.159D-02 0.179D-02-0.433D-02-0.155D-01-0.205D-02
 Coeff-Com:  0.431D-01 0.212D-01-0.611D-01-0.125D+00-0.112D+00 0.125D+01
 Coeff:     -0.841D-04 0.159D-02 0.179D-02-0.433D-02-0.155D-01-0.205D-02
 Coeff:      0.431D-01 0.212D-01-0.611D-01-0.125D+00-0.112D+00 0.125D+01
 Gap=     0.144 Goal=   None    Shift=    0.000
 Gap=     0.256 Goal=   None    Shift=    0.000
 RMSDP=4.53D-09 MaxDP=2.32D-07 DE=-1.71D-12 OVMax= 2.34D-07

 SCF Done:  E(UM062X) =  -190.823819207     A.U. after   25 cycles
            NFock= 25  Conv=0.45D-08     -V/T= 2.0057
 <Sx>= 0.0000 <Sy>= 0.0000 <Sz>= 0.5000 <S**2>= 0.7758 S= 0.5128
 <L.S>= 0.000000000000E+00
 KE= 1.897397078573D+02 PE=-6.451179761301D+02 EE= 1.630606507915D+02
 Annihilation of the first spin contaminant:
 S**2 before annihilation     0.7758,   after     0.7503
 Leave Link  502 at Mon Sep 28 11:13:53 2020, MaxMem=   268435456 cpu:             165.7 elap:              26.3
 (Enter /applis/site/cecic/gaussian16/B.01/nehalem/g16/l701.exe)
 ... and contract with generalized density number  0.
 Compute integral first derivatives.
 Leave Link  701 at Mon Sep 28 11:13:53 2020, MaxMem=   268435456 cpu:               1.5 elap:               0.3
 (Enter /applis/site/cecic/gaussian16/B.01/nehalem/g16/l702.exe)
 L702 exits ... SP integral derivatives will be done elsewhere.
 Leave Link  702 at Mon Sep 28 11:13:53 2020, MaxMem=   268435456 cpu:               0.4 elap:               0.1
 (Enter /applis/site/cecic/gaussian16/B.01/nehalem/g16/l703.exe)
 Integral derivatives from FoFJK, PRISM(SPDF).
 Compute integral first derivatives, UseDBF=F ICtDFT=           0.
 Calling FoFJK, ICntrl=      2127 FMM=F ISym2X=0 I1Cent= 0 IOpClX= 1 NMat=1 NMatS=1 NMatT=0.
 FoFJK:  IHMeth= 1 ICntrl=    2127 DoSepK=F KAlg= 0 I1Cent=           0 FoldK=F
 IRaf=         0 NMat=       1 IRICut=       1 DoRegI=T DoRafI=F ISym2E= 0 IDoP0=0 IntGTp=1.
 FoFCou: FMM=F IPFlag=           0 FMFlag=      100000 FMFlg1=         800
         NFxFlg=           0 DoJE=F BraDBF=F KetDBF=F FulRan=T
         wScrn=  0.000000 ICntrl=      2127 IOpCl=  1 I1Cent=           0 NGrid=           0
         NMat0=    1 NMatS0=      1 NMatT0=    0 NMatD0=    1 NMtDS0=    0 NMtDT0=    0
 Symmetry not used in FoFCou.
 Leave Link  703 at Mon Sep 28 11:13:56 2020, MaxMem=   268435456 cpu:              22.6 elap:               2.9
 (Enter /applis/site/cecic/gaussian16/B.01/nehalem/g16/l716.exe)
 Dipole        = 1.59605559D-04 5.67005227D-09 1.69911477D+00
 -------------------------------------------------------------------
 Center     Atomic                   Forces (Hartrees/Bohr)
 Number     Number              X              Y              Z
 -------------------------------------------------------------------
      1        6           0.000017720    0.000000000   -0.063558959
      2        6           0.000030540   -0.000000001    0.042969076
      3        6          -0.000011201    0.000000001   -0.025833707
      4        6          -0.000012190    0.000000000    0.012561993
      5        1           0.000007265   -0.000000000   -0.000106567
      6        6          -0.000032135    0.000000000    0.033968163
 -------------------------------------------------------------------
 Cartesian Forces:  Max     0.063558959 RMS     0.020903372
 Leave Link  716 at Mon Sep 28 11:13:56 2020, MaxMem=   268435456 cpu:               0.5 elap:               0.1
 (Enter /applis/site/cecic/gaussian16/B.01/nehalem/g16/l103.exe)

 GradGradGradGradGradGradGradGradGradGradGradGradGradGradGradGradGradGrad
 Berny optimization.
 Using GEDIIS/GDIIS optimizer.
 FormGI is forming the generalized inverse of G from B-inverse, IUseBI=4.
 Internal  Forces:  Max     0.033968182 RMS     0.013483838
 Search for a local minimum.
 Step number   2 out of a maximum of  100
 All quantities printed in internal units (Hartrees-Bohrs-Radians)
 RMS Force = .13484D-01 SwitMx=.10000D-02 MixMth= 1
 Mixed Optimization -- RFO/linear search
 Update second derivatives using D2CorX and points    1    2
 DE= -1.52D-02 DEPred=-1.07D-02 R= 1.43D+00
 TightC=F SS=  1.41D+00  RLast= 2.19D-01 DXNew= 5.0454D-01 6.5557D-01
 Trust test= 1.43D+00 RLast= 2.19D-01 DXMaxT set to 5.05D-01
 The second derivative matrix:
                          R1        R2        R3        R4        R5
           R1           0.94363
           R2           0.10494   0.25292
           R3           0.05571  -0.04498   0.42963
           R4          -0.00982   0.04257   0.03883   1.05237
           R5          -0.00324  -0.00055  -0.00299  -0.00567   0.38818
           A1           0.00000  -0.00002  -0.00002  -0.00001   0.00000
           A2          -0.00001   0.00002   0.00001   0.00001  -0.00000
           A3           0.00002  -0.00005  -0.00004  -0.00002   0.00000
           A4           0.00006  -0.00017  -0.00014  -0.00009   0.00002
           A5          -0.00000   0.00000   0.00000   0.00000  -0.00000
           A6          -0.00000   0.00000   0.00000   0.00000  -0.00000
           A7          -0.00000  -0.00000  -0.00000  -0.00000   0.00000
           A8           0.00000  -0.00000  -0.00000  -0.00000   0.00000
                          A1        A2        A3        A4        A5
           A1           0.01257
           A2          -0.00000   0.01932
           A3           0.00000  -0.00000   0.04664
           A4           0.00000  -0.00000   0.00000   0.00654
           A5          -0.00000   0.00000  -0.00000  -0.00000   0.01257
           A6          -0.00000   0.00000  -0.00000  -0.00000   0.00000
[...]
 Gap=     0.418 Goal=   None    Shift=    0.000
 RMSDP=1.06D-04 MaxDP=5.59D-03 DE=-1.97D-04 OVMax= 1.49D-02

 Cycle 116  Pass 1  IDiag  1:
 RMSU=  3.39D-07    CP:  1.00D+00  3.95D-02  3.11D-01  3.00D+00 -1.96D-02
                    CP:  1.23D+00  1.72D+00  3.69D-01  1.03D-02  3.00D+00
                    CP:  2.27D-01  1.38D-03  2.34D+00 -1.32D-03  7.11D-04
 E= -189.724361102094     Delta-E=        0.000025210230 Rises=F Damp=F
 DIIS: error= 1.40D-03 at cycle 116 NSaved=  20.
 NSaved=20 IEnMin= 5 EnMin= -189.730518992336     IErMin=15 ErrMin= 1.04D-03
 ErrMax= 1.40D-03  0.00D+00 EMaxC= 1.00D-01 BMatC= 3.70D-04 BMatP= 9.14D-05
 IDIUse=3 WtCom= 9.86D-01 WtEn= 1.44D-02
 Rare condition: small coef for last iteration:  0.000D+00
 Coeff-Com: -0.482D-01 0.126D+00 0.117D-01-0.910D+00-0.700D+00 0.127D+01
 Coeff-Com: -0.524D-01 0.374D+00-0.104D+01 0.140D+01-0.273D+01 0.290D+01
 Coeff-Com: -0.119D+01 0.188D+00 0.790D+00-0.635D+00 0.186D+01 0.192D+01
 Coeff-Com: -0.104D+01-0.148D+01
 Coeff-En:   0.000D+00 0.000D+00 0.000D+00 0.000D+00 0.000D+00 0.000D+00
 Coeff-En:   0.000D+00 0.000D+00 0.000D+00 0.000D+00 0.000D+00 0.000D+00
 Coeff-En:   0.000D+00 0.000D+00 0.000D+00 0.000D+00 0.000D+00 0.000D+00
 Coeff-En:   0.000D+00 0.100D+01
 Coeff:     -0.482D-01 0.126D+00 0.117D-01-0.910D+00-0.700D+00 0.127D+01
 Coeff:     -0.524D-01 0.374D+00-0.104D+01 0.140D+01-0.273D+01 0.290D+01
 Coeff:     -0.119D+01 0.188D+00 0.790D+00-0.635D+00 0.186D+01 0.192D+01
 Coeff:     -0.104D+01-0.148D+01
 Gap=     0.352 Goal=   None    Shift=    0.000
 Gap=     0.419 Goal=   None    Shift=    0.000
 RMSDP=1.11D-04 MaxDP=6.85D-03 DE= 2.52D-05 OVMax= 1.23D-02

 Cycle 117  Pass 1  IDiag  1:
 RMSU=  2.69D-06    CP:  1.00D+00  8.94D-01  3.62D-02  3.00D+00  3.00D+00
                    CP: -1.35D-01  3.00D+00  3.00D+00 -3.00D+00  3.00D+00
                    CP:  3.00D+00 -3.00D+00  3.00D+00  4.44D-01 -1.38D+00
                    CP:  6.13D-01
 E= -189.724200960383     Delta-E=        0.000160141711 Rises=F Damp=F
 DIIS: error= 1.52D-03 at cycle 117 NSaved=  20.
 NSaved=20 IEnMin= 5 EnMin= -189.730518992336     IErMin=15 ErrMin= 1.04D-03
 ErrMax= 1.52D-03  0.00D+00 EMaxC= 1.00D-01 BMatC= 4.76D-04 BMatP= 9.14D-05
 IDIUse=3 WtCom= 9.86D-01 WtEn= 1.44D-02
 Rare condition: small coef for last iteration:  0.000D+00
 Coeff-Com: -0.414D-01 0.108D+00-0.942D-03-0.919D+00-0.434D+00 0.112D+01
 Coeff-Com: -0.613D-01 0.322D+00-0.101D+01 0.148D+01-0.251D+01 0.245D+01
 Coeff-Com: -0.963D+00 0.931D-01 0.602D+00-0.455D+00 0.178D+01 0.192D+01
 Coeff-Com: -0.128D+01-0.120D+01
 Coeff-En:   0.000D+00 0.000D+00 0.000D+00 0.000D+00 0.000D+00 0.000D+00
 Coeff-En:   0.000D+00 0.000D+00 0.000D+00 0.000D+00 0.000D+00 0.000D+00
 Coeff-En:   0.000D+00 0.000D+00 0.000D+00 0.000D+00 0.000D+00 0.000D+00
 Coeff-En:   0.000D+00 0.100D+01
 Coeff:     -0.414D-01 0.108D+00-0.942D-03-0.919D+00-0.434D+00 0.112D+01
 Coeff:     -0.613D-01 0.322D+00-0.101D+01 0.148D+01-0.251D+01 0.245D+01
 Coeff:     -0.963D+00 0.931D-01 0.602D+00-0.455D+00 0.178D+01 0.192D+01
 Coeff:     -0.128D+01-0.120D+01
 Gap=     0.350 Goal=   None    Shift=    0.000
 Gap=     0.418 Goal=   None    Shift=    0.000
 RMSDP=1.55D-04 MaxDP=7.34D-03 DE= 1.60D-04 OVMax= 2.75D-02

 Cycle 118  Pass 1  IDiag  1:
 RMSU=  9.67D-07    CP:  1.00D+00  4.43D-01  7.62D-01 -3.00D+00 -3.00D+00
                    CP:  3.00D+00 -3.00D+00 -3.00D+00  3.00D+00 -3.00D+00
                    CP: -3.00D+00  3.00D+00 -3.00D+00  2.13D+00  2.80D+00
                    CP: -2.41D-01 -7.33D-01
 E= -189.724368392607     Delta-E=       -0.000167432223 Rises=F Damp=F
 DIIS: error= 1.40D-03 at cycle 118 NSaved=  20.
 NSaved=20 IEnMin= 5 EnMin= -189.730518992336     IErMin=15 ErrMin= 1.04D-03
 ErrMax= 1.40D-03  0.00D+00 EMaxC= 1.00D-01 BMatC= 3.79D-04 BMatP= 9.14D-05
 IDIUse=3 WtCom= 9.86D-01 WtEn= 1.44D-02
 Coeff-Com: -0.428D-01 0.111D+00 0.878D-02-0.978D+00-0.383D+00 0.111D+01
 Coeff-Com: -0.523D-01 0.319D+00-0.103D+01 0.148D+01-0.254D+01 0.249D+01
 Coeff-Com: -0.889D+00 0.126D-01 0.548D+00-0.445D+00 0.196D+01 0.174D+01
 Coeff-Com: -0.130D+01-0.112D+01
 Coeff-En:   0.000D+00 0.000D+00 0.000D+00 0.000D+00 0.000D+00 0.000D+00
 Coeff-En:   0.000D+00 0.000D+00 0.000D+00 0.000D+00 0.000D+00 0.000D+00
 Coeff-En:   0.000D+00 0.000D+00 0.000D+00 0.000D+00 0.000D+00 0.000D+00
 Coeff-En:   0.000D+00 0.100D+01
 Coeff:     -0.421D-01 0.109D+00 0.866D-02-0.964D+00-0.377D+00 0.109D+01
 Coeff:     -0.516D-01 0.315D+00-0.101D+01 0.146D+01-0.251D+01 0.246D+01
 Coeff:     -0.876D+00 0.124D-01 0.540D+00-0.438D+00 0.193D+01 0.171D+01
 Coeff:     -0.128D+01-0.109D+01
 Gap=     0.350 Goal=   None    Shift=    0.000
 Gap=     0.418 Goal=   None    Shift=    0.000
 RMSDP=9.61D-05 MaxDP=4.88D-03 DE=-1.67D-04 OVMax= 1.52D-02

 Cycle 119  Pass 1  IDiag  1:
 RMSU=  6.58D-08    CP:  1.00D+00  4.29D-02  3.35D-01  3.00D+00 -1.78D-01
                    CP:  1.72D+00  2.13D+00  5.17D-01  1.54D-02  3.00D+00
                    CP:  2.32D-01  2.23D-04  2.95D+00 -7.26D-03  3.90D-03
                    CP:  2.23D+00  2.43D-03 -3.28D-02
 E= -189.724364162785     Delta-E=        0.000004229822 Rises=F Damp=F
 DIIS: error= 1.41D-03 at cycle 119 NSaved=  20.
 NSaved=20 IEnMin= 5 EnMin= -189.730518992336     IErMin=15 ErrMin= 1.04D-03
 ErrMax= 1.41D-03  0.00D+00 EMaxC= 1.00D-01 BMatC= 3.72D-04 BMatP= 9.14D-05
 IDIUse=3 WtCom= 9.86D-01 WtEn= 1.44D-02
 Rare condition: small coef for last iteration:  0.000D+00
 Coeff-Com: -0.496D-01 0.124D+00 0.153D-01-0.905D+00-0.685D+00 0.125D+01
 Coeff-Com: -0.562D-01 0.377D+00-0.104D+01 0.140D+01-0.272D+01 0.287D+01
 Coeff-Com: -0.116D+01 0.161D+00 0.790D+00-0.582D+00 0.182D+01 0.188D+01
 Coeff-Com: -0.101D+01-0.148D+01
 Coeff-En:   0.000D+00 0.000D+00 0.000D+00 0.000D+00 0.000D+00 0.000D+00
 Coeff-En:   0.000D+00 0.000D+00 0.000D+00 0.000D+00 0.000D+00 0.000D+00
 Coeff-En:   0.000D+00 0.000D+00 0.000D+00 0.000D+00 0.000D+00 0.000D+00
 Coeff-En:   0.000D+00 0.100D+01
 Coeff:     -0.496D-01 0.124D+00 0.153D-01-0.905D+00-0.685D+00 0.125D+01
 Coeff:     -0.562D-01 0.377D+00-0.104D+01 0.140D+01-0.272D+01 0.287D+01
 Coeff:     -0.116D+01 0.161D+00 0.790D+00-0.582D+00 0.182D+01 0.188D+01
 Coeff:     -0.101D+01-0.148D+01
 Gap=     0.352 Goal=   None    Shift=    0.000
 Gap=     0.419 Goal=   None    Shift=    0.000
 RMSDP=1.09D-04 MaxDP=6.35D-03 DE= 4.23D-06 OVMax= 1.42D-02

 Cycle 120  Pass 1  IDiag  1:
 RMSU=  1.61D-07    CP:  1.00D+00  8.78D-01  9.99D-02  3.00D+00  3.00D+00
                    CP: -5.45D-01  3.00D+00  3.00D+00 -3.00D+00  3.00D+00
                    CP:  3.00D+00 -3.00D+00  3.00D+00  5.53D-02 -2.82D+00
                    CP:  1.20D+00  2.07D+00 -2.24D-01 -7.61D-01
 E= -189.724214998760     Delta-E=        0.000149164025 Rises=F Damp=F
 DIIS: error= 1.51D-03 at cycle 120 NSaved=  20.
 NSaved=20 IEnMin= 5 EnMin= -189.730518992336     IErMin=15 ErrMin= 1.04D-03
 ErrMax= 1.51D-03  0.00D+00 EMaxC= 1.00D-01 BMatC= 4.69D-04 BMatP= 9.14D-05
 IDIUse=3 WtCom= 9.86D-01 WtEn= 1.44D-02
 Rare condition: small coef for last iteration:  0.000D+00
 Coeff-Com: -0.439D-01 0.110D+00 0.404D-02-0.908D+00-0.478D+00 0.114D+01
 Coeff-Com: -0.626D-01 0.333D+00-0.101D+01 0.146D+01-0.255D+01 0.252D+01
 Coeff-Com: -0.975D+00 0.835D-01 0.626D+00-0.437D+00 0.177D+01 0.187D+01
 Coeff-Com: -0.129D+01-0.116D+01
 Coeff-En:   0.000D+00 0.000D+00 0.000D+00 0.000D+00 0.000D+00 0.000D+00
 Coeff-En:   0.000D+00 0.000D+00 0.000D+00 0.000D+00 0.000D+00 0.000D+00
 Coeff-En:   0.000D+00 0.000D+00 0.000D+00 0.000D+00 0.000D+00 0.000D+00
 Coeff-En:   0.000D+00 0.100D+01
 Coeff:     -0.439D-01 0.110D+00 0.404D-02-0.908D+00-0.478D+00 0.114D+01
 Coeff:     -0.626D-01 0.333D+00-0.101D+01 0.146D+01-0.255D+01 0.252D+01
 Coeff:     -0.975D+00 0.835D-01 0.626D+00-0.437D+00 0.177D+01 0.187D+01
 Coeff:     -0.129D+01-0.116D+01
 Gap=     0.350 Goal=   None    Shift=    0.000
 Gap=     0.418 Goal=   None    Shift=    0.000
 RMSDP=1.41D-04 MaxDP=5.88D-03 DE= 1.49D-04 OVMax= 3.08D-02

 Cycle 121  Pass 1  IDiag  1:
 Restarting incremental Fock formation.
 E= -189.724349773273     Delta-E=       -0.000134774513 Rises=F Damp=F
 DIIS: error= 1.41D-03 at cycle 121 NSaved=  20.
 NSaved=20 IEnMin= 5 EnMin= -189.730518992336     IErMin=15 ErrMin= 1.04D-03
 ErrMax= 1.41D-03  0.00D+00 EMaxC= 1.00D-01 BMatC= 3.92D-04 BMatP= 9.14D-05
 IDIUse=3 WtCom= 9.86D-01 WtEn= 1.44D-02
 Coeff-Com: -0.440D-01 0.111D+00 0.106D-01-0.971D+00-0.397D+00 0.111D+01
 Coeff-Com: -0.531D-01 0.322D+00-0.102D+01 0.148D+01-0.256D+01 0.252D+01
 Coeff-Com: -0.884D+00-0.719D-03 0.547D+00-0.413D+00 0.195D+01 0.171D+01
 Coeff-Com: -0.127D+01-0.114D+01
 Coeff-En:   0.000D+00 0.000D+00 0.000D+00 0.000D+00 0.000D+00 0.000D+00
 Coeff-En:   0.000D+00 0.000D+00 0.000D+00 0.000D+00 0.000D+00 0.000D+00
 Coeff-En:   0.000D+00 0.000D+00 0.000D+00 0.000D+00 0.000D+00 0.000D+00
 Coeff-En:   0.000D+00 0.100D+01
 Coeff:     -0.434D-01 0.109D+00 0.105D-01-0.957D+00-0.391D+00 0.110D+01
 Coeff:     -0.524D-01 0.317D+00-0.101D+01 0.145D+01-0.252D+01 0.248D+01
 Coeff:     -0.871D+00-0.709D-03 0.539D+00-0.407D+00 0.192D+01 0.168D+01
 Coeff:     -0.125D+01-0.111D+01
 Gap=     0.351 Goal=   None    Shift=    0.000
 Gap=     0.418 Goal=   None    Shift=    0.000
 RMSDP=9.01D-05 MaxDP=4.29D-03 DE=-1.35D-04 OVMax= 1.65D-02

 Cycle 122  Pass 1  IDiag  1:
 RMSU=  9.00D-05    CP:  1.00D+00
 E= -189.724366142905     Delta-E=       -0.000016369632 Rises=F Damp=F
 DIIS: error= 1.41D-03 at cycle 122 NSaved=  20.
 NSaved=20 IEnMin= 5 EnMin= -189.730518992336     IErMin=15 ErrMin= 1.04D-03
 ErrMax= 1.41D-03  0.00D+00 EMaxC= 1.00D-01 BMatC= 3.73D-04 BMatP= 9.14D-05
 IDIUse=3 WtCom= 9.86D-01 WtEn= 1.44D-02
 Coeff-Com: -0.506D-01 0.122D+00 0.186D-01-0.902D+00-0.664D+00 0.124D+01
 Coeff-Com: -0.597D-01 0.378D+00-0.104D+01 0.140D+01-0.270D+01 0.284D+01
 Coeff-Com: -0.113D+01 0.139D+00 0.780D+00-0.536D+00 0.178D+01 0.186D+01
 Coeff-Com: -0.997D+00-0.148D+01
 Coeff-En:   0.000D+00 0.000D+00 0.000D+00 0.000D+00 0.000D+00 0.000D+00
 Coeff-En:   0.000D+00 0.000D+00 0.000D+00 0.000D+00 0.000D+00 0.000D+00
 Coeff-En:   0.000D+00 0.000D+00 0.000D+00 0.000D+00 0.000D+00 0.000D+00
 Coeff-En:   0.000D+00 0.100D+01
 Coeff:     -0.499D-01 0.120D+00 0.184D-01-0.889D+00-0.654D+00 0.122D+01
 Coeff:     -0.588D-01 0.372D+00-0.102D+01 0.138D+01-0.266D+01 0.280D+01
 Coeff:     -0.111D+01 0.137D+00 0.769D+00-0.529D+00 0.176D+01 0.183D+01
 Coeff:     -0.983D+00-0.144D+01
 Gap=     0.352 Goal=   None    Shift=    0.000
 Gap=     0.419 Goal=   None    Shift=    0.000
 RMSDP=1.03D-04 MaxDP=5.57D-03 DE=-1.64D-05 OVMax= 1.53D-02

 Cycle 123  Pass 1  IDiag  1:
 RMSU=  1.00D-04    CP:  1.00D+00  9.69D-01
 E= -189.724237874022     Delta-E=        0.000128268883 Rises=F Damp=F
 DIIS: error= 1.49D-03 at cycle 123 NSaved=  20.
 NSaved=20 IEnMin= 5 EnMin= -189.730518992336     IErMin=15 ErrMin= 1.04D-03
 ErrMax= 1.49D-03  0.00D+00 EMaxC= 1.00D-01 BMatC= 4.48D-04 BMatP= 9.14D-05
 IDIUse=3 WtCom= 9.86D-01 WtEn= 1.44D-02
 Rare condition: small coef for last iteration:  0.000D+00
 Coeff-Com: -0.471D-01 0.106D+00 0.156D-01-0.853D+00-0.551D+00 0.115D+01
 Coeff-Com: -0.904D-01 0.376D+00-0.101D+01 0.140D+01-0.258D+01 0.260D+01
 Coeff-Com: -0.988D+00 0.915D-01 0.621D+00-0.395D+00 0.179D+01 0.183D+01
 Coeff-Com: -0.132D+01-0.114D+01
 Coeff-En:   0.000D+00 0.000D+00 0.000D+00 0.000D+00 0.000D+00 0.000D+00
 Coeff-En:   0.000D+00 0.000D+00 0.000D+00 0.000D+00 0.000D+00 0.000D+00
 Coeff-En:   0.000D+00 0.000D+00 0.000D+00 0.000D+00 0.000D+00 0.000D+00
 Coeff-En:   0.000D+00 0.100D+01
 Coeff:     -0.471D-01 0.106D+00 0.156D-01-0.853D+00-0.551D+00 0.115D+01
 Coeff:     -0.904D-01 0.376D+00-0.101D+01 0.140D+01-0.258D+01 0.260D+01
 Coeff:     -0.988D+00 0.915D-01 0.621D+00-0.395D+00 0.179D+01 0.183D+01
 Coeff:     -0.132D+01-0.114D+01
 Gap=     0.351 Goal=   None    Shift=    0.000
 Gap=     0.418 Goal=   None    Shift=    0.000
 RMSDP=1.34D-04 MaxDP=5.80D-03 DE= 1.28D-04 OVMax= 3.25D-02

 Cycle 124  Pass 1  IDiag  1:
 RMSU=  5.99D-06    CP:  1.00D+00  2.37D-02 -1.65D-02
 E= -189.724346549992     Delta-E=       -0.000108675969 Rises=F Damp=F
 DIIS: error= 1.43D-03 at cycle 124 NSaved=  20.
 NSaved=20 IEnMin= 5 EnMin= -189.730518992336     IErMin=15 ErrMin= 1.04D-03
 ErrMax= 1.43D-03  0.00D+00 EMaxC= 1.00D-01 BMatC= 4.01D-04 BMatP= 9.14D-05
 IDIUse=3 WtCom= 9.86D-01 WtEn= 1.44D-02
 Coeff-Com: -0.462D-01 0.106D+00 0.191D-01-0.912D+00-0.456D+00 0.112D+01
 Coeff-Com: -0.817D-01 0.358D+00-0.101D+01 0.141D+01-0.258D+01 0.256D+01
 Coeff-Com: -0.877D+00 0.295D-02 0.504D+00-0.334D+00 0.199D+01 0.167D+01
 Coeff-Com: -0.127D+01-0.118D+01
 Coeff-En:   0.000D+00 0.000D+00 0.000D+00 0.000D+00 0.000D+00 0.000D+00
 Coeff-En:   0.000D+00 0.000D+00 0.000D+00 0.000D+00 0.000D+00 0.000D+00
 Coeff-En:   0.000D+00 0.000D+00 0.000D+00 0.000D+00 0.000D+00 0.000D+00
 Coeff-En:   0.000D+00 0.100D+01
 Coeff:     -0.455D-01 0.104D+00 0.189D-01-0.899D+00-0.450D+00 0.110D+01
 Coeff:     -0.805D-01 0.353D+00-0.997D+00 0.139D+01-0.254D+01 0.252D+01
 Coeff:     -0.865D+00 0.291D-02 0.497D+00-0.329D+00 0.196D+01 0.165D+01
 Coeff:     -0.125D+01-0.114D+01
 Gap=     0.351 Goal=   None    Shift=    0.000
 Gap=     0.418 Goal=   None    Shift=    0.000
 RMSDP=8.99D-05 MaxDP=4.00D-03 DE=-1.09D-04 OVMax= 1.75D-02

 Cycle 125  Pass 1  IDiag  1:
 RMSU=  6.99D-06    CP:  1.00D+00  1.01D+00 -7.02D-02 -6.01D-01
 E= -189.724379821151     Delta-E=       -0.000033271159 Rises=F Damp=F
 DIIS: error= 1.41D-03 at cycle 125 NSaved=  20.
 NSaved=20 IEnMin= 5 EnMin= -189.730518992336     IErMin=15 ErrMin= 1.04D-03
 ErrMax= 1.41D-03  0.00D+00 EMaxC= 1.00D-01 BMatC= 3.75D-04 BMatP= 9.14D-05
 IDIUse=3 WtCom= 9.86D-01 WtEn= 1.44D-02
 Coeff-Com: -0.517D-01 0.121D+00 0.215D-01-0.912D+00-0.645D+00 0.123D+01
 Coeff-Com: -0.598D-01 0.377D+00-0.103D+01 0.140D+01-0.269D+01 0.281D+01
 Coeff-Com: -0.109D+01 0.118D+00 0.759D+00-0.453D+00 0.177D+01 0.185D+01
 Coeff-Com: -0.104D+01-0.147D+01
 Coeff-En:   0.000D+00 0.000D+00 0.000D+00 0.000D+00 0.000D+00 0.000D+00
 Coeff-En:   0.000D+00 0.000D+00 0.000D+00 0.000D+00 0.000D+00 0.000D+00
 Coeff-En:   0.000D+00 0.000D+00 0.000D+00 0.000D+00 0.000D+00 0.000D+00
 Coeff-En:   0.000D+00 0.100D+01
 Coeff:     -0.510D-01 0.119D+00 0.212D-01-0.899D+00-0.636D+00 0.121D+01
 Coeff:     -0.589D-01 0.371D+00-0.102D+01 0.138D+01-0.265D+01 0.277D+01
 Coeff:     -0.108D+01 0.116D+00 0.748D+00-0.447D+00 0.175D+01 0.182D+01
 Coeff:     -0.103D+01-0.143D+01
 Gap=     0.352 Goal=   None    Shift=    0.000
 Gap=     0.419 Goal=   None    Shift=    0.000
 RMSDP=1.12D-04 MaxDP=5.89D-03 DE=-3.33D-05 OVMax= 1.62D-02

 Cycle 126  Pass 1  IDiag  1:
 RMSU=  1.59D-06    CP:  1.00D+00  9.58D-01  1.02D+00 -8.85D-01  1.65D-01
 E= -189.724240435522     Delta-E=        0.000139385628 Rises=F Damp=F
 DIIS: error= 1.49D-03 at cycle 126 NSaved=  20.
 NSaved=20 IEnMin= 5 EnMin= -189.730518992336     IErMin=15 ErrMin= 1.04D-03
 ErrMax= 1.49D-03  0.00D+00 EMaxC= 1.00D-01 BMatC= 4.45D-04 BMatP= 9.14D-05
 IDIUse=3 WtCom= 9.86D-01 WtEn= 1.44D-02
 Rare condition: small coef for last iteration:  0.000D+00
 Coeff-Com: -0.493D-01 0.109D+00 0.205D-01-0.859D+00-0.570D+00 0.116D+01
 Coeff-Com: -0.883D-01 0.382D+00-0.101D+01 0.139D+01-0.260D+01 0.264D+01
 Coeff-Com: -0.997D+00 0.874D-01 0.651D+00-0.375D+00 0.175D+01 0.181D+01
 Coeff-Com: -0.133D+01-0.110D+01
 Coeff-En:   0.000D+00 0.000D+00 0.000D+00 0.000D+00 0.000D+00 0.000D+00
 Coeff-En:   0.000D+00 0.000D+00 0.000D+00 0.000D+00 0.000D+00 0.000D+00
 Coeff-En:   0.000D+00 0.000D+00 0.000D+00 0.000D+00 0.000D+00 0.000D+00
 Coeff-En:   0.000D+00 0.100D+01
 Coeff:     -0.493D-01 0.109D+00 0.205D-01-0.859D+00-0.570D+00 0.116D+01
 Coeff:     -0.883D-01 0.382D+00-0.101D+01 0.139D+01-0.260D+01 0.264D+01
 Coeff:     -0.997D+00 0.874D-01 0.651D+00-0.375D+00 0.175D+01 0.181D+01
 Coeff:     -0.133D+01-0.110D+01
 Gap=     0.351 Goal=   None    Shift=    0.000
 Gap=     0.419 Goal=   None    Shift=    0.000
 RMSDP=1.28D-04 MaxDP=6.18D-03 DE= 1.39D-04 OVMax= 3.47D-02

 Cycle 127  Pass 1  IDiag  1:
 RMSU=  1.16D-06    CP:  1.00D+00  2.42D-02  1.07D-01  3.00D+00 -1.53D+00
                    CP: -1.63D-02
 E= -189.724316773976     Delta-E=       -0.000076338454 Rises=F Damp=F
 DIIS: error= 1.45D-03 at cycle 127 NSaved=  20.
 NSaved=20 IEnMin= 5 EnMin= -189.730518992336     IErMin=15 ErrMin= 1.04D-03
 ErrMax= 1.45D-03  0.00D+00 EMaxC= 1.00D-01 BMatC= 4.13D-04 BMatP= 9.14D-05
 IDIUse=3 WtCom= 9.86D-01 WtEn= 1.44D-02
 Coeff-Com: -0.471D-01 0.106D+00 0.197D-01-0.905D+00-0.460D+00 0.112D+01
 Coeff-Com: -0.799D-01 0.355D+00-0.101D+01 0.142D+01-0.258D+01 0.256D+01
 Coeff-Com: -0.881D+00-0.256D-02 0.508D+00-0.344D+00 0.196D+01 0.165D+01
 Coeff-Com: -0.122D+01-0.116D+01
 Coeff-En:   0.000D+00 0.000D+00 0.000D+00 0.000D+00 0.000D+00 0.000D+00
 Coeff-En:   0.000D+00 0.000D+00 0.000D+00 0.000D+00 0.000D+00 0.000D+00
 Coeff-En:   0.000D+00 0.000D+00 0.000D+00 0.000D+00 0.000D+00 0.000D+00
 Coeff-En:   0.000D+00 0.100D+01
 Coeff:     -0.465D-01 0.104D+00 0.194D-01-0.892D+00-0.454D+00 0.110D+01
 Coeff:     -0.787D-01 0.350D+00-0.996D+00 0.140D+01-0.254D+01 0.253D+01
 Coeff:     -0.868D+00-0.252D-02 0.501D+00-0.339D+00 0.193D+01 0.163D+01
 Coeff:     -0.121D+01-0.113D+01
 Gap=     0.351 Goal=   None    Shift=    0.000
 Gap=     0.418 Goal=   None    Shift=    0.000
 RMSDP=9.49D-05 MaxDP=3.85D-03 DE=-7.63D-05 OVMax= 1.89D-02

 Cycle 128  Pass 1  IDiag  1:
 RMSU=  3.20D-07    CP:  1.00D+00  1.02D+00 -2.90D-02 -3.13D-01  7.51D-01
                    CP: -5.95D-01  5.25D-01
 E= -189.724372580544     Delta-E=       -0.000055806568 Rises=F Damp=F
 DIIS: error= 1.41D-03 at cycle 128 NSaved=  20.
 NSaved=20 IEnMin= 5 EnMin= -189.730518992336     IErMin=15 ErrMin= 1.04D-03
 ErrMax= 1.41D-03  0.00D+00 EMaxC= 1.00D-01 BMatC= 3.76D-04 BMatP= 9.14D-05
 IDIUse=3 WtCom= 9.86D-01 WtEn= 1.44D-02
 Coeff-Com: -0.522D-01 0.118D+00 0.238D-01-0.908D+00-0.615D+00 0.121D+01
 Coeff-Com: -0.633D-01 0.374D+00-0.102D+01 0.140D+01-0.267D+01 0.276D+01
 Coeff-Com: -0.107D+01 0.104D+00 0.735D+00-0.451D+00 0.176D+01 0.186D+01
 Coeff-Com: -0.102D+01-0.147D+01
 Coeff-En:   0.000D+00 0.000D+00 0.000D+00 0.000D+00 0.000D+00 0.000D+00
 Coeff-En:   0.000D+00 0.000D+00 0.000D+00 0.000D+00 0.000D+00 0.000D+00
 Coeff-En:   0.000D+00 0.000D+00 0.000D+00 0.000D+00 0.000D+00 0.000D+00
 Coeff-En:   0.000D+00 0.100D+01
 Coeff:     -0.515D-01 0.116D+00 0.235D-01-0.895D+00-0.606D+00 0.119D+01
 Coeff:     -0.624D-01 0.369D+00-0.101D+01 0.138D+01-0.263D+01 0.272D+01
 Coeff:     -0.105D+01 0.102D+00 0.724D+00-0.445D+00 0.174D+01 0.183D+01
 Coeff:     -0.100D+01-0.143D+01
 Gap=     0.352 Goal=   None    Shift=    0.000
 Gap=     0.419 Goal=   None    Shift=    0.000
 RMSDP=9.89D-05 MaxDP=4.66D-03 DE=-5.58D-05 OVMax= 1.60D-02

 >>>>>>>>>> Convergence criterion not met.
 SCF Done:  E(UHF) =  -189.724372581     A.U. after  129 cycles
            NFock=128  Conv=0.99D-04     -V/T= 2.0007
 <Sx>= 0.0000 <Sy>= 0.0000 <Sz>= 0.5000 <S**2>= 1.1667 S= 0.6903
 <L.S>= 0.000000000000E+00
 KE= 1.895852126023D+02 PE=-6.452887429682D+02 EE= 1.640176137816D+02
 Annihilation of the first spin contaminant:
 S**2 before annihilation     1.1667,   after     0.8935
 Leave Link  502 at Mon Sep 28 11:24:07 2020, MaxMem=   327680000 cpu:            2314.1 elap:             292.1
 (Enter /applis/site/cecic/gaussian16/B.01/nehalem/g16/l801.exe)
 Windowed orbitals will be sorted by symmetry type.
 SCFChk:  SCF convergence  9.89D-05 required  1.00D-08


 SCF Error SCF Error SCF Error SCF Error SCF Error SCF Error SCF Error SCF Error

                                    ERROR!!!!

    SCF has not converged.  Gradients and post-SCF results would be GARBAGE!!

 SCF Error SCF Error SCF Error SCF Error SCF Error SCF Error SCF Error SCF Error


 Error termination via Lnk1e in /applis/site/cecic/gaussian16/B.01/nehalem/g16/l801.exe at Mon Sep 28 11:24:07 2020.
 Job cpu time:       0 days  0 hours 38 minutes 45.9 seconds.
 Elapsed time:       0 days  0 hours  4 minutes 54.0 seconds.
 File lengths (MBytes):  RWF=     69 Int=      0 D2E=      0 Chk=      6 Scr=      1
