[Molden Format]
[Title]
[Atoms] AU
O      1     8  0.11428533557693E+01 -0.59839661777467E-05 -0.39893107851989E-05
O      2     8 -0.11428533557693E+01  0.59839661777467E-05  0.39893107851989E-05
[GTO]
           1 0
 s           4   1.0000000000000000     
   69.137961906196551      -0.20478756370077797     
   11.906129132707308      -0.24997023136827334     
  0.95670827744340703       0.40025880240639616     
  0.36462520496073686       0.15952206667693555     
 p           4   1.0000000000000000     
   8.2124193257781641        1.1321556799186829     
   2.1293576997098116        1.0476840782254817     
  0.75066448202360914       0.54956508217158984     
  0.29885246543283073        8.2908486592766617E-002

           2 0
 s           4   1.0000000000000000     
   69.137961906196551      -0.20478756370077797     
   11.906129132707308      -0.24997023136827334     
  0.95670827744340703       0.40025880240639616     
  0.36462520496073686       0.15952206667693555     
 p           4   1.0000000000000000     
   8.2124193257781641        1.1321556799186829     
   2.1293576997098116        1.0476840782254817     
  0.75066448202360914       0.54956508217158984     
  0.29885246543283073        8.2908486592766617E-002

[MO]
Sym=     1a
Ene=  -0.82717504437293732     
Spin= Alpha
Occup=     2.00000000
           1 -0.49830960923345807     
           2  0.27846291360304487     
           3  -1.4642557386640381E-006
           4  -9.7617049243005257E-007
           5 -0.49830960923345169     
           6 -0.27846291360304670     
           7   1.4642557382896176E-006
           8   9.7617049243760048E-007
Sym=     2a
Ene=  -0.73688372066262886     
Spin= Alpha
Occup=     2.00000000
           1  0.65927168019662707     
           2  0.26896671295492058     
           3  -1.3824468769281849E-006
           4  -9.2163125183981989E-007
           5 -0.65927168019662175     
           6  0.26896671295490576     
           7  -1.3824468783617425E-006
           8  -9.2163125184941572E-007
Sym=     3a
Ene=  -0.66150238662286431     
Spin= Alpha
Occup=     2.00000000
           1   2.7042986180644200E-008
           2  -4.0064677268449752E-006
           3 -0.46118384494706915     
           4 -0.46120010619702762     
           5  -2.7042980799579971E-008
           6  -4.0064677336683228E-006
           7 -0.46118384494706682     
           8 -0.46120010619702428     
Sym=     4a
Ene=  -0.66150238661492600     
Spin= Alpha
Occup=     2.00000000
           1  -5.4090955377297216E-009
           2   8.0136700020131867E-007
           3  0.46120010620548196     
           4 -0.46118384496248460     
           5   5.4090896829063510E-009
           6   8.0136700766490713E-007
           7  0.46120010620547780     
           8 -0.46118384496248288     
Sym=     5a
Ene=  -0.63814591534177045     
Spin= Alpha
Occup=     2.00000000
           1  0.43220058954921436     
           2  0.57194490005806542     
           3  -2.9859837102932744E-006
           4  -1.9906558107839767E-006
           5  0.43220058954922841     
           6 -0.57194490005806964     
           7   2.9859837216097477E-006
           8   1.9906558101925893E-006
Sym=     6a
Ene=  -0.44279193729456140     
Spin= Alpha
Occup=     1.00000000
           1   2.0790973979356665E-009
           2  -9.5997737861711455E-007
           3 -0.55060368424744044     
           4  0.55061052067508331     
           5   2.0790968110182796E-009
           6   9.5997737887043987E-007
           7  0.55060368424744288     
           8 -0.55061052067508609     
Sym=     7a
Ene=  -0.44279193727829436     
Spin= Alpha
Occup=     1.00000000
           1   1.0395821983129964E-008
           2  -4.8000418479431920E-006
           3 -0.55061052066694971     
           4 -0.55060368424767669     
           5   1.0395821455259803E-008
           6   4.8000418481755603E-006
           7  0.55061052066695293     
           8  0.55060368424767847     
Sym=     8a
Ene=   0.12472454216637516     
Spin= Alpha
Occup=     0.00000000
           1  0.62313803464507500     
           2 -0.92918646003201399     
           3   4.8618677740584802E-006
           4   3.2412451827111881E-006
           5 -0.62313803464507467     
           6 -0.92918646003201488     
           7   4.8618677740721886E-006
           8   3.2412451827126162E-006
