[Molden Format]
[Title]
[Atoms] AU
N      1     7  0.11405748918398E+01 -0.69032884216180E-01  0.78717214162716E+00
C      2     6 -0.59573460933671E-01  0.20778195013228E+01 -0.15582518485791E+00
N      3     7 -0.11314148109703E+01 -0.25044391596323E+00 -0.76321087111357E+00
H      4     1  0.26850582204146E+01 -0.81642979955109E+00 -0.11436123175709E+00
H      5     1 -0.26346448403439E+01 -0.94191290158895E+00  0.24622703582735E+00
[GTO]
           1 0
 s           4   1.0000000000000000     
   63.594024466941008      -0.19234388414721629     
   10.951417231523665      -0.23478107924953728     
  0.87999310257376984       0.37593753901700888     
  0.33538715296521110       0.14982889271862770     
 p           4   1.0000000000000000     
   7.2965040481495080       0.97658666315667420     
   1.8918745450712575       0.90372226730345739     
  0.66694432110824120       0.47404958461536373     
  0.26552202674130870        7.1516067715011844E-002

           2 0
 s           4   1.0000000000000000     
   51.049363095579913      -0.16312063210127389     
   8.7911227406887544      -0.19911024581000730     
  0.70640422258929825       0.31882047753655751     
  0.26922813413411617       0.12706504184240380     
 p           4   1.0000000000000000     
   5.8263656140800002       0.73716451545209605     
   1.5106896018720002       0.68216371614850257     
  0.53256483288000001       0.35783053929253711     
  0.21202323690600003        5.3983030275847881E-002

           3 0
 s           4   1.0000000000000000     
   63.594024466941008      -0.19234388414721629     
   10.951417231523665      -0.23478107924953728     
  0.87999310257376984       0.37593753901700888     
  0.33538715296521110       0.14982889271862770     
 p           4   1.0000000000000000     
   7.2965040481495080       0.97658666315667420     
   1.8918745450712575       0.90372226730345739     
  0.66694432110824120       0.47404958461536373     
  0.26552202674130870        7.1516067715011844E-002

           4 0
 s           3   1.0000000000000000     
   3.3702276975336001       0.27359110588908298     
  0.61389118221497996       0.26460540653860526     
  0.16614291148415999        8.2465947534082318E-002

           5 0
 s           3   1.0000000000000000     
   3.3702276975336001       0.27359110588908298     
  0.61389118221497996       0.26460540653860526     
  0.16614291148415999        8.2465947534082318E-002

[MO]
Sym=     1a
Ene=  -0.71186762455992925     
Spin= Alpha
Occup=     2.00000000
           1 -0.37601200511251176     
           2  0.21300646823233796     
           3  -5.4272932110592038E-002
           4  0.16068888672903422     
           5 -0.25911927806707591     
           6  -4.7865511181522285E-003
           7  0.16694572047526621     
           8  -1.2520092865535900E-002
           9 -0.37601201579513233     
          10 -0.20887981827803276     
          11  -8.9661027146142769E-002
          12 -0.14989450055093045     
          13  -4.6278184117771501E-002
          14  -4.6278004566133915E-002
Sym=     2a
Ene=  -0.61359773997234224     
Spin= Alpha
Occup=     2.00000000
           1  0.39004206648562662     
           2  0.26414116335175586     
           3   4.7860608774259773E-003
           4  -9.1688783395065449E-002
           5   4.9241721934337578E-008
           6  0.17141866704789238     
           7   5.7106194762154413E-003
           8   1.0611276612183290E-002
           9 -0.39004250167614796     
          10  0.26437404939741627     
          11  -3.3392181177491929E-003
          12  -9.1079402815734498E-002
          13  0.26737004478989196     
          14 -0.26737011560407692     
Sym=     3a
Ene=  -0.58924728929229830     
Spin= Alpha
Occup=     2.00000000
           1 -0.22271757157114372     
           2  -7.4408686740391139E-002
           3  0.40992648911324847     
           4   2.3412423434939222E-002
           5  0.39021609779633010     
           6   8.3754000187096661E-004
           7  -2.9219606140874894E-002
           8   2.1913182500576099E-003
           9 -0.22271709619016436     
          10   5.1031374946051020E-002
          11  0.40542603843432801     
          12  -8.4559342952810701E-002
          13 -0.22160359148173636     
          14 -0.22160367652959481     
Sym=     4a
Ene=  -0.54559656979490012     
Spin= Alpha
Occup=     2.00000000
           1  0.34181987720117063     
           2 -0.15196889943680270     
           3  0.14311297840614889     
           4  0.41152543369547090     
           5  -5.1312042319622532E-007
           6   6.9643070075993158E-002
           7   2.6879952529848577E-002
           8  0.33179974167745002     
           9 -0.34182009987582074     
          10 -0.14532326628321390     
          11  -8.8609528063785067E-002
          12  0.42890400953267416     
          13 -0.10818254529600653     
          14  0.10818134318798901     
Sym=     5a
Ene=  -0.53182397102365320     
Spin= Alpha
Occup=     2.00000000
           1  0.12749129976403500     
           2  0.46580303373480869     
           3  0.22984787955956176     
           4  0.10445943290057494     
           5  0.25255191456069476     
           6  -1.6884119325771905E-003
           7   5.8897321204507080E-002
           8  -4.4162374243498486E-003
           9  0.12748997711159474     
          10 -0.47769199816169083     
          11  0.18479611360599385     
          12 -0.13555398830890358     
          13  0.25266779130146783     
          14  0.25266837016752380     
Sym=     6a
Ene=  -0.46508470914426397     
Spin= Alpha
Occup=     2.00000000
           1  0.11857076627960872     
           2  -3.9902358298051673E-003
           3 -0.46396759997046183     
           4  0.24956864060125511     
           5  -2.6319664271577140E-007
           6 -0.48406197109716792     
           7  -2.2232771672276594E-002
           8 -0.11139503269684645     
           9 -0.11856971042019700     
          10  -3.1485395686070367E-002
          11  0.49498941891972126     
          12  0.17765134713590394     
          13  0.13331253319161560     
          14 -0.13331276621546592     
Sym=     7a
Ene=  -0.41509974891478646     
Spin= Alpha
Occup=     1.99999818
           1 -0.31202338846598787     
           2   1.8089301638653976E-002
           3 -0.12891378984724755     
           4 -0.51092760814290639     
           5  0.38451044669956291     
           6  -9.6161243118732271E-003
           7  0.33537961525827409     
           8  -2.5151561847744048E-002
           9 -0.31202326078387443     
          10  -1.2898336293360364E-002
          11  -5.2149392524706850E-002
          12  0.52450670717275294     
          13  0.17665106405644834     
          14  0.17665070164449354     
Sym=     8a
Ene=  -0.38998579836336839     
Spin= Alpha
Occup=     1.00000182
           1  0.15574234966773154     
           2 -0.13440991197575683     
           3 -0.24440113766663582     
           4  0.35562250130665740     
           5  0.56176240201818051     
           6  -1.5385462877649447E-002
           7  0.53662925527295624     
           8  -4.0244890399173776E-002
           9  0.15574176351428112     
          10  0.14963478135218514     
          11 -0.28661028630585200     
          12 -0.31579945679264826     
          13  -7.0418749673405570E-002
          14  -7.0418213523074633E-002
Sym=     9a
Ene=  -0.28615617846041164     
Spin= Alpha
Occup=     1.00000000
           1 -0.18675073584899923     
           2   7.9517066896554273E-002
           3   8.4634731721457204E-002
           4 -0.20951837312521554     
           5   5.8679050155210372E-008
           6 -0.48021915310927143     
           7   4.7999780005761175E-002
           8  0.82362692977548824     
           9  0.18675122836034511     
          10   8.5104684784548357E-002
          11 -0.11024484875795275     
          12 -0.19490421540026931     
          13  0.19142992335006323     
          14 -0.19143024632953010     
Sym=    10a
Ene=  -0.11933688895703012     
Spin= Alpha
Occup=     0.00000000
           1  0.19941458735153972     
           2 -0.50544671076656356     
           3 -0.47264310978404273     
           4 -0.35366068746020968     
           5   3.3436623905521822E-008
           6  0.44100457485476163     
           7   3.7345521018683929E-002
           8  0.32937766228029858     
           9 -0.19941459296236450     
          10 -0.53003889275082317     
          11  0.38508502442693510     
          12 -0.41798601689828407     
          13  -2.4014301945563126E-002
          14   2.4014227722961509E-002
Sym=    11a
Ene=   -2.4466093977894066E-003
Spin= Alpha
Occup=     0.00000000
           1  0.65911836853271955     
           2  -7.2796817815114684E-002
           3  0.19436468758296840     
           4 -0.42272520631276850     
           5   1.9373504941438850E-007
           6 -0.62680261962526518     
           7  -3.5782840130795086E-002
           8 -0.23749644853180202     
           9 -0.65912137763831635     
          10  -5.9795289378567006E-002
          11 -0.25901983375913240     
          12 -0.38872512264394060     
          13 -0.43060219271979788     
          14  0.43060603260131480     
Sym=    12a
Ene=    8.3469820930065372E-002
Spin= Alpha
Occup=     0.00000000
           1  0.57798715191393157     
           2  0.38510929204107031     
           3  -1.8654667624179895E-002
           4 -0.36681794985170468     
           5 -0.18560326620742251     
           6  -1.0467456560083358E-002
           7  0.36502527773966681     
           8  -2.7376480611308988E-002
           9  0.57798391542804672     
          10 -0.38498707698425355     
          11   1.4305713776782233E-002
          12  0.36714134483369071     
          13 -0.71129310843640858     
          14 -0.71129285560076616     
Sym=    13a
Ene=   0.15450767543315164     
Spin= Alpha
Occup=     0.00000000
           1   4.1447357544932541E-002
           2  0.66289593447980255     
           3 -0.39509375670591318     
           4  -1.6878013989409919E-002
           5   1.3313629328289006E-006
           6  0.26493507252419318     
           7   3.4545092192167795E-002
           8  0.35936585337929089     
           9  -4.1446297225515856E-002
          10  0.63937175019204751     
          11  0.42528382488380179     
          12  -7.8400267995212547E-002
          13 -0.68777923159316345     
          14  0.68777537711726244     
Sym=    14a
Ene=   0.32169450543507644     
Spin= Alpha
Occup=     0.00000000
           1 -0.20069984295756246     
           2  0.37824619141901522     
           3 -0.55043482887382444     
           4   4.7568415096327983E-002
           5  0.76431069877279167     
           6   2.6174546118082308E-002
           7 -0.91295890857540474     
           8   6.8466319430452408E-002
           9 -0.20070054165139095     
          10 -0.34606698496322363     
          11 -0.57202643834765510     
          12   3.6610077344561412E-002
          13 -0.32940400746898529     
          14 -0.32940696949445425     
