 Entering Gaussian System
 *********************************************
 Gaussian 98:
 frequency output generated by the xtb code
 *********************************************
                         Standard orientation:
 --------------------------------------------------------------------
  Center     Atomic     Atomic              Coordinates (Angstroms)
  Number     Number      Type              X           Y           Z
 --------------------------------------------------------------------
    1          6             0       -0.022722    0.001451   -0.000428
    2          6             0        1.257714   -0.080297    0.017218
    3          1             0       -0.560064    0.939403   -0.006535
    4          1             0       -0.674928   -0.860557   -0.010254
 --------------------------------------------------------------------
     1 basis functions        1 primitive gaussians
     1 alpha electrons        1 beta electrons

 Harmonic frequencies (cm**-1), IR intensities (KM/Mole),
 Raman scattering activities (A**4/amu), Raman depolarization ratios,
 reduced masses (AMU), force constants (mDyne/A) and normal coordinates:
                      1                      2                      3
                        a                      a                      a 
 Frequencies --   284.7068               824.8469              1165.9078
 Red. masses --     4.0591                 4.1302                 1.6139
 Frc consts  --     0.0000                 0.0000                 0.0000
 IR Inten    --     0.0892                 0.3169                 0.2690
 Raman Activ --     0.0000                 0.0000                 0.0000
 Depolar     --     0.0000                 0.0000                 0.0000
 Atom AN      X      Y      Z        X      Y      Z        X      Y      Z
   1   6    -0.03  -0.44  -0.00    -0.01  -0.00   0.51     0.17  -0.01   0.00
   2   6     0.02   0.29   0.00     0.00   0.00  -0.16     0.16  -0.01   0.00
   3   1     0.56   0.22   0.01     0.01   0.00  -0.60    -0.60  -0.34  -0.01
   4   1    -0.53   0.29  -0.01     0.01   0.00  -0.60    -0.55   0.42  -0.01
                      4                      5                      6
                        a                      a                      a 
 Frequencies --  1739.4626              3035.1438              3039.8443
 Red. masses --    11.6620                 1.6026                 2.0749
 Frc consts  --     0.0000                 0.0000                 0.0000
 IR Inten    --     0.5246                 0.1351                 0.1087
 Raman Activ --     0.0000                 0.0000                 0.0000
 Depolar     --     0.0000                 0.0000                 0.0000
 Atom AN      X      Y      Z        X      Y      Z        X      Y      Z
   1   6     0.67  -0.04   0.01    -0.23   0.01  -0.00    -0.02  -0.31  -0.00
   2   6    -0.72   0.05  -0.01     0.02  -0.00   0.00    -0.00  -0.01  -0.00
   3   1     0.07  -0.11   0.00     0.32  -0.61   0.00    -0.35   0.58  -0.00
   4   1     0.08   0.10   0.00     0.40   0.56   0.01     0.42   0.52   0.01
