4
 energy: -5.060569380814 gnorm: 0.213924816628 xtb: 6.2.2 (9d81278992624c895f80dd42a50cac0aa55982e2)
C        -0.12165800000000    0.00713900000000    0.30169000000000
C         1.34106300000000   -0.08541200000000   -0.07788500000000
H        -0.55202000000000    0.94311100000000   -0.11003300000000
H        -0.66738500000000   -0.86483800000000   -0.11377200000000
4
 energy: -5.108914544407 gnorm: 0.097742567160 xtb: 6.2.2 (9d81278992624c895f80dd42a50cac0aa55982e2)
C        -0.06107736510658    0.00356348647860    0.16141871892022
C         1.26892318643153   -0.08090530725333   -0.03120573118061
H        -0.54448364488387    0.97017653869659   -0.06318005513461
H        -0.66336217644108   -0.89283471792185   -0.06703293260500
4
 energy: -5.112094971063 gnorm: 0.158354683328 xtb: 6.2.2 (9d81278992624c895f80dd42a50cac0aa55982e2)
C        -0.00277760176345    0.00003071501948    0.07084621813700
C         1.21027527922362   -0.07723328922705    0.00279153839836
H        -0.54575992011348    0.94737742285847   -0.03493944591531
H        -0.66173775734669   -0.87017484865090   -0.03869831062006
4
 energy: -5.117648127387 gnorm: 0.041851714334 xtb: 6.2.2 (9d81278992624c895f80dd42a50cac0aa55982e2)
C        -0.00851282230482    0.00055910070198   -0.00768294354819
C         1.28819304804746   -0.08224615462824    0.02258082056556
H        -0.58073156437604    0.96716618343907   -0.00553321851404
H        -0.69894866136660   -0.88547912951280   -0.00936465850334
4
 energy: -5.119108944768 gnorm: 0.029145998647 xtb: 6.2.2 (9d81278992624c895f80dd42a50cac0aa55982e2)
C        -0.03232425056615    0.00195680542012    0.05116185295869
C         1.25965333418352   -0.08038311231286    0.00231290145882
H        -0.55657413529745    0.93390824672599   -0.02488706380180
H        -0.67075494831992   -0.85548193983324   -0.02858769061570
4
 energy: -5.119953290775 gnorm: 0.006223783972 xtb: 6.2.2 (9d81278992624c895f80dd42a50cac0aa55982e2)
C        -0.02079720178824    0.00129036306288    0.01775108277156
C         1.25928646649758   -0.08038204401298    0.01310915747189
H        -0.56170014050119    0.94135737931103   -0.01356509084438
H        -0.67678912420815   -0.86226569836093   -0.01729514939907
4
 energy: -5.120036643041 gnorm: 0.003688412081 xtb: 6.2.2 (9d81278992624c895f80dd42a50cac0aa55982e2)
C        -0.02067899330933    0.00130801484626    0.00556894668922
C         1.25904219812573   -0.08037280767256    0.01617769917407
H        -0.56171879712204    0.94006384983138   -0.00901094142260
H        -0.67664440769437   -0.86099905700509   -0.01273570444070
4
 energy: -5.120053630811 gnorm: 0.000411658917 xtb: 6.2.2 (9d81278992624c895f80dd42a50cac0aa55982e2)
C        -0.02215865533488    0.00141426017641   -0.00015046521327
C         1.25809807443532   -0.08031484099737    0.01727841256382
H        -0.56056188069356    0.93912020224546   -0.00670337420301
H        -0.67537753840688   -0.86021962142450   -0.01042457314754
4
 energy: -5.120053800783 gnorm: 0.000162553162 xtb: 6.2.2 (9d81278992624c895f80dd42a50cac0aa55982e2)
C        -0.02272186466349    0.00145077154287   -0.00042809334939
C         1.25771402046290   -0.08029021634496    0.01722176362594
H        -0.56006844543261    0.93939997498390   -0.00653559410257
H        -0.67492371036679   -0.86056053018181   -0.01025807617397
