 Entering Gaussian System
 *********************************************
 Gaussian 98:
 frequency output generated by the xtb code
 *********************************************
                         Standard orientation:
 --------------------------------------------------------------------
  Center     Atomic     Atomic              Coordinates (Angstroms)
  Number     Number      Type              X           Y           Z
 --------------------------------------------------------------------
    1          8             0        0.028646    0.300114   -0.000001
    2          8             0       -1.145413   -0.166673    0.000004
    3          7             0        1.116767   -0.133441   -0.000004
 --------------------------------------------------------------------
     1 basis functions        1 primitive gaussians
     1 alpha electrons        1 beta electrons

 Harmonic frequencies (cm**-1), IR intensities (KM/Mole),
 Raman scattering activities (A**4/amu), Raman depolarization ratios,
 reduced masses (AMU), force constants (mDyne/A) and normal coordinates:
                      1                      2                      3
                        a                      a                      a 
 Frequencies --   621.2562              1129.8378              1660.2454
 Red. masses --    15.3845                15.7336                15.0571
 Frc consts  --     0.0000                 0.0000                 0.0000
 IR Inten    --     0.6257                 1.4176                 1.7319
 Raman Activ --     0.0000                 0.0000                 0.0000
 Depolar     --     0.0000                 0.0000                 0.0000
 Atom AN      X      Y      Z        X      Y      Z        X      Y      Z
   1   8    -0.01   0.66  -0.00    -0.38  -0.41   0.00     0.69  -0.20  -0.00
   2   8     0.39  -0.31  -0.00     0.69   0.28  -0.00    -0.09  -0.04   0.00
   3   7    -0.41  -0.38   0.00    -0.34   0.14   0.00    -0.64   0.26   0.00
