[Molden Format]
[Title]
[Atoms] AU
O      1     8  0.54132397910218E-01  0.56713283306811E+00 -0.11787813675962E-05
O      2     8 -0.21645163667473E+01 -0.31496643706795E+00  0.81053216223695E-05
N      3     7  0.21103839688371E+01 -0.25216639600016E+00 -0.69265402547734E-05
[GTO]
           1 0
 s           4   1.0000000000000000     
   69.137961906196551      -0.20478756370077797     
   11.906129132707308      -0.24997023136827334     
  0.95670827744340703       0.40025880240639616     
  0.36462520496073686       0.15952206667693555     
 p           4   1.0000000000000000     
   8.2124193257781641        1.1321556799186829     
   2.1293576997098116        1.0476840782254817     
  0.75066448202360914       0.54956508217158984     
  0.29885246543283073        8.2908486592766617E-002

           2 0
 s           4   1.0000000000000000     
   69.137961906196551      -0.20478756370077797     
   11.906129132707308      -0.24997023136827334     
  0.95670827744340703       0.40025880240639616     
  0.36462520496073686       0.15952206667693555     
 p           4   1.0000000000000000     
   8.2124193257781641        1.1321556799186829     
   2.1293576997098116        1.0476840782254817     
  0.75066448202360914       0.54956508217158984     
  0.29885246543283073        8.2908486592766617E-002

           3 0
 s           4   1.0000000000000000     
   63.594024466941008      -0.19234388414721629     
   10.951417231523665      -0.23478107924953728     
  0.87999310257376984       0.37593753901700888     
  0.33538715296521110       0.14982889271862770     
 p           4   1.0000000000000000     
   7.2965040481495080       0.97658666315667420     
   1.8918745450712575       0.90372226730345739     
  0.66694432110824120       0.47404958461536373     
  0.26552202674130870        7.1516067715011844E-002

[MO]
Sym=     1a
Ene=  -0.87475588360560397     
Spin= Alpha
Occup=     2.00000000
           1  0.69139877185708276     
           2  0.17419468084692252     
           3 -0.10548116475085709     
           4  -3.4370634514939843E-007
           5   5.9413627438538757E-002
           6  0.11847736498790067     
           7   1.8115448434001456E-002
           8  -4.4401105776057369E-007
           9  0.25420056397411644     
          10 -0.22045914388969431     
          11   7.7889081173338690E-002
          12   6.6117649046257567E-007
Sym=     2a
Ene=  -0.82397768542072636     
Spin= Alpha
Occup=     2.00000000
           1 -0.19130797641996092     
           2  0.54249726236130469     
           3   5.6536996355431093E-002
           4  -1.9628546810715553E-006
           5 -0.43049280586014654     
           6 -0.21704865518977723     
           7 -0.11692733673867818     
           8   1.0240480512849093E-006
           9  0.23363972445510861     
          10  -7.8032465907380902E-002
          11   9.2038602763329591E-002
          12   1.2248373758580139E-007
Sym=     3a
Ene=  -0.73386019369150046     
Spin= Alpha
Occup=     2.00000000
           1  0.35563615285182465     
           2  -6.4908796017414824E-002
           3  0.71913983776468771     
           4  -6.1007872224439716E-007
           5 -0.23324147101600767     
           6  -5.9216588106253902E-002
           7  0.24152340726118735     
           8  -3.7099393222497698E-008
           9 -0.20009458089950202     
          10  0.10624097832729143     
          11  0.22924999716054911     
          12  -6.0228343888217814E-007
Sym=     4a
Ene=  -0.72191877571504948     
Spin= Alpha
Occup=     2.00000000
           1  -2.0220057286971279E-007
           2   2.6781499643926809E-006
           3   9.4633918047076162E-007
           4  0.78054200497709247     
           5   2.4160789890134704E-008
           6   1.0850666780917443E-006
           7   3.8046261436418733E-007
           8  0.29168652360634995     
           9   2.0804987360191433E-008
          10   1.1543230250898239E-006
          11   4.3770602636927370E-007
          12  0.34739154830314800     
Sym=     5a
Ene=  -0.65856426734122542     
Spin= Alpha
Occup=     2.00000000
           1   9.9908330473439874E-002
           2 -0.20047100121494232     
           3 -0.22501305288189768     
           4   9.4788805463561621E-007
           5 -0.80630204704601793     
           6  0.46204199435145488     
           7   9.4708189768643647E-002
           8  -1.6840572376038399E-006
           9 -0.16068213706228768     
          10  -5.8851881443066828E-002
          11 -0.16996776700264329     
          12   4.1275267742302923E-007
Sym=     6a
Ene=  -0.55847378752950483     
Spin= Alpha
Occup=     2.00000000
           1  -9.1620694893431803E-002
           2 -0.15768433524627593     
           3   6.3291484123720723E-002
           4   4.7699322317871265E-007
           5  -5.1384137542109160E-002
           6   4.4942900139774582E-002
           7  0.38557898828511189     
           8  -7.0164981338801473E-007
           9  0.76671412183171517     
          10  0.44911649435495499     
          11 -0.21667496652909085     
          12  -1.2910981465931785E-006
Sym=     7a
Ene=  -0.51099209856082750     
Spin= Alpha
Occup=     2.00000000
           1   3.5183350851031569E-008
           2  -2.2083440543382647E-007
           3  -1.1250157844185670E-007
           4  -6.6561352420862391E-002
           5   1.3008900992070012E-007
           6   2.8633688867007838E-006
           7   1.3056482321034402E-006
           8  0.83337836739994109     
           9  -8.6318263794095949E-008
          10  -1.9853883337483142E-006
          11  -9.0666701939617969E-007
          12 -0.56031345144915090     
Sym=     8a
Ene=  -0.49551142959088867     
Spin= Alpha
Occup=     2.00000000
           1  -2.7110163768674461E-002
           2   6.9927702119067764E-002
           3 -0.14107014131701270     
           4  -3.2487601705634840E-008
           5  -5.4567116729531155E-003
           6 -0.42782630084598361     
           7  0.70404584304786688     
           8   3.3918949311917348E-007
           9 -0.16996461108181959     
          10 -0.41943748121708990     
          11 -0.35814444819121377     
          12   2.0595510597134717E-006
Sym=     9a
Ene=  -0.41118463512756137     
Spin= Alpha
Occup=     1.00000000
           1 -0.30671932401008434     
           2   4.8087624267558256E-002
           3 -0.45510646203571226     
           4   6.4883987915020167E-007
           5   4.8753018309420491E-002
           6  0.14223848492010641     
           7  0.48174238279011722     
           8  -1.3209786371406668E-006
           9  -3.7142114860581457E-002
          10   8.6880090327621062E-002
          11  0.81755597553472903     
          12  -1.7400500390495453E-006
Sym=    10a
Ene=  -0.36426139400448654     
Spin= Alpha
Occup=     0.00000000
           1   7.8135820942051280E-010
           2   2.3628597685922904E-006
           3   1.1654467381546445E-006
           4  0.67594736341593697     
           5  -4.5801905756192484E-008
           6  -1.7347535949355289E-006
           7  -8.6644652717120133E-007
           8 -0.49519292639254475     
           9  -3.6311732125797848E-008
          10  -2.7484293149767146E-006
          11  -1.3837313018241268E-006
          12 -0.78142136924490013     
Sym=    11a
Ene=   -4.9365393120859746E-002
Spin= Alpha
Occup=     0.00000000
           1  0.77721937365244487     
           2 -0.33797307580060898     
           3 -0.55405315900849617     
           4   2.1259261920905508E-006
           5 -0.44960672391193446     
           6 -0.80449424847174134     
           7 -0.20148594426066718     
           8   3.1386192465822293E-006
           9 -0.20809804167451154     
          10  0.51840493785396924     
          11   9.3320269156240976E-002
          12  -1.9607439264340417E-006
Sym=    12a
Ene=   0.44989851680949050     
Spin= Alpha
Occup=     0.00000000
           1  0.41547987475001430     
           2   1.0837623829690677     
           3 -0.18319450032515541     
           4  -3.4604744849775606E-006
           5  0.32347052978370239     
           6  0.34436449754251552     
           7  0.25635160436871623     
           8  -1.6424288870539717E-006
           9 -0.71962818708948695     
          10  0.82371393681268490     
          11 -0.39795520243549254     
          12  -2.1814657934107971E-006
