      -----------------------------------------------------------      
     |                   =====================                   |     
     |                           x T B                           |     
     |                   =====================                   |     
     |                         S. Grimme                         |     
     |          Mulliken Center for Theoretical Chemistry        |     
     |                    University of Bonn                     |     
      -----------------------------------------------------------      

   * xtb version 6.2.2 (9d81278992624c895f80dd42a50cac0aa55982e2) compiled by '@Darwin' on 04/03/2020

   xtb is free software: you can redistribute it and/or modify it under
   the terms of the GNU Lesser General Public License as published by
   the Free Software Foundation, either version 3 of the License, or
   (at your option) any later version.
   
   xtb is distributed in the hope that it will be useful,
   but WITHOUT ANY WARRANTY; without even the implied warranty of
   MERCHANTABILITY or FITNESS FOR A PARTICULAR PURPOSE.  See the
   GNU Lesser General Public License for more details.
   
   Cite this work as:
   * S. Grimme, C. Bannwarth, P. Shushkov, J. Chem. Theory Comput., 2017,
     13, 1989-2009. DOI: 10.1021/acs.jctc.7b00118
   * C. Bannwarth, S. Ehlert and S. Grimme., J. Chem. Theory Comput., 2019,
     15, 1652-1671. DOI: 10.1021/acs.jctc.8b01176
   * P. Pracht, E. Caldeweyher, S. Ehlert, S. Grimme, ChemRxiv, 2019, preprint.
     DOI: 10.26434/chemrxiv.8326202.v1
   
   for DFT-D4:
   * E. Caldeweyher, C. Bannwarth and S. Grimme, J. Chem. Phys., 2017,
     147, 034112. DOI: 10.1063/1.4993215
   * E. Caldeweyher, S. Ehlert, A. Hansen, H. Neugebauer, S. Spicher,
     C. Bannwarth and S. Grimme, J. Chem. Phys., 2019, 150, 154122.
     DOI: 10.1063/1.5090222
   
   for sTDA-xTB:
   * S. Grimme and C. Bannwarth, J. Chem. Phys., 2016, 145, 054103.
     DOI: 10.1063/1.4959605
   
   in the mass-spec context:
   * V. Asgeirsson, C. Bauer and S. Grimme, Chem. Sci., 2017, 8, 4879.
     DOI: 10.1039/c7sc00601b
   
   for metadynamics refer to:
   * S. Grimme, J. Chem. Theory Comput., 2019, 155, 2847-2862
     DOI: 10.1021/acs.jctc.9b00143
   
   with help from (in alphabetical order)
   C. Bannwarth, F. Bohle, G. Brandenburg, E. Caldeweyher, M. Checinski,
   S. Dohm, S. Ehlert, S. Ehrlich, F. März, H. Neugebauer, J. Pisarek,
   P. Pracht, P. Shushkov, and S. Spicher.
   
 * started run on 2020/05/12 at 11:45:16.621     

           -------------------------------------------------
          |                Calculation Setup                |
           -------------------------------------------------

          program call               : xtb --input N1O2_1_S_1.input N1O2_1_S_1.xyz --ohess --molden --namespace N1O2_1_S_1 output.out
          calculation namespace      : N1O2_1_S_1
          coordinate file            : N1O2_1_S_1.xyz
          number of atoms            :                     3
          number of electrons        :                    17
          charge                     :                     0
          spin                       :                   0.5
          first test random number   :      0.28365171204060

   ID    Z sym.   atoms
    1    8 O      1, 2
    2    7 N      3

           -------------------------------------------------
          |                 G F N 2 - x T B                 |
           -------------------------------------------------

        Reference                      10.1021/acs.jctc.8b01176
      * Hamiltonian:
        H0-scaling (s, p, d)           1.850000    2.230000    2.230000
        zeta-weighting                 0.500000
      * Dispersion:
        s8                             2.700000
        a1                             0.520000
        a2                             5.000000
        s9                             5.000000
      * Repulsion:
        kExp                           1.500000    1.000000
        rExp                           1.000000
      * Coulomb:
        alpha                          2.000000
        third order                    shell-resolved
        anisotropic                    true
        a3                             3.000000
        a5                             4.000000
        cn-shift                       1.200000
        cn-exp                         4.000000
        max-rad                        5.000000


          ...................................................
          :                      SETUP                      :
          :.................................................:
          :  # basis functions                  12          :
          :  # atomic orbitals                  12          :
          :  # shells                            6          :
          :  # electrons                        17          :
          :  max. iterations                   250          :
          :  Hamiltonian                  GFN2-xTB          :
          :  restarted?                      false          :
          :  GBSA solvation                  false          :
          :  PC potential                    false          :
          :  electronic temp.          300.0000000     K    :
          :  accuracy                    1.0000000          :
          :  -> integral cutoff          0.2500000E+02      :
          :  -> integral neglect         0.1000000E-07      :
          :  -> SCF convergence          0.1000000E-05 Eh   :
          :  -> wf. convergence          0.1000000E-03 e    :
          :  Broyden damping             0.4000000          :
          ...................................................

 iter      E             dE          RMSdq      gap      omega  full diag
   1    -10.6283760 -0.106284E+02  0.963E+00    1.02       0.0  T
   2    -10.1144961  0.513880E+00  0.127E+01    1.16       1.0  T
   3    -10.6461862 -0.531690E+00  0.725E+00    0.85       1.0  T
   4    -10.7287727 -0.825865E-01  0.219E+00    0.89       1.0  T
   5    -10.7311614 -0.238871E-02  0.197E+00    0.91       1.0  T
   6    -10.7374407 -0.627933E-02  0.114E+00    0.98       1.0  T
   7    -10.7398209 -0.238020E-02  0.183E-01    1.11       1.0  T
   8    -10.7397800  0.409052E-04  0.170E-01    1.10       1.0  T
   9    -10.7398103 -0.302758E-04  0.135E-01    1.08       1.0  T
  10    -10.7398143 -0.402769E-05  0.130E-01    1.08       1.0  T
  11    -10.7398648 -0.504580E-04  0.472E-03    1.09      12.2  T
  12    -10.7398640  0.799404E-06  0.166E-02    1.09       3.5  T
  13    -10.7398648 -0.820985E-06  0.108E-03    1.09      53.4  T
  14    -10.7398648  0.901101E-09  0.107E-03    1.09      53.8  T
  15    -10.7398648 -0.341702E-08  0.117E-04    1.09     492.2  T
  16    -10.7398648 -0.247429E-10  0.571E-05    1.09    1011.9  T

   *** convergence criteria satisfied after 16 iterations ***

         #    Occupation            Energy/Eh            Energy/eV
      -------------------------------------------------------------
         1        2.0000           -0.8494571             -23.1149
       ...           ...                  ...                  ...
         3        2.0000           -0.7305548             -19.8794
         4        2.0000           -0.6854609             -18.6523
         5        2.0000           -0.6535925             -17.7852
         6        2.0000           -0.5737781             -15.6133
         7        2.0000           -0.5088262             -13.8459
         8        2.0000           -0.5019363             -13.6584
         9        1.0000           -0.4673851             -12.7182 (HOMO)
        10                         -0.4274752             -11.6322 (LUMO)
        11                         -0.0923480              -2.5129
        12                         -0.0473879              -1.2895
      -------------------------------------------------------------
                  HL-Gap            0.0399098 Eh            1.0860 eV
             Fermi-level           -0.4660452 Eh          -12.6817 eV

 SCC (total)                   0 d,  0 h,  0 min,  0.002 sec
 SCC setup                      ...        0 min,  0.000 sec (  3.619%)
 Dispersion                     ...        0 min,  0.000 sec (  0.451%)
 integral evaluation            ...        0 min,  0.001 sec ( 25.667%)
 zeroth order Hamiltonian       ...        0 min,  0.000 sec (  0.539%)
 iterations                     ...        0 min,  0.001 sec ( 45.165%)
 molecular gradient             ...        0 min,  0.001 sec ( 21.871%)
 printout                       ...        0 min,  0.000 sec (  2.177%)

         :::::::::::::::::::::::::::::::::::::::::::::::::::::
         ::                     SUMMARY                     ::
         :::::::::::::::::::::::::::::::::::::::::::::::::::::
         :: total energy             -10.732281476928 Eh    ::
         :: gradient norm              0.160978908291 Eh/a0 ::
         :: HOMO-LUMO gap              1.086001281212 eV    ::
         ::.................................................::
         :: SCC energy               -10.739864823757 Eh    ::
         :: -> isotropic ES            0.008731966405 Eh    ::
         :: -> anisotropic ES          0.007122347915 Eh    ::
         :: -> anisotropic XC         -0.001889154373 Eh    ::
         :: -> dispersion             -0.000631242109 Eh    ::
         :: repulsion energy           0.007583346141 Eh    ::
         :: add. restraining           0.000000000000 Eh    ::
         :::::::::::::::::::::::::::::::::::::::::::::::::::::

      ----------------------------------------------------------- 
     |                   =====================                   |
     |                        A N C O P T                        |
     |                   =====================                   |
     |               Approximate Normal Coordinate               |
     |                Rational Function Optimizer                |
      ----------------------------------------------------------- 

          ...................................................
          :                      SETUP                      :
          :.................................................:
          :   optimization level            normal          :
          :   max. optcycles                   200          :
          :   ANC micro-cycles                  20          :
          :   degrees of freedom                 3          :
          :.................................................:
          :   RF solver                   davidson          :
          :   write xtbopt.log                true          :
          :   linear?                        false          :
          :   energy convergence         0.5000000E-05 Eh   :
          :   grad. convergence          0.1000000E-02 Eh/α :
          :   maximium RF displ.         1.0000000          :
          :   Hlow (freq-cutoff)         0.1000000E-01      :
          :   Hmax (freq-cutoff)         5.0000000          :
          :   S6 in model hess.         20.0000000          :
          ...................................................

generating ANC from model Hessian ...
Using Lindh-Hessian (1995)
 Shifting diagonal of input Hessian by    0.0000000000000000     
 Lowest  eigenvalues of input Hessian
   -0.000000   -0.000000   -0.000000   -0.000000    0.000000    0.000000
    0.264101    1.271658    1.545687
 Highest eigenvalues
   -0.000000    0.000000    0.000000    0.264101    1.271658    1.545687


........................................................................
.............................. CYCLE    1 ..............................
........................................................................
   1    -10.7398648 -0.107399E+02  0.178E-05    1.09       0.0  T
   2    -10.7398648  0.480682E-11  0.442E-05    1.09    1305.6  T
   3    -10.7398648 -0.568257E-11  0.426E-06    1.09   13564.9  T
     SCC iter.                  ...        0 min,  0.000 sec
     gradient                   ...        0 min,  0.001 sec
 * total energy  :   -10.7322815 Eh     change        0.4106049E-10 Eh
   gradient norm :     0.1609795 Eh/α   predicted     0.0000000E+00 (-100.00%)
   displ. norm   :     0.1332938 α      lambda       -0.2040811E-01
   maximum displ.:     0.1194034 α      in ANC's #2, #1, #3, ...

........................................................................
.............................. CYCLE    2 ..............................
........................................................................
   1    -10.7565091 -0.107565E+02  0.199E+00    1.60       0.0  T
   2    -10.7211502  0.353589E-01  0.369E+00    1.73       1.0  T
   3    -10.7607523 -0.396021E-01  0.104E+00    1.60       1.0  T
   4    -10.7627073 -0.195503E-02  0.297E-01    1.65       1.0  T
   5    -10.7626873  0.199775E-04  0.133E-01    1.67       1.0  T
   6    -10.7627151 -0.277775E-04  0.304E-02    1.68       1.9  T
   7    -10.7627158 -0.729696E-06  0.153E-02    1.68       3.8  T
   8    -10.7627161 -0.254989E-06  0.723E-03    1.68       8.0  T
   9    -10.7627162 -0.839283E-07  0.170E-03    1.68      34.0  T
  10    -10.7627162 -0.493186E-08  0.670E-04    1.68      86.2  T
  11    -10.7627162 -0.903043E-09  0.967E-05    1.68     597.1  T
     SCC iter.                  ...        0 min,  0.001 sec
     gradient                   ...        0 min,  0.001 sec
 * total energy  :   -10.7489774 Eh     change       -0.1669592E-01 Eh
   gradient norm :     0.1000892 Eh/α   predicted    -0.1038535E-01 ( -37.80%)
   displ. norm   :     0.2651270 α      lambda       -0.2321347E-01
   maximum displ.:     0.1921937 α      in ANC's #2, #1, #3, ...

........................................................................
.............................. CYCLE    3 ..............................
........................................................................
   1    -10.7979906 -0.107980E+02  0.309E+00    2.17       0.0  T
   2    -10.7957826  0.220794E-02  0.243E+00    2.05       1.0  T
   3    -10.8016340 -0.585134E-02  0.154E+00    1.99       1.0  T
   4    -10.8052031 -0.356912E-02  0.364E-01    1.95       1.0  T
   5    -10.8052102 -0.711860E-05  0.138E-01    1.93       1.0  T
   6    -10.8052212 -0.110043E-04  0.478E-02    1.93       1.2  T
   7    -10.8052241 -0.285666E-05  0.175E-02    1.93       3.3  T
   8    -10.8052246 -0.532541E-06  0.884E-03    1.93       6.5  T
   9    -10.8052248 -0.179818E-06  0.269E-03    1.93      21.4  T
  10    -10.8052248 -0.120102E-07  0.342E-04    1.93     169.0  T
  11    -10.8052248 -0.958877E-11  0.116E-04    1.93     497.3  T
     SCC iter.                  ...        0 min,  0.000 sec
     gradient                   ...        0 min,  0.001 sec
 * total energy  :   -10.7676014 Eh     change       -0.1862404E-01 Eh
   gradient norm :     0.1078472 Eh/α   predicted    -0.1242260E-01 ( -33.30%)
   displ. norm   :     0.3994304 α      lambda       -0.2136720E-01
   maximum displ.:     0.3708147 α      in ANC's #1, #2, #3, ...

........................................................................
.............................. CYCLE    4 ..............................
........................................................................
   1    -10.8160866 -0.108161E+02  0.274E+00    1.31       0.0  T
   2    -10.8164023 -0.315681E-03  0.163E+00    1.25       1.0  T
   3    -10.8163527  0.495864E-04  0.329E-01    1.15       1.0  T
   4    -10.8164847 -0.131981E-03  0.177E-01    1.16       1.0  T
   5    -10.8165341 -0.494191E-04  0.638E-02    1.16       1.0  T
   6    -10.8165347 -0.589731E-06  0.609E-03    1.16       9.5  T
   7    -10.8165347 -0.932926E-08  0.257E-03    1.16      22.5  T
   8    -10.8165347 -0.109029E-07  0.950E-04    1.16      60.8  T
   9    -10.8165347 -0.948543E-09  0.184E-04    1.16     314.2  T
     SCC iter.                  ...        0 min,  0.000 sec
     gradient                   ...        0 min,  0.001 sec
 * total energy  :   -10.7674845 Eh     change        0.1169737E-03 Eh
   gradient norm :     0.1951646 Eh/α   predicted    -0.1238811E-01 (*******%)
   displ. norm   :     0.1286909 α      lambda       -0.2247466E-01
   maximum displ.:     0.0992559 α      in ANC's #2, #3, #1, ...

........................................................................
.............................. CYCLE    5 ..............................
........................................................................
   1    -10.7884976 -0.107885E+02  0.235E+00    1.09       0.0  T
   2    -10.7808448  0.765282E-02  0.311E+00    1.10       1.0  T
   3    -10.8037762 -0.229314E-01  0.759E-01    1.13       1.0  T
   4    -10.8042506 -0.474380E-03  0.233E-01    1.14       1.0  T
   5    -10.8042886 -0.380465E-04  0.495E-02    1.16       1.2  T
   6    -10.8042885  0.111147E-06  0.360E-02    1.16       1.6  T
   7    -10.8042918 -0.325465E-05  0.121E-02    1.16       4.8  T
   8    -10.8042920 -0.245397E-06  0.326E-03    1.16      17.7  T
   9    -10.8042920 -0.217064E-07  0.111E-03    1.16      52.0  T
  10    -10.8042920 -0.178769E-08  0.170E-04    1.16     339.7  T
  11    -10.8042920 -0.752536E-10  0.404E-05    1.16    1429.7  T
     SCC iter.                  ...        0 min,  0.000 sec
     gradient                   ...        0 min,  0.001 sec
 * total energy  :   -10.7775842 Eh     change       -0.1009977E-01 Eh
   gradient norm :     0.0403147 Eh/α   predicted    -0.1142343E-01 (  13.11%)
   displ. norm   :     0.0908750 α      lambda       -0.2462665E-02
   maximum displ.:     0.0896690 α      in ANC's #1, #3, #2, ...

........................................................................
.............................. CYCLE    6 ..............................
........................................................................
   1    -10.8073556 -0.108074E+02  0.710E-01    1.33       0.0  T
   2    -10.8073806 -0.250869E-04  0.508E-01    1.32       1.0  T
   3    -10.8076553 -0.274662E-03  0.305E-01    1.33       1.0  T
   4    -10.8077813 -0.126010E-03  0.106E-01    1.33       1.0  T
   5    -10.8077904 -0.906826E-05  0.154E-02    1.33       3.8  T
   6    -10.8077904 -0.533885E-07  0.528E-03    1.33      10.9  T
   7    -10.8077905 -0.543375E-07  0.207E-03    1.33      28.0  T
   8    -10.8077905 -0.434622E-08  0.401E-04    1.33     143.8  T
   9    -10.8077905 -0.747633E-10  0.124E-04    1.33     464.5  T
     SCC iter.                  ...        0 min,  0.001 sec
     gradient                   ...        0 min,  0.001 sec
 * total energy  :   -10.7788513 Eh     change       -0.1267045E-02 Eh
   gradient norm :     0.0153054 Eh/α   predicted    -0.1241502E-02 (  -2.02%)
   displ. norm   :     0.0200601 α      lambda       -0.2724258E-03
   maximum displ.:     0.0157517 α      in ANC's #2, #1, #3, ...

........................................................................
.............................. CYCLE    7 ..............................
........................................................................
   1    -10.8089359 -0.108089E+02  0.228E-01    1.31       0.0  T
   2    -10.8088969  0.389629E-04  0.241E-01    1.30       1.0  T
   3    -10.8090199 -0.123004E-03  0.818E-02    1.31       1.0  T
   4    -10.8090207 -0.757789E-06  0.137E-02    1.30       4.2  T
   5    -10.8090208 -0.912322E-07  0.413E-03    1.30      14.0  T
   6    -10.8090208 -0.255974E-08  0.508E-04    1.30     113.6  T
   7    -10.8090208 -0.116021E-09  0.247E-04    1.30     233.7  T
     SCC iter.                  ...        0 min,  0.001 sec
     gradient                   ...        0 min,  0.001 sec
 * total energy  :   -10.7790334 Eh     change       -0.1821400E-03 Eh
   gradient norm :     0.0051021 Eh/α   predicted    -0.1362659E-03 ( -25.19%)
   displ. norm   :     0.0118012 α      lambda       -0.5129924E-04
   maximum displ.:     0.0077695 α      in ANC's #2, #1, #3, ...

........................................................................
.............................. CYCLE    8 ..............................
........................................................................
   1    -10.8093298 -0.108093E+02  0.139E-01    1.28       0.0  T
   2    -10.8093129  0.169364E-04  0.155E-01    1.28       1.0  T
   3    -10.8093650 -0.520838E-04  0.484E-02    1.28       1.2  T
   4    -10.8093651 -0.121787E-06  0.490E-03    1.28      11.8  T
   5    -10.8093651 -0.297455E-08  0.224E-03    1.28      25.8  T
   6    -10.8093651 -0.792676E-09  0.413E-04    1.28     139.6  T
   7    -10.8093651 -0.181116E-09  0.176E-04    1.28     327.3  T
     SCC iter.                  ...        0 min,  0.000 sec
     gradient                   ...        0 min,  0.001 sec
 * total energy  :   -10.7790596 Eh     change       -0.2615392E-04 Eh
   gradient norm :     0.0004790 Eh/α   predicted    -0.2565154E-04 (  -1.92%)
   displ. norm   :     0.0007655 α      lambda       -0.1630457E-06
   maximum displ.:     0.0006822 α      in ANC's #1, #3, #2, ...

........................................................................
.............................. CYCLE    9 ..............................
........................................................................
   1    -10.8093085 -0.108093E+02  0.981E-03    1.28       0.0  T
   2    -10.8093084  0.878560E-07  0.115E-02    1.28       5.0  T
   3    -10.8093087 -0.299934E-06  0.289E-03    1.28      20.0  T
   4    -10.8093087 -0.597105E-09  0.820E-04    1.28      70.4  T
   5    -10.8093087 -0.202876E-09  0.219E-04    1.28     263.6  T
     SCC iter.                  ...        0 min,  0.000 sec
     gradient                   ...        0 min,  0.001 sec
 * total energy  :   -10.7790597 Eh     change       -0.8470269E-07 Eh
   gradient norm :     0.0001116 Eh/α   predicted    -0.7977488E-07 (  -5.82%)
   displ. norm   :     0.0002753 α      lambda       -0.9973183E-08
   maximum displ.:     0.0002619 α      in ANC's #1, #3, #2, ...

   *** GEOMETRY OPTIMIZATION CONVERGED AFTER 9 ITERATIONS ***

------------------------------------------------------------------------
 total energy gain   :        -0.0467782 Eh      -29.3537 kcal/mol
 total RMSD          :         0.3527825 a0        0.1867 Å
 total power (kW/mol):       -13.6462321 (step)-7841.2058 (real)
------------------------------------------------------------------------

 ANCopt (total)                0 d,  0 h,  0 min,  0.016 sec
 optimizer setup                ...        0 min,  0.000 sec (  0.446%)
 model hessian                  ...        0 min,  0.000 sec (  0.275%)
 ANC generation                 ...        0 min,  0.000 sec (  0.254%)
 coordinate transformation      ...        0 min,  0.000 sec (  0.141%)
 single point calculation       ...        0 min,  0.015 sec ( 94.485%)
 optimization log               ...        0 min,  0.000 sec (  1.132%)
 hessian update                 ...        0 min,  0.000 sec (  0.135%)
 rational function              ...        0 min,  0.000 sec (  1.073%)

================
 final structure:
================
3
 xtb: 6.2.2 (9d81278992624c895f80dd42a50cac0aa55982e2)
O         0.02864406261279    0.30011394864355    0.00000000000000
O        -1.14541196747458   -0.16667907352516    0.00000000000000
N         1.11676790486179   -0.13343487511839    0.00000000000000

 Bond Distances (Angstroems)
 ---------------------------
O1-O2=1.2634         O1-N3=1.1713         O2-O1=1.2634         N3-O1=1.1713         
 O  N  Rav=1.1713 sigma=0.0000  Rmin=1.1713  Rmax=1.1713     1
 O  O  Rav=1.2634 sigma=0.0000  Rmin=1.2634  Rmax=1.2634     1

 selected bond angles (degree)
 --------------------
N3-O1-O2=136.59                

 selected dihedral angles (degree)
 ---------------------------------

           -------------------------------------------------
          |                Final Singlepoint                |
           -------------------------------------------------

          ...................................................
          :                      SETUP                      :
          :.................................................:
          :  # basis functions                  12          :
          :  # atomic orbitals                  12          :
          :  # shells                            6          :
          :  # electrons                        17          :
          :  max. iterations                   250          :
          :  Hamiltonian                  GFN2-xTB          :
          :  restarted?                      false          :
          :  GBSA solvation                  false          :
          :  PC potential                    false          :
          :  electronic temp.          300.0000000     K    :
          :  accuracy                    1.0000000          :
          :  -> integral cutoff          0.2500000E+02      :
          :  -> integral neglect         0.1000000E-07      :
          :  -> SCF convergence          0.1000000E-05 Eh   :
          :  -> wf. convergence          0.1000000E-03 e    :
          :  Broyden damping             0.4000000          :
          ...................................................

 iter      E             dE          RMSdq      gap      omega  full diag
   1    -10.8093087 -0.108093E+02  0.800E-05    1.28       0.0  T
   2    -10.8093087  0.235012E-11  0.777E-05    1.28     743.0  T
   3    -10.8093087 -0.123777E-10  0.394E-05    1.28    1466.5  T

   *** convergence criteria satisfied after 3 iterations ***

         #    Occupation            Energy/Eh            Energy/eV
      -------------------------------------------------------------
         1        2.0000           -0.8747556             -23.8033
       ...           ...                  ...                  ...
         3        2.0000           -0.7338601             -19.9694
         4        2.0000           -0.7219187             -19.6444
         5        2.0000           -0.6585647             -17.9205
         6        2.0000           -0.5584737             -15.1968
         7        2.0000           -0.5109922             -13.9048
         8        2.0000           -0.4955115             -13.4836
         9        1.0000           -0.4111847             -11.1889 (HOMO)
        10                         -0.3642614              -9.9121 (LUMO)
        11                         -0.0493654              -1.3433
        12                          0.4498984              12.2424
      -------------------------------------------------------------
                  HL-Gap            0.0469232 Eh            1.2768 eV
             Fermi-level           -0.4205356 Eh          -11.4434 eV

 SCC (total)                   0 d,  0 h,  0 min,  0.001 sec
 SCC setup                      ...        0 min,  0.000 sec (  5.338%)
 Dispersion                     ...        0 min,  0.000 sec (  0.478%)
 integral evaluation            ...        0 min,  0.001 sec ( 41.878%)
 zeroth order Hamiltonian       ...        0 min,  0.000 sec (  0.478%)
 iterations                     ...        0 min,  0.000 sec ( 12.438%)
 molecular gradient             ...        0 min,  0.001 sec ( 35.585%)
 printout                       ...        0 min,  0.000 sec (  3.262%)

         :::::::::::::::::::::::::::::::::::::::::::::::::::::
         ::                     SUMMARY                     ::
         :::::::::::::::::::::::::::::::::::::::::::::::::::::
         :: total energy             -10.779059654653 Eh    ::
         :: gradient norm              0.000111390296 Eh/a0 ::
         :: HOMO-LUMO gap              1.276846286408 eV    ::
         ::.................................................::
         :: SCC energy               -10.809308703037 Eh    ::
         :: -> isotropic ES            0.012736435308 Eh    ::
         :: -> anisotropic ES          0.010841652693 Eh    ::
         :: -> anisotropic XC         -0.000386043227 Eh    ::
         :: -> dispersion             -0.000633910655 Eh    ::
         :: repulsion energy           0.030249049346 Eh    ::
         :: add. restraining           0.000000000000 Eh    ::
         :::::::::::::::::::::::::::::::::::::::::::::::::::::

           ------------------------------------------------- 
          |                Numerical Hessian                |
           ------------------------------------------------- 
step length          :   0.00500
SCC accuracy         :   0.30000
Hessian scale factor :   1.00000
frozen atoms in %    :   0.00000    0
RMS gradient         :   0.00011
estimated CPU  time      0.00 min
estimated wall time      0.00 min

writing file <hessian>.

 projected vibrational frequencies (cm-1)
eigval :       -0.00    -0.00    -0.00     0.00     0.00     0.00
eigval :      621.26  1129.84  1660.25
           -------------------------------------------------
          |                Property Printout                |
           -------------------------------------------------

    * Orbital Energies and Occupations

         #    Occupation            Energy/Eh            Energy/eV
      -------------------------------------------------------------
         1        2.0000           -0.8747559             -23.8033
         2        2.0000           -0.8239777             -22.4216
         3        2.0000           -0.7338602             -19.9694
         4        2.0000           -0.7219188             -19.6444
         5        2.0000           -0.6585643             -17.9204
         6        2.0000           -0.5584738             -15.1968
         7        2.0000           -0.5109921             -13.9048
         8        2.0000           -0.4955114             -13.4836
         9        1.0000           -0.4111846             -11.1889 (HOMO)
        10                         -0.3642614              -9.9121 (LUMO)
        11                         -0.0493654              -1.3433
        12                          0.4498985              12.2424
      -------------------------------------------------------------
                  HL-Gap            0.0469232 Eh            1.2768 eV
             Fermi-level           -0.4205355 Eh          -11.4434 eV

     #   Z        covCN         q      C6AA      α(0)
     1   8 O      1.900     0.322    10.917     4.462
     2   8 O      0.979    -0.268    19.166     5.872
     3   7 N      0.925    -0.054    22.213     6.809

 Mol. C6AA /au·bohr⁶  :        153.444450
 Mol. C8AA /au·bohr⁸  :       3204.740995
 Mol. α(0) /au        :         17.143740


Wiberg/Mayer (AO) data.
largest (>0.10) Wiberg bond orders for each atom
          total WBO             WBO to atom ...
     1  O   2.852        N    3 1.707    O    2 1.145
     2  O   1.707        O    1 1.145    N    3 0.562
     3  N   2.270        O    1 1.707    O    2 0.562

MOs/occ written to file <molden.input>


molecular dipole:
                 x           y           z       tot (Debye)
 q only:        0.485       0.281      -0.000
   full:        0.331       0.318      -0.000       1.168
molecular quadrupole (traceless):
                xx          xy          yy          xz          yz          zz
 q only:       -1.532      -0.217       0.821       0.000       0.000       0.711
  q+dip:       -4.368      -0.422       2.044       0.000       0.000       2.324
   full:       -4.423      -0.104       1.751       0.000       0.000       2.672

           -------------------------------------------------
          |                Geometry Summary                 |
           -------------------------------------------------

      molecular mass/u    :       46.0055130
   center of mass at/Å    :       -0.0483721       0.0057799       0.0000002
  moments of inertia/u·Å² :        0.2098937E+01   0.3839939E+02   0.4049833E+02
rotational constants/cm⁻¹ :        0.8031511E+01   0.4390078E+00   0.4162550E+00

 * 2 selected distances

     #   Z        #   Z                                     value/Å
     1   8 O      2   8 O                                 1.2634490 (max)
     1   8 O      3   7 N                                 1.1713147 (min)

 * 2 distinct bonds (by element types)

   Z      Z             #   av. dist./Å        max./Å        min./Å
   7 N    8 O           1     1.1713147     1.1713147     1.1713147
   8 O    8 O           1     1.2634490     1.2634490     1.2634490

           -------------------------------------------------
          |               Frequency Printout                |
           -------------------------------------------------
 projected vibrational frequencies (cm-1)
eigval :       -0.00    -0.00    -0.00     0.00     0.00     0.00
eigval :      621.26  1129.84  1660.25
 reduced masses (amu)
   1: 15.38   2: 15.94   3: 15.45   4: 14.55   5: 15.92   6: 14.59   7: 15.38   8: 15.73
   9: 15.06
 IR intensities (amu)
   1:  0.03   2:  0.07   3:  0.25   4:  0.29   5:  0.25   6:  0.15   7:  0.63   8:  1.42
   9:  1.73
 Raman intensities (amu)
Molecule has the following symmetry elements: (sigma) 
It seems to be the Cs point group
   1:  0.00   2:  0.00   3:  0.00   4:  0.00   5:  0.00   6:  0.00   7:  0.00   8:  0.00
   9:  0.00
 output can be read by thermo (or use thermo option).
 writing <g98.out> molden fake output.
 recommended (thermochemical) frequency scaling factor: 1.0
           -------------------------------------------------
          |             Thermodynamic Functions             |
           -------------------------------------------------

cs  symmetry found (for desy threshold:  0.10E+00) used in thermo

          ...................................................
          :                      SETUP                      :
          :.................................................:
          :  # frequencies                           3      :
          :  # imaginary freq.                       0      :
          :  linear?                             false      :
          :  only rotor calc.                    false      :
          :  symmetry                               cs      :
          :  rotational number                       1      :
          :  scaling factor                  1.0000000      :
          :  rotor cutoff                   50.0000000 cm⁻¹ :
          :  imag. cutoff                  -20.0000000 cm⁻¹ :
          :.................................................:

    mode    ω/cm⁻¹     T·S(HO)/kcal·mol⁻¹    T·S(FR)/kcal·mol⁻¹   T·S(vib)
   ------------------------------------------------------------------------
   ------------------------------------------------------------------------

   temp. (K)  partition function   enthalpy   heat capacity  entropy
                                   cal/mol     cal/K/mol   cal/K/mol   J/K/mol
 298.15  VIB   1.06                  108.750      1.285      0.476
         ROT  0.436E+04              888.752      2.981     19.637
         INT  0.461E+04              997.503      4.266     20.112
         TR   0.302E+27             1481.254      4.968     37.387
         TOT                        2478.7566     9.2339    57.4990   240.5757

   temp. (K)  partition function   enthalpy   heat capacity  entropy
                                   cal/mol     cal/K/mol   cal/K/mol   J/K/mol
 120.00  VIB   1.00                    1.039      0.065      0.010
         ROT  0.111E+04              357.707      2.981     16.924
         INT  0.112E+04              358.746      3.046     16.933
         TR   0.771E+26              596.178      4.968     32.867
         TOT                         954.9238     8.0138    49.8009   208.3668

   temp. (K)  partition function   enthalpy   heat capacity  entropy
                                   cal/mol     cal/K/mol   cal/K/mol   J/K/mol
 100.00  VIB   1.00                    0.233      0.021      0.003
         ROT   848.                  298.089      2.981     16.380
         INT   848.                  298.322      3.002     16.383
         TR   0.586E+26              496.815      4.968     31.962
         TOT                         795.1374     7.9699    48.3448   202.2746

   temp. (K)  partition function   enthalpy   heat capacity  entropy
                                   cal/mol     cal/K/mol   cal/K/mol   J/K/mol
  80.00  VIB   1.00                    0.025      0.003      0.000
         ROT   607.                  238.471      2.981     15.715
         INT   607.                  238.496      2.984     15.715
         TR   0.420E+26              397.452      4.968     30.854
         TOT                         635.9482     7.9525    46.5693   194.8459

   temp. (K)  partition function   enthalpy   heat capacity  entropy
                                   cal/mol     cal/K/mol   cal/K/mol   J/K/mol
  60.00  VIB   1.00                    0.001      0.000     -0.000
         ROT   394.                  178.853      2.981     14.857
         INT   394.                  178.854      2.981     14.857
         TR   0.273E+26              298.089      4.968     29.425
         TOT                         476.9430     7.9492    44.2829   185.2795

   temp. (K)  partition function   enthalpy   heat capacity  entropy
                                   cal/mol     cal/K/mol   cal/K/mol   J/K/mol
  40.00  VIB   1.00                    0.000      0.000     -0.000
         ROT   214.                  119.236      2.981     13.649
         INT   214.                  119.236      2.981     13.649
         TR   0.148E+26              198.726      4.968     27.412
         TOT                         317.9616     7.9490    41.0608   171.7982

   temp. (K)  partition function   enthalpy   heat capacity  entropy
                                   cal/mol     cal/K/mol   cal/K/mol   J/K/mol
  20.00  VIB   1.00                    0.000      0.000     -0.000
         ROT   75.8                   59.618      2.981     11.583
         INT   75.8                   59.618      2.981     11.583
         TR   0.525E+25               99.363      4.968     23.970
         TOT                         158.9808     7.9490    35.5525   148.7519

   temp. (K)  partition function   enthalpy   heat capacity  entropy
                                   cal/mol     cal/K/mol   cal/K/mol   J/K/mol
  10.00  VIB   1.00                    0.000      0.000     -0.000
         ROT   26.8                   29.809      2.981      9.516
         INT   26.8                   29.809      2.981      9.516
         TR   0.185E+25               49.681      4.968     20.528
         TOT                          79.4904     7.9490    30.0443   125.7055

       T/K    H(0)-H(T)+PV         H(T)/Eh          T*S/Eh         G(T)/Eh
   ------------------------------------------------------------------------
    298.15    0.395015E-02    0.117218E-01    0.273196E-01   -0.155979E-01
    120.00    0.152177E-02    0.929337E-02    0.952353E-02   -0.230157E-03
    100.00    0.126713E-02    0.903874E-02    0.770423E-02    0.133450E-02
     80.00    0.101345E-02    0.878505E-02    0.593703E-02    0.284802E-02
     60.00    0.760057E-03    0.853166E-02    0.423415E-02    0.429751E-02
     40.00    0.506704E-03    0.827831E-02    0.261738E-02    0.566093E-02
     20.00    0.253352E-03    0.802495E-02    0.113313E-02    0.689182E-02
     10.00    0.126676E-03    0.789828E-02    0.478787E-03    0.741949E-02 (used)
   ------------------------------------------------------------------------

         :::::::::::::::::::::::::::::::::::::::::::::::::::::
         ::                  THERMODYNAMIC                  ::
         :::::::::::::::::::::::::::::::::::::::::::::::::::::
         :: total free energy         -10.771640162732 Eh   ::
         ::.................................................::
         :: total energy              -10.779059654639 Eh   ::
         :: zero point energy           0.007771602962 Eh   ::
         :: G(RRHO) w/o ZPVE           -0.000352111055 Eh   ::
         :: G(RRHO) contrib.            0.007419491907 Eh   ::
         :::::::::::::::::::::::::::::::::::::::::::::::::::::

optimized geometry written to: xtbopt.xyz


           -------------------------------------------------
          | TOTAL ENERGY              -10.779059654639 Eh   |
          | TOTAL ENTHALPY            -10.771161375662 Eh   |
          | TOTAL FREE ENERGY         -10.771640162732 Eh   |
          | GRADIENT NORM               0.000111204284 Eh/α |
          | HOMO-LUMO GAP               1.276846381994 eV   |
           -------------------------------------------------

------------------------------------------------------------------------
 * finished run on 2020/05/12 at 11:45:16.688     
------------------------------------------------------------------------
 total:
 * wall-time:     0 d,  0 h,  0 min,  0.067 sec
 *  cpu-time:     0 d,  0 h,  0 min,  0.067 sec
 * ratio c/w:     0.999 speedup
 SCF:
 * wall-time:     0 d,  0 h,  0 min,  0.003 sec
 *  cpu-time:     0 d,  0 h,  0 min,  0.003 sec
 * ratio c/w:     1.000 speedup
 ANC optimizer:
 * wall-time:     0 d,  0 h,  0 min,  0.018 sec
 *  cpu-time:     0 d,  0 h,  0 min,  0.018 sec
 * ratio c/w:     1.000 speedup
 numerical hessian:
 * wall-time:     0 d,  0 h,  0 min,  0.028 sec
 *  cpu-time:     0 d,  0 h,  0 min,  0.028 sec
 * ratio c/w:     0.999 speedup

