3
 energy: -10.779059654653 gnorm: 0.000111390296 xtb: 6.2.2 (9d81278992624c895f80dd42a50cac0aa55982e2)
O         0.02864563400336    0.30011379865902   -0.00000062378429
O        -1.14541284018048   -0.16667307615958    0.00000428915189
N         1.11676720617712   -0.13344072249944   -0.00000366536759
