3
 energy: -10.732281476887 gnorm: 0.160979493599 xtb: 6.2.2 (9d81278992624c895f80dd42a50cac0aa55982e2)
O        -0.01666200000000    0.54449500000000    0.00000000000000
O        -1.04707900000000   -0.27410000000000    0.00000000000000
N         1.06374100000000   -0.27039500000000    0.00000000000000
3
 energy: -10.748977393486 gnorm: 0.100094412979 xtb: 6.2.2 (9d81278992624c895f80dd42a50cac0aa55982e2)
O         0.00620653022217    0.49290455276475    0.00000000000000
O        -1.05289521404716   -0.25653261467177    0.00000000000000
N         1.04668868382500   -0.23637193809297    0.00000000000000
3
 energy: -10.767601436484 gnorm: 0.108534393316 xtb: 6.2.2 (9d81278992624c895f80dd42a50cac0aa55982e2)
O         0.05309959419601    0.39255220155468    0.00000000000000
O        -1.09508041648296   -0.22334551381630    0.00000000000000
N         1.04198082228696   -0.16920668773837    0.00000000000000
3
 energy: -10.767484462793 gnorm: 0.199068332692 xtb: 6.2.2 (9d81278992624c895f80dd42a50cac0aa55982e2)
O         0.07395027097534    0.25500995158605    0.00000000000000
O        -1.19371337538551   -0.16116843742921    0.00000000000000
N         1.11976310441016   -0.09384151415684    0.00000000000000
3
 energy: -10.777584230926 gnorm: 0.040363079972 xtb: 6.2.2 (9d81278992624c895f80dd42a50cac0aa55982e2)
O         0.03717046915085    0.29345035432493    0.00000000000000
O        -1.17784382764025   -0.16661695367272    0.00000000000000
N         1.14067335848940   -0.12683340065220    0.00000000000000
3
 energy: -10.778851276007 gnorm: 0.015331387648 xtb: 6.2.2 (9d81278992624c895f80dd42a50cac0aa55982e2)
O         0.03110593068546    0.31375767567171    0.00000000000000
O        -1.14626768724594   -0.17461439995180    0.00000000000000
N         1.11516175656048   -0.13914327571991    0.00000000000000
3
 energy: -10.779033416013 gnorm: 0.005136311925 xtb: 6.2.2 (9d81278992624c895f80dd42a50cac0aa55982e2)
O         0.02982987219739    0.30522389960916    0.00000000000000
O        -1.14524526785976   -0.16975204663675    0.00000000000000
N         1.11541539566236   -0.13547185297241    0.00000000000000
3
 energy: -10.779059569931 gnorm: 0.000486418335 xtb: 6.2.2 (9d81278992624c895f80dd42a50cac0aa55982e2)
O         0.02877379165403    0.30030739119658    0.00000000000000
O        -1.14528024873477   -0.16682793642920    0.00000000000000
N         1.11650645708073   -0.13347945476739    0.00000000000000
3
 energy: -10.779059654634 gnorm: 0.000112977987 xtb: 6.2.2 (9d81278992624c895f80dd42a50cac0aa55982e2)
O         0.02864406261279    0.30011394864355    0.00000000000000
O        -1.14541196747458   -0.16667907352516    0.00000000000000
N         1.11676790486179   -0.13343487511839    0.00000000000000
