$hessian                                                                        
        0.9042076390  -0.1159035764  -0.0000029540  -0.3089816654  -0.1220832606
        0.0000012916  -0.5952259736   0.2379868370   0.0000016624
       -0.1159035764   0.3009956704  -0.0000001208  -0.1268969696  -0.1244314960
        0.0000006601   0.2428005459  -0.1765641743  -0.0000005394
       -0.0000029540  -0.0000001208   0.0000000000   0.0000013000   0.0000006433
       -0.0000000000   0.0000016540  -0.0000005226  -0.0000000000
       -0.3089816654  -0.1268969696   0.0000013000   0.4208106330   0.1264374409
       -0.0000016896  -0.1118289677   0.0004595287   0.0000003896
       -0.1220832606  -0.1244314960   0.0000006433   0.1264374409   0.0851073542
       -0.0000005899  -0.0043541802   0.0393241419  -0.0000000534
        0.0000012916   0.0000006601  -0.0000000000  -0.0000016896  -0.0000005899
        0.0000000000   0.0000003980  -0.0000000702  -0.0000000000
       -0.5952259736   0.2428005459   0.0000016540  -0.1118289677  -0.0043541802
        0.0000003980   0.7070549413  -0.2384463657  -0.0000020519
        0.2379868370  -0.1765641743  -0.0000005226   0.0004595287   0.0393241419
       -0.0000000702  -0.2384463657   0.1372400325   0.0000005928
        0.0000016624  -0.0000005394  -0.0000000000   0.0000003896  -0.0000000534
       -0.0000000000  -0.0000020519   0.0000005928   0.0000000000
