5
 energy: -9.436232233319 gnorm: 0.153576693893 xtb: 6.2.2 (9d81278992624c895f80dd42a50cac0aa55982e2)
N        -0.89832700000000    0.27921200000000    0.23271800000000
C         0.38376300000000   -0.17003900000000    0.79969700000000
C         1.38886000000000   -0.37499100000000   -0.31367200000000
C         0.37704600000000    0.75094300000000   -0.33111000000000
H        -1.25134200000000   -0.48512500000000   -0.38763200000000
5
 energy: -9.467309831133 gnorm: 0.115706888889 xtb: 6.2.2 (9d81278992624c895f80dd42a50cac0aa55982e2)
N        -0.83937905412488    0.25631561979811    0.21372922198138
C         0.38769435132839   -0.21450448446522    0.81146958946561
C         1.34694697156403   -0.32849807714917   -0.27555612732911
C         0.38062782544544    0.75348780747143   -0.37707015793757
H        -1.27589009421298   -0.46680086565516   -0.37257152618031
5
 energy: -9.484077974469 gnorm: 0.118234463989 xtb: 6.2.2 (9d81278992624c895f80dd42a50cac0aa55982e2)
N        -0.70220483511045    0.20998519330194    0.17519312788584
C         0.39223859144665   -0.30852467632923    0.85411053534839
C         1.22950231900673   -0.24102112295152   -0.20361432207888
C         0.38431285452129    0.77622860790507   -0.47781143649926
H        -1.30384892986423   -0.43666800192626   -0.34787690465609
5
 energy: -9.492116218248 gnorm: 0.039655250639 xtb: 6.2.2 (9d81278992624c895f80dd42a50cac0aa55982e2)
N        -0.73536160671834    0.22414398039731    0.18692513045244
C         0.37960778118183   -0.35464107146287    0.82049497845511
C         1.36478282845992   -0.19963961274491   -0.17071402659751
C         0.37165184337691    0.73390313762978   -0.51607998394814
H        -1.38068084630032   -0.40376643381931   -0.32062509836190
5
 energy: -9.493475564453 gnorm: 0.009916539761 xtb: 6.2.2 (9d81278992624c895f80dd42a50cac0aa55982e2)
N        -0.73643831020775    0.21153739180286    0.17666313669808
C         0.38646784644777   -0.33288459830262    0.83688667841183
C         1.33032396951799   -0.22178413705279   -0.18854433091979
C         0.37852271504180    0.75440103679660   -0.49814009988909
H        -1.35887622079982   -0.41126969324405   -0.32686438430103
5
 energy: -9.493834612936 gnorm: 0.010445362146 xtb: 6.2.2 (9d81278992624c895f80dd42a50cac0aa55982e2)
N        -0.72659006249531    0.20243408318972    0.16919642325924
C         0.38914133436543   -0.34218722418091    0.83831123114367
C         1.33737152728119   -0.20983181945547   -0.17884831682586
C         0.38113158521089    0.75393340692974   -0.50756076690257
H        -1.38105438436220   -0.40434844648308   -0.32109757067448
5
 energy: -9.494093780709 gnorm: 0.008925478451 xtb: 6.2.2 (9d81278992624c895f80dd42a50cac0aa55982e2)
N        -0.72009432757576    0.19004110210427    0.15905983836683
C         0.39096123464873   -0.35026155630383    0.83779035755355
C         1.35077993420001   -0.19836893232828   -0.16959446109153
C         0.38291312602364    0.75180254760355   -0.51537166167936
H        -1.40455996729661   -0.39321316107571   -0.31188307314949
5
 energy: -9.494239631907 gnorm: 0.007513513284 xtb: 6.2.2 (9d81278992624c895f80dd42a50cac0aa55982e2)
N        -0.71600224349446    0.17887189097671    0.14994053292181
C         0.39255531038541   -0.35223235947998    0.83588897405771
C         1.36187232293702   -0.19168168670342   -0.16421394442628
C         0.38450822081880    0.74955061926260   -0.51692882732956
H        -1.42293361064677   -0.38450846405591   -0.30468573522369
5
 energy: -9.494330281969 gnorm: 0.003978495785 xtb: 6.2.2 (9d81278992624c895f80dd42a50cac0aa55982e2)
N        -0.71215827915304    0.16846577826284    0.14145777149545
C         0.39367602184058   -0.35113116107041    0.83280079356291
C         1.37124354952829   -0.18707945937819   -0.16051283300939
C         0.38565374064298    0.74676342407049   -0.51524282920838
H        -1.43841503285881   -0.37701858188472   -0.29850190284058
5
 energy: -9.494346592292 gnorm: 0.000937048337 xtb: 6.2.2 (9d81278992624c895f80dd42a50cac0aa55982e2)
N        -0.71041550738079    0.16456468922992    0.13825392345565
C         0.39380112133706   -0.34972736529596    0.83105488548871
C         1.37432238884573   -0.18582875549254   -0.15951984726553
C         0.38580897827903    0.74534001009703   -0.51350478243018
H        -1.44351698108103   -0.37434857853846   -0.29628317924865
5
 energy: -9.494347142483 gnorm: 0.000266575716 xtb: 6.2.2 (9d81278992624c895f80dd42a50cac0aa55982e2)
N        -0.71013972354288    0.16432435179055    0.13805754614079
C         0.39368196486579   -0.34912746731563    0.83066093824127
C         1.37443275758695   -0.18598440731652   -0.15964933635731
C         0.38568883391100    0.74506476536954   -0.51283766669793
H        -1.44366383282086   -0.37427724252793   -0.29623048132683
