[Molden Format]
[Title]
[Atoms] AU
N      1     7 -0.13419669265768E+01  0.31053547354679E+00  0.26089506982009E+00
C      2     6  0.74395304967231E+00 -0.65975639025495E+00  0.15697200846613E+01
C      3     6  0.25972983541772E+01 -0.35147368665184E+00 -0.30170194657922E+00
C      4     6  0.72885018699210E+00  0.14079627133543E+01 -0.96912764805003E+00
H      5     1 -0.27281346642583E+01 -0.70726810999095E+00 -0.55978367012619E+00
[GTO]
           1 0
 s           4   1.0000000000000000     
   63.594024466941008      -0.19234388414721629     
   10.951417231523665      -0.23478107924953728     
  0.87999310257376984       0.37593753901700888     
  0.33538715296521110       0.14982889271862770     
 p           4   1.0000000000000000     
   7.2965040481495080       0.97658666315667420     
   1.8918745450712575       0.90372226730345739     
  0.66694432110824120       0.47404958461536373     
  0.26552202674130870        7.1516067715011844E-002

           2 0
 s           4   1.0000000000000000     
   51.049363095579913      -0.16312063210127389     
   8.7911227406887544      -0.19911024581000730     
  0.70640422258929825       0.31882047753655751     
  0.26922813413411617       0.12706504184240380     
 p           4   1.0000000000000000     
   5.8263656140800002       0.73716451545209605     
   1.5106896018720002       0.68216371614850257     
  0.53256483288000001       0.35783053929253711     
  0.21202323690600003        5.3983030275847881E-002

           3 0
 s           4   1.0000000000000000     
   51.049363095579913      -0.16312063210127389     
   8.7911227406887544      -0.19911024581000730     
  0.70640422258929825       0.31882047753655751     
  0.26922813413411617       0.12706504184240380     
 p           4   1.0000000000000000     
   5.8263656140800002       0.73716451545209605     
   1.5106896018720002       0.68216371614850257     
  0.53256483288000001       0.35783053929253711     
  0.21202323690600003        5.3983030275847881E-002

           4 0
 s           4   1.0000000000000000     
   51.049363095579913      -0.16312063210127389     
   8.7911227406887544      -0.19911024581000730     
  0.70640422258929825       0.31882047753655751     
  0.26922813413411617       0.12706504184240380     
 p           4   1.0000000000000000     
   5.8263656140800002       0.73716451545209605     
   1.5106896018720002       0.68216371614850257     
  0.53256483288000001       0.35783053929253711     
  0.21202323690600003        5.3983030275847881E-002

           5 0
 s           3   1.0000000000000000     
   3.3702276975336001       0.27359110588908298     
  0.61389118221497996       0.26460540653860526     
  0.16614291148415999        8.2465947534082318E-002

[MO]
Sym=     1a
Ene=  -0.72299658903264619     
Spin= Alpha
Occup=     2.00000000
           1  0.35789820679204742     
           2  0.24135378940598137     
           3  -1.8403407679777762E-002
           4  -1.6424137467723785E-002
           5  0.30940046587514042     
           6  -4.2262919034598008E-002
           7   7.3389543408899388E-002
           8 -0.13208124646920824     
           9  0.21818838770754101     
          10 -0.11628103053325316     
          11   3.0842568464369335E-002
          12   2.5810792204226156E-002
          13  0.30940009966826026     
          14  -4.0888478274272347E-002
          15 -0.11473261565207979     
          16   9.8904637778446977E-002
          17   3.9566096454780535E-002
Sym=     2a
Ene=  -0.64163904465488741     
Spin= Alpha
Occup=     2.00000000
           1 -0.52181754040164252     
           2  0.16776259170264390     
           3   7.2959362238141465E-002
           4   5.8419179822720699E-002
           5  0.10456010363022102     
           6  0.21335463770800608     
           7   1.4351082386030599E-002
           8  -3.6128523974600382E-002
           9  0.33680375990842704     
          10  -5.3447575491971204E-002
          11   4.3334370540604808E-002
          12   3.5610275403279969E-002
          13  0.10456343475820593     
          14  0.21368551445347719     
          15  -3.1231455745166690E-002
          16   1.9839674802797264E-002
          17 -0.28215935757271071     
Sym=     3a
Ene=  -0.60724466895751927     
Spin= Alpha
Occup=     2.00000000
           1  -2.4136590452420637E-006
           2   2.3838760178081235E-003
           3 -0.32619350221639887     
           4  0.40051657082646164     
           5  0.45061423493010105     
           6 -0.11134522527635136     
           7  -7.3371043282522558E-002
           8   4.1827247636791721E-002
           9   2.3834986673757219E-006
          10   8.6549785248728086E-004
          11 -0.11853487795979498     
          12  0.14554328691118942     
          13 -0.45061472157040294     
          14  0.11206978771106645     
          15  -2.5457975620139187E-002
          16   7.9518787900352092E-002
          17  -7.0569928867723951E-007
Sym=     4a
Ene=  -0.59081015296571460     
Spin= Alpha
Occup=     2.00000000
           1  -2.0177831437011705E-002
           2 -0.33125472936113270     
           3 -0.30849044029139078     
           4 -0.24927476576519114     
           5  -3.2527731896410714E-002
           6  0.18794843245631063     
           7 -0.17527762721119095     
           8 -0.10127760454093719     
           9  0.37530891544169753     
          10  -1.9066515409427297E-002
          11  -3.9245287080581642E-002
          12  -3.1849146768589534E-002
          13  -3.2526360792959126E-002
          14  0.18764258770787154     
          15 -0.13356747931860208     
          16 -0.15249014231199831     
          17  0.33273501875783651     
Sym=     5a
Ene=  -0.52745140612829811     
Spin= Alpha
Occup=     2.00000000
           1   3.8102571473699017E-007
           2  -1.8083138973288633E-003
           3  0.24776464076380417     
           4 -0.30422014534962444     
           5  0.20891259458206046     
           6  0.35876836199763446     
           7 -0.10782616572862244     
           8   1.2949469853721101E-002
           9  -1.0753053067395270E-006
          10   2.0790186686634234E-003
          11 -0.28474261153984115     
          12  0.34961972234135785     
          13 -0.20891519208033024     
          14 -0.35803548212756087     
          15   7.0555005473807355E-003
          16  0.11077872310234640     
          17  -7.8286838948549954E-007
Sym=     6a
Ene=  -0.52283348617710557     
Spin= Alpha
Occup=     2.00000000
           1 -0.22494365526479904     
           2  0.40189965230846608     
           3 -0.33605956227559119     
           4 -0.27608701003758324     
           5  -5.2028762170459257E-002
           6 -0.17807127182850177     
           7 -0.23469803449369694     
           8 -0.18823040643084821     
           9 -0.21538128314308247     
          10 -0.15483857049613442     
          11 -0.18974627849963449     
          12 -0.15361677489446698     
          13  -5.2026911992763970E-002
          14 -0.17808147217512926     
          15 -0.23287983121463149     
          16 -0.19046258366916485     
          17 -0.14388236524880868     
Sym=     7a
Ene=  -0.44873834791016420     
Spin= Alpha
Occup=     2.00000000
           1 -0.21858337849477846     
           2  -2.2090390138085961E-002
           3 -0.19739275441625950     
           4 -0.16062987698306908     
           5  0.42631203476859725     
           6   5.6880832919474440E-002
           7 -0.14159632693154675     
           8  0.33680538741548721     
           9 -0.38463276839319921     
          10 -0.19744851159165086     
          11  0.21813228897028195     
          12  0.17883179097543078     
          13  0.42631502040610775     
          14   5.3642472744431173E-002
          15  0.30149492602081224     
          16 -0.20723946008540292     
          17  0.13294138077095224     
Sym=     8a
Ene=  -0.42681390436874850     
Spin= Alpha
Occup=     2.00000000
           1  0.14089991862493217     
           2  -8.5509874655032306E-002
           3  0.28855699892432485     
           4  0.23551987506490210     
           5  0.23663803141649875     
           6 -0.11111705499014322     
           7 -0.35832659714225240     
           8  0.19151554702265799     
           9  0.30790180004341716     
          10  0.14909401732964880     
          11 -0.34653859389664948     
          12 -0.28311659730417404     
          13  0.23664072099000202     
          14 -0.11457109825418553     
          15  0.11435938346112959     
          16 -0.38887095023510143     
          17 -0.13022461200651839     
Sym=     9a
Ene=  -0.37137449220745400     
Spin= Alpha
Occup=     1.00000000
           1  -3.8845673364512140E-002
           2  0.33976845051264232     
           3 -0.32989916152528920     
           4 -0.27069618333776263     
           5   2.6730929324269931E-002
           6 -0.12597252664588968     
           7   8.5121701107358130E-002
           8  0.17374413680623363     
           9  0.31548118492533839     
          10  0.72228970646517077     
          11  0.11408533436785659     
          12   8.8625585650790165E-002
          13   2.6741347297716673E-002
          14 -0.12671230297939451     
          15  0.18666798076919688     
          16   4.9097926392795567E-002
          17   2.8367106770281775E-002
Sym=    10a
Ene=  -0.36480794888337448     
Spin= Alpha
Occup=     1.00000000
           1   9.4306437911071502E-007
           2   1.0567177890807218E-003
           3 -0.14557461523815368     
           4  0.17875829864071574     
           5 -0.24396327733221210     
           6  -5.1492246756979929E-002
           7 -0.25936935086127672     
           8 -0.58267615800755057     
           9  -5.4415911945566156E-006
          10   1.2951944539033051E-003
          11 -0.17939967842817298     
          12  0.22026830278492984     
          13  0.24395797386017293     
          14   4.8838664391722665E-002
          15  0.62340078247355846     
          16  0.13569427682896601     
          17  -6.6567565113412641E-007
Sym=    11a
Ene=  -0.27720674630792425     
Spin= Alpha
Occup=     0.00000000
           1   1.2550521246880822E-006
           2   1.5899076188741086E-003
           3 -0.21762010244738486     
           4  0.26720678361245215     
           5 -0.10945169124707858     
           6  0.17424078103178983     
           7  0.66593930861248685     
           8 -0.12807702496603970     
           9  -1.4456884820710824E-007
          10   1.5867966626379600E-003
          11 -0.21702481996787251     
          12  0.26648390483499912     
          13  0.10944786938758133     
          14 -0.17903018589218719     
          15  -1.0416678079145926E-002
          16 -0.67681857395887079     
          17  -7.7075115544127330E-007
Sym=    12a
Ene=  -0.23671660813682552     
Spin= Alpha
Occup=     0.00000000
           1 -0.28567269038660004     
           2   4.2558665911850257E-002
           3 -0.15231126162717956     
           4 -0.12429693786904125     
           5   6.9443379374598727E-002
           6   3.3100037559952659E-002
           7  0.44712909278643065     
           8  0.24048237023983440     
           9   6.2157485945802039E-002
          10 -0.21612077994027462     
          11 -0.58789297004841423     
          12 -0.47751104078707451     
          13   6.9443769911930547E-002
          14   3.3978915881618395E-002
          15  0.32620677630095674     
          16  0.38894046150745065     
          17  0.27171127064012479     
Sym=    13a
Ene=    3.1839763621434446E-002
Spin= Alpha
Occup=     0.00000000
           1 -0.97099724664023057     
           2  -2.1974119460929541E-002
           3  0.36553112075260824     
           4  0.29786548825056225     
           5  0.11621639158704748     
           6 -0.42391594030470897     
           7  -6.0164059589018614E-003
           8 -0.20558579086093540     
           9  0.13184828096476325     
          10   6.8356448612712242E-002
          11  0.14408819291516431     
          12  0.11693610342957306     
          13  0.11624447327333653     
          14 -0.42249977323861898     
          15 -0.20503047223874321     
          16   3.8778853950293068E-002
          17  0.80849789973408992     
Sym=    14a
Ene=    9.1971956900791976E-002
Spin= Alpha
Occup=     0.00000000
           1  -3.3567125395751893E-005
           2  -3.6802307700547340E-003
           3  0.50509814729711411     
           4 -0.62015109339414465     
           5  0.48926351321627998     
           6 -0.50247080968378444     
           7  0.31011715830229930     
           8 -0.39261373738253491     
           9   2.0877909826535849E-006
          10   1.5807823379661561E-004
          11  -2.1215400570687389E-002
          12   2.6057035772525345E-002
          13 -0.48925897783010680     
          14  0.49781689475482349     
          15  0.32461149285536983     
          16 -0.38675428869440731     
          17   3.7833608567981289E-005
Sym=    15a
Ene=   0.17032843639042028     
Spin= Alpha
Occup=     0.00000000
           1   4.1068314770945864E-006
           2   7.1559642424170956E-004
           3  -9.9674865792864123E-002
           4  0.12237089140508574     
           5  0.44096828782112557     
           6  0.54518048301787991     
           7   4.4985265626515905E-002
           8 -0.41989367653178838     
           9   1.1742003391459494E-005
          10  -4.3782297380493707E-003
          11  0.59805583272852092     
          12 -0.73431484972958094     
          13 -0.44097279265717215     
          14 -0.54844232747130550     
          15  0.39891982598396647     
          16 -0.12513998973571674     
          17  -1.6312947107063463E-005
Sym=    16a
Ene=   0.24513364470760771     
Spin= Alpha
Occup=     0.00000000
           1  0.12383533760888460     
           2  0.85381026490603362     
           3  0.33449099023799339     
           4  0.26735573524378142     
           5  -8.7090871778018178E-002
           6  0.56854808198724638     
           7 -0.17462356223379505     
           8  -3.2921940438748062E-002
           9 -0.44586471830581853     
          10  0.28575206836775080     
          11 -0.14542621603758449     
          12 -0.12016384374500137     
          13  -8.7095180443474807E-002
          14  0.56770689355684967     
          15  -6.4271261246350311E-002
          16 -0.16840289177007731     
          17  0.74913876330320994     
Sym=    17a
Ene=   0.47681045419659224     
Spin= Alpha
Occup=     0.00000000
           1  0.18083393688806826     
           2  0.56015455370548928     
           3   6.2422364011507386E-002
           4   4.7507051112150839E-002
           5 -0.58651262395559356     
           6 -0.18564570800964167     
           7 -0.14340192087956571     
           8  0.51504778407732277     
           9  0.78547197930740098     
          10 -0.77604768477918862     
          11  0.27884985899167736     
          12  0.23172838128161163     
          13 -0.58649946895662275     
          14 -0.19015233940780185     
          15  0.47425236361733047     
          16 -0.24334519653864281     
          17  0.27105906824799531     
