5
 energy: -9.448643956046 gnorm: 0.232824422934 xtb: 6.2.2 (9d81278992624c895f80dd42a50cac0aa55982e2)
C         1.80111600000000   -0.29595800000000   -0.13910800000000
C         0.47231700000000   -0.03085500000000    0.53639900000000
C        -0.19381200000000    1.08717700000000   -0.11892400000000
N        -0.61132700000000   -0.28830200000000   -0.42321500000000
H        -1.46829400000000   -0.47206100000000    0.14484700000000
5
 energy: -9.503731329061 gnorm: 0.149895572486 xtb: 6.2.2 (9d81278992624c895f80dd42a50cac0aa55982e2)
C         1.80977483548285   -0.27154419936586   -0.05695045941314
C         0.55202200905193   -0.05181305239855    0.41718269967486
C        -0.19722801574030    1.05611045124675   -0.10980227321458
N        -0.66731208584311   -0.26318610817621   -0.40854199133101
H        -1.49725674295137   -0.46956609130614    0.15811102428387
5
 energy: -9.522403351811 gnorm: 0.256394367864 xtb: 6.2.2 (9d81278992624c895f80dd42a50cac0aa55982e2)
C         1.79601679475836   -0.27768400232558    0.04390271483161
C         0.67020794222084   -0.06115407888734    0.26630286111207
C        -0.23716269373923    1.02777379164059   -0.10332971724035
N        -0.70749964558163   -0.19972460744342   -0.36377389597703
H        -1.52156239765834   -0.48921010298425    0.15689703727369
5
 energy: -9.544791522793 gnorm: 0.076036435921 xtb: 6.2.2 (9d81278992624c895f80dd42a50cac0aa55982e2)
C         1.94907019521991   -0.28867332735810    0.11849512139150
C         0.67532068748376   -0.09215889674432    0.14889535951224
C        -0.27815567524553    1.02703587891171   -0.10447059430873
N        -0.78989629797333   -0.14466139946160   -0.36192557436720
H        -1.55633890948481   -0.50154125534769    0.19900468777218
5
 energy: -9.550247302130 gnorm: 0.050191830538 xtb: 6.2.2 (9d81278992624c895f80dd42a50cac0aa55982e2)
C         1.92779086848594   -0.33057486008821    0.12375231140743
C         0.69041842853909   -0.05652235161595    0.13061866062134
C        -0.28658334748766    1.05213616149466   -0.10258369239583
N        -0.78055546318933   -0.11276246215133   -0.33304936915513
H        -1.55107048634804   -0.55227548763917    0.18126108952218
5
 energy: -9.556991820050 gnorm: 0.041950071641 xtb: 6.2.2 (9d81278992624c895f80dd42a50cac0aa55982e2)
C         1.91088730494013   -0.36704908955374    0.14600810347902
C         0.72008096024106   -0.02949040433825    0.06748596687481
C        -0.28523197038608    1.08278733071213   -0.10553700161381
N        -0.78541495547961   -0.06719359582612   -0.24864128337619
H        -1.56032133931551   -0.61905324099402    0.14068321463618
5
 energy: -9.560295431349 gnorm: 0.033958683555 xtb: 6.2.2 (9d81278992624c895f80dd42a50cac0aa55982e2)
C         1.89539736204935   -0.40384991655422    0.16066336164156
C         0.72544257399449   -0.00927734341740    0.01729362908763
C        -0.29436173346421    1.11543893085091   -0.10530205855061
N        -0.78337885111050   -0.03772471719484   -0.18219805385871
H        -1.54309935146914   -0.66458595368446    0.10954212168013
5
 energy: -9.562471004277 gnorm: 0.044449941940 xtb: 6.2.2 (9d81278992624c895f80dd42a50cac0aa55982e2)
C         1.85332242998145   -0.42533637794288    0.15181775510799
C         0.70692526358210   -0.00123440450887   -0.00775557167664
C        -0.29915497902063    1.14158648955137   -0.10669245023215
N        -0.75816813036727   -0.03434692189914   -0.09941463010035
H        -1.50292458417565   -0.68066778520049    0.06204389690115
5
 energy: -9.562654900676 gnorm: 0.031485970725 xtb: 6.2.2 (9d81278992624c895f80dd42a50cac0aa55982e2)
C         1.84473290407351   -0.47036991818232    0.16718907574349
C         0.69981379589088    0.01584172108170   -0.04957831091148
C        -0.32702099339312    1.17195121919148   -0.10592497048757
N        -0.75324229866702   -0.00143918779881   -0.05958231754686
H        -1.46428340790425   -0.71598283429205    0.04789552320243
5
 energy: -9.563338148524 gnorm: 0.011782601591 xtb: 6.2.2 (9d81278992624c895f80dd42a50cac0aa55982e2)
C         1.85298858177624   -0.44440971359958    0.15766178337527
C         0.69980969592814    0.00029670299704   -0.02327869652090
C        -0.31591385483834    1.15442756009299   -0.10930644515042
N        -0.75631630394003   -0.01797225643060   -0.08188005972399
H        -1.48056811892601   -0.69234129305986    0.05680241802004
5
 energy: -9.563513058898 gnorm: 0.013839289494 xtb: 6.2.2 (9d81278992624c895f80dd42a50cac0aa55982e2)
C         1.85242354528763   -0.44178557399177    0.15184230362951
C         0.69813194469203   -0.00281928873314   -0.01392990090841
C        -0.31000921454742    1.15798501222098   -0.11445029384783
N        -0.75592868551376   -0.01637142441598   -0.07585242253342
H        -1.48461758991848   -0.69700772508008    0.05238931366016
5
 energy: -9.563900239375 gnorm: 0.013603060653 xtb: 6.2.2 (9d81278992624c895f80dd42a50cac0aa55982e2)
C         1.86054612746586   -0.43349278558383    0.14268827218620
C         0.69592677334155   -0.01732062234766    0.00237580134691
C        -0.30791372927765    1.15872972119959   -0.12624500788401
N        -0.75839396594862   -0.01246039512101   -0.06302202844571
H        -1.49016520558114   -0.69545491814709    0.04420196279660
5
 energy: -9.564190747074 gnorm: 0.004553063752 xtb: 6.2.2 (9d81278992624c895f80dd42a50cac0aa55982e2)
C         1.87398006864842   -0.42256249308603    0.12639539137984
C         0.68991250874565   -0.03885861235654    0.02970622054613
C        -0.30899205484201    1.15780548109605   -0.14394639861196
N        -0.76017234111020   -0.00669208760083   -0.04211617626451
H        -1.49472818144186   -0.68969128805265    0.02995996295050
5
 energy: -9.564209595766 gnorm: 0.003262685861 xtb: 6.2.2 (9d81278992624c895f80dd42a50cac0aa55982e2)
C         1.87402318937760   -0.42297451751647    0.12674580850065
C         0.69121195935732   -0.03760935614567    0.02731557042812
C        -0.31014359659660    1.15623549211420   -0.14294681248234
N        -0.76017360091171   -0.00703184504749   -0.03859127127709
H        -1.49491795122660   -0.68861877340456    0.02747570483066
5
 energy: -9.564224053993 gnorm: 0.001705227368 xtb: 6.2.2 (9d81278992624c895f80dd42a50cac0aa55982e2)
C         1.87433165104523   -0.42353020893833    0.12534418488501
C         0.69184221527863   -0.03555662144543    0.02699664470022
C        -0.31044254029266    1.15482297723698   -0.14225711637144
N        -0.76046149111567   -0.00767735967029   -0.03307884354242
H        -1.49526983491553   -0.68805778718293    0.02299413032863
5
 energy: -9.564231519556 gnorm: 0.001017007728 xtb: 6.2.2 (9d81278992624c895f80dd42a50cac0aa55982e2)
C         1.87459936909484   -0.42374701313034    0.12291971359968
C         0.69196953935404   -0.03296249311621    0.02903751231760
C        -0.30885409707495    1.15336133612656   -0.14213545885505
N        -0.76169351401262   -0.00780437630447   -0.02833452496909
H        -1.49602129736130   -0.68884645357555    0.01851175790686
5
 energy: -9.564233397028 gnorm: 0.000528141520 xtb: 6.2.2 (9d81278992624c895f80dd42a50cac0aa55982e2)
C         1.87436588064085   -0.42350402332051    0.12265730856842
C         0.69157327236342   -0.03297768232309    0.03032964855584
C        -0.30769874391767    1.15354187137386   -0.14260183176956
N        -0.76253844952688   -0.00729653089762   -0.02946510770755
H        -1.49570195955971   -0.68976263483264    0.01907898235286
