      -----------------------------------------------------------      
     |                   =====================                   |     
     |                           x T B                           |     
     |                   =====================                   |     
     |                         S. Grimme                         |     
     |          Mulliken Center for Theoretical Chemistry        |     
     |                    University of Bonn                     |     
      -----------------------------------------------------------      

   * xtb version 6.2.2 (9d81278992624c895f80dd42a50cac0aa55982e2) compiled by '@Darwin' on 04/03/2020

   xtb is free software: you can redistribute it and/or modify it under
   the terms of the GNU Lesser General Public License as published by
   the Free Software Foundation, either version 3 of the License, or
   (at your option) any later version.
   
   xtb is distributed in the hope that it will be useful,
   but WITHOUT ANY WARRANTY; without even the implied warranty of
   MERCHANTABILITY or FITNESS FOR A PARTICULAR PURPOSE.  See the
   GNU Lesser General Public License for more details.
   
   Cite this work as:
   * S. Grimme, C. Bannwarth, P. Shushkov, J. Chem. Theory Comput., 2017,
     13, 1989-2009. DOI: 10.1021/acs.jctc.7b00118
   * C. Bannwarth, S. Ehlert and S. Grimme., J. Chem. Theory Comput., 2019,
     15, 1652-1671. DOI: 10.1021/acs.jctc.8b01176
   * P. Pracht, E. Caldeweyher, S. Ehlert, S. Grimme, ChemRxiv, 2019, preprint.
     DOI: 10.26434/chemrxiv.8326202.v1
   
   for DFT-D4:
   * E. Caldeweyher, C. Bannwarth and S. Grimme, J. Chem. Phys., 2017,
     147, 034112. DOI: 10.1063/1.4993215
   * E. Caldeweyher, S. Ehlert, A. Hansen, H. Neugebauer, S. Spicher,
     C. Bannwarth and S. Grimme, J. Chem. Phys., 2019, 150, 154122.
     DOI: 10.1063/1.5090222
   
   for sTDA-xTB:
   * S. Grimme and C. Bannwarth, J. Chem. Phys., 2016, 145, 054103.
     DOI: 10.1063/1.4959605
   
   in the mass-spec context:
   * V. Asgeirsson, C. Bauer and S. Grimme, Chem. Sci., 2017, 8, 4879.
     DOI: 10.1039/c7sc00601b
   
   for metadynamics refer to:
   * S. Grimme, J. Chem. Theory Comput., 2019, 155, 2847-2862
     DOI: 10.1021/acs.jctc.9b00143
   
   with help from (in alphabetical order)
   C. Bannwarth, F. Bohle, G. Brandenburg, E. Caldeweyher, M. Checinski,
   S. Dohm, S. Ehlert, S. Ehrlich, F. März, H. Neugebauer, J. Pisarek,
   P. Pracht, P. Shushkov, and S. Spicher.
   
 * started run on 2020/05/12 at 11:44:43.661     

           -------------------------------------------------
          |                Calculation Setup                |
           -------------------------------------------------

          program call               : xtb --input H1O1_0_S_3.input H1O1_0_S_3.xyz --ohess --molden --namespace H1O1_0_S_3 output.out
          calculation namespace      : H1O1_0_S_3
          coordinate file            : H1O1_0_S_3.xyz
          number of atoms            :                     2
          number of electrons        :                     7
          charge                     :                     0
          spin                       :                   1.5
          first test random number   :      0.31948854191368

   ID    Z sym.   atoms
    1    8 O      1
    2    1 H      2

           -------------------------------------------------
          |                 G F N 2 - x T B                 |
           -------------------------------------------------

        Reference                      10.1021/acs.jctc.8b01176
      * Hamiltonian:
        H0-scaling (s, p, d)           1.850000    2.230000    2.230000
        zeta-weighting                 0.500000
      * Dispersion:
        s8                             2.700000
        a1                             0.520000
        a2                             5.000000
        s9                             5.000000
      * Repulsion:
        kExp                           1.500000    1.000000
        rExp                           1.000000
      * Coulomb:
        alpha                          2.000000
        third order                    shell-resolved
        anisotropic                    true
        a3                             3.000000
        a5                             4.000000
        cn-shift                       1.200000
        cn-exp                         4.000000
        max-rad                        5.000000


          ...................................................
          :                      SETUP                      :
          :.................................................:
          :  # basis functions                   5          :
          :  # atomic orbitals                   5          :
          :  # shells                            3          :
          :  # electrons                         7          :
          :  max. iterations                   250          :
          :  Hamiltonian                  GFN2-xTB          :
          :  restarted?                      false          :
          :  GBSA solvation                  false          :
          :  PC potential                    false          :
          :  electronic temp.          300.0000000     K    :
          :  accuracy                    1.0000000          :
          :  -> integral cutoff          0.2500000E+02      :
          :  -> integral neglect         0.1000000E-07      :
          :  -> SCF convergence          0.1000000E-05 Eh   :
          :  -> wf. convergence          0.1000000E-03 e    :
          :  Broyden damping             0.4000000          :
          ...................................................

 iter      E             dE          RMSdq      gap      omega  full diag
   1     -3.7859044 -0.378590E+01  0.746E+00    0.00       0.0  T
   2     -3.7929221 -0.701775E-02  0.399E+00    0.00       1.0  T
   3     -3.7948091 -0.188701E-02  0.418E-01    0.00       1.0  T
   4     -3.7948124 -0.323447E-05  0.156E-01    0.00       1.0  T
   5     -3.7948136 -0.126566E-05  0.514E-03    0.00      13.8  T
   6     -3.7948136  0.147725E-08  0.603E-03    0.00      11.7  T
   7     -3.7948136 -0.183738E-08  0.176E-06    0.00   40240.0  T
   8     -3.7948136 -0.888178E-15  0.414E-06    0.00   17074.7  T

   *** convergence criteria satisfied after 8 iterations ***

         #    Occupation            Energy/Eh            Energy/eV
      -------------------------------------------------------------
         1        2.0000           -0.8119893             -22.0954
         2        2.0000           -0.6715594             -18.2741
         3        1.0000           -0.6346839             -17.2706
         4        1.0000           -0.6346839             -17.2706
         5        1.0000            0.0822380               2.2378 (HOMO)
      -------------------------------------------------------------
                  HL-Gap           -0.0822380 Eh           -2.2378 eV
             Fermi-level           -0.3267255 Eh           -8.8907 eV

 SCC (total)                   0 d,  0 h,  0 min,  0.001 sec
 SCC setup                      ...        0 min,  0.000 sec ( 10.130%)
 Dispersion                     ...        0 min,  0.000 sec (  0.926%)
 integral evaluation            ...        0 min,  0.000 sec ( 16.306%)
 zeroth order Hamiltonian       ...        0 min,  0.000 sec (  1.019%)
 iterations                     ...        0 min,  0.000 sec ( 55.713%)
 molecular gradient             ...        0 min,  0.000 sec ( 10.068%)
 printout                       ...        0 min,  0.000 sec (  4.694%)

         :::::::::::::::::::::::::::::::::::::::::::::::::::::
         ::                     SUMMARY                     ::
         :::::::::::::::::::::::::::::::::::::::::::::::::::::
         :: total energy              -3.782242159850 Eh    ::
         :: gradient norm              1.180054157715 Eh/a0 ::
         :: HOMO-LUMO gap              0.000000000000 eV    ::
         ::.................................................::
         :: SCC energy                -3.794813632134 Eh    ::
         :: -> isotropic ES            0.005338332675 Eh    ::
         :: -> anisotropic ES          0.010574225557 Eh    ::
         :: -> anisotropic XC          0.000543307230 Eh    ::
         :: -> dispersion             -0.000190490507 Eh    ::
         :: repulsion energy           0.012571472299 Eh    ::
         :: add. restraining           0.000000000000 Eh    ::
         :::::::::::::::::::::::::::::::::::::::::::::::::::::

      ----------------------------------------------------------- 
     |                   =====================                   |
     |                        A N C O P T                        |
     |                   =====================                   |
     |               Approximate Normal Coordinate               |
     |                Rational Function Optimizer                |
      ----------------------------------------------------------- 

          ...................................................
          :                      SETUP                      :
          :.................................................:
          :   optimization level            normal          :
          :   max. optcycles                   200          :
          :   ANC micro-cycles                  20          :
          :   degrees of freedom                 1          :
          :.................................................:
          :   RF solver                   davidson          :
          :   write xtbopt.log                true          :
          :   linear (good luck)              true          :
          :   energy convergence         0.5000000E-05 Eh   :
          :   grad. convergence          0.1000000E-02 Eh/α :
          :   maximium RF displ.         1.0000000          :
          :   Hlow (freq-cutoff)         0.1000000E-01      :
          :   Hmax (freq-cutoff)         5.0000000          :
          :   S6 in model hess.         20.0000000          :
          ...................................................

generating ANC from model Hessian ...
Using Lindh-Hessian (1995)
 Shifting diagonal of input Hessian by    9.9938199327789957E-003
 Lowest  eigenvalues of input Hessian
   -0.000000    0.000000    0.000000    0.010000    0.010000    1.155142
 Highest eigenvalues
   -0.000000    0.000000    0.000000    0.010000    0.010000    1.155142


........................................................................
.............................. CYCLE    1 ..............................
........................................................................
   1     -3.7948136 -0.379481E+01  0.106E-08    0.00       0.0  T
   2     -3.7948136 -0.444089E-15  0.603E-09    0.00  100000.0  T
   3     -3.7948136  0.133227E-14  0.175E-10    0.00  100000.0  T
     SCC iter.                  ...        0 min,  0.000 sec
     gradient                   ...        0 min,  0.000 sec
 * total energy  :    -3.7822422 Eh     change        0.1457323E-10 Eh
   gradient norm :     1.1800542 Eh/α   predicted     0.0000000E+00 (-100.00%)
   displ. norm   :     0.6239091 α      lambda       -0.7362465E+00
   maximum displ.:     0.6239091 α      in ANC's #1, #1, #1, ...

........................................................................
.............................. CYCLE    2 ..............................
........................................................................
   1     -4.1051257 -0.410513E+01  0.389E+00    0.00       0.0  T
   2     -4.1053698 -0.244080E-03  0.232E+00    0.00       1.0  T
   3     -4.1054774 -0.107550E-03  0.122E-01    0.00       1.0  T
   4     -4.1054809 -0.356963E-05  0.244E-02    0.00       2.9  T
   5     -4.1054810 -0.981056E-07  0.255E-03    0.00      27.7  T
   6     -4.1054810 -0.215645E-09  0.180E-04    0.00     392.6  T
   7     -4.1054810 -0.805134E-11  0.644E-06    0.00   10976.4  T
     SCC iter.                  ...        0 min,  0.000 sec
     gradient                   ...        0 min,  0.000 sec
 * total energy  :    -4.1053761 Eh     change       -0.3231340E+00 Eh
   gradient norm :     0.1746632 Eh/α   predicted    -0.5114198E+00 (  58.27%)
   displ. norm   :     0.1071453 α      lambda       -0.1871435E-01
   maximum displ.:     0.1071453 α      in ANC's #1, #1, #1, ...

........................................................................
.............................. CYCLE    3 ..............................
........................................................................
   1     -4.1213934 -0.412139E+01  0.378E-01    0.00       0.0  T
   2     -4.1213995 -0.617071E-05  0.221E-01    0.00       1.0  T
   3     -4.1214018 -0.232500E-05  0.165E-02    0.00       4.3  T
   4     -4.1214019 -0.554340E-07  0.856E-04    0.00      82.6  T
   5     -4.1214019 -0.604743E-10  0.422E-04    0.00     167.6  T
     SCC iter.                  ...        0 min,  0.000 sec
     gradient                   ...        0 min,  0.000 sec
 * total energy  :    -4.1213589 Eh     change       -0.1598272E-01 Eh
   gradient norm :     0.1262144 Eh/α   predicted    -0.9464595E-02 ( -40.78%)
   displ. norm   :     0.2602238 α      lambda       -0.3284399E-01
   maximum displ.:     0.2602238 α      in ANC's #1, #1, #1, ...

........................................................................
.............................. CYCLE    4 ..............................
........................................................................
   1     -4.1439286 -0.414393E+01  0.659E-01    0.00       0.0  T
   2     -4.1439601 -0.314556E-04  0.389E-01    0.00       1.0  T
   3     -4.1439725 -0.123688E-04  0.389E-02    0.00       1.8  T
   4     -4.1439728 -0.293005E-06  0.441E-03    0.00      16.0  T
   5     -4.1439728 -0.344814E-08  0.549E-04    0.00     128.8  T
   6     -4.1439728 -0.439115E-11  0.221E-05    0.00    3194.2  T
     SCC iter.                  ...        0 min,  0.000 sec
     gradient                   ...        0 min,  0.000 sec
 * total energy  :    -4.1439682 Eh     change       -0.2260934E-01 Eh
   gradient norm :     0.0564666 Eh/α   predicted    -0.1753403E-01 ( -22.45%)
   displ. norm   :     0.2020706 α      lambda       -0.1141025E-01
   maximum displ.:     0.2020706 α      in ANC's #1, #1, #1, ...

........................................................................
.............................. CYCLE    5 ..............................
........................................................................
   1     -4.1523839 -0.415238E+01  0.338E-01    0.00       0.0  T
   2     -4.1523967 -0.128015E-04  0.199E-01    0.00       1.0  T
   3     -4.1524019 -0.516660E-05  0.254E-02    0.00       2.8  T
   4     -4.1524019 -0.794432E-07  0.242E-03    0.00      29.2  T
   5     -4.1524019 -0.544349E-09  0.328E-04    0.00     215.4  T
   6     -4.1524019 -0.226930E-11  0.134E-05    0.00    5288.2  T
     SCC iter.                  ...        0 min,  0.000 sec
     gradient                   ...        0 min,  0.000 sec
 * total energy  :    -4.1524012 Eh     change       -0.8433006E-02 Eh
   gradient norm :     0.0297401 Eh/α   predicted    -0.5938080E-02 ( -29.59%)
   displ. norm   :     0.2145084 α      lambda       -0.6379497E-02
   maximum displ.:     0.2145084 α      in ANC's #1, #1, #1, ...

........................................................................
.............................. CYCLE    6 ..............................
........................................................................
   1     -4.1569962 -0.415700E+01  0.228E-01    0.00       0.0  T
   2     -4.1570039 -0.775385E-05  0.135E-01    0.00       1.0  T
   3     -4.1570073 -0.339263E-05  0.232E-02    0.00       3.1  T
   4     -4.1570074 -0.159740E-07  0.217E-03    0.00      32.6  T
   5     -4.1570074 -0.138323E-09  0.460E-04    0.00     153.9  T
   6     -4.1570074 -0.504841E-11  0.196E-05    0.00    3610.1  T
     SCC iter.                  ...        0 min,  0.000 sec
     gradient                   ...        0 min,  0.000 sec
 * total energy  :    -4.1570073 Eh     change       -0.4606052E-02 Eh
   gradient norm :     0.0148770 Eh/α   predicted    -0.3336521E-02 ( -27.56%)
   displ. norm   :     0.2056308 α      lambda       -0.3059170E-02
   maximum displ.:     0.2056308 α      in ANC's #1, #1, #1, ...

........................................................................
.............................. CYCLE    7 ..............................
........................................................................
   1     -4.1592348 -0.415923E+01  0.145E-01    0.00       0.0  T
   2     -4.1592377 -0.295439E-05  0.818E-02    0.00       1.0  T
   3     -4.1592391 -0.139990E-05  0.151E-02    0.00       4.7  T
   4     -4.1592391 -0.209758E-08  0.936E-04    0.00      75.5  T
   5     -4.1592391 -0.314548E-10  0.427E-04    0.00     165.7  T
     SCC iter.                  ...        0 min,  0.000 sec
     gradient                   ...        0 min,  0.000 sec
 * total energy  :    -4.1592391 Eh     change       -0.2231863E-02 Eh
   gradient norm :     0.0076306 Eh/α   predicted    -0.1594263E-02 ( -28.57%)
   displ. norm   :     0.2072334 α      lambda       -0.1581314E-02
   maximum displ.:     0.2072334 α      in ANC's #1, #1, #1, ...

........................................................................
.............................. CYCLE    8 ..............................
........................................................................
   1     -4.1603878 -0.416039E+01  0.123E-01    0.00       0.0  T
   2     -4.1603887 -0.932089E-06  0.693E-02    0.00       1.0  T
   3     -4.1603892 -0.470720E-06  0.507E-03    0.00      13.9  T
   4     -4.1603892 -0.460196E-09  0.334E-04    0.00     211.5  T
   5     -4.1603892 -0.117728E-10  0.201E-04    0.00     352.6  T
     SCC iter.                  ...        0 min,  0.000 sec
     gradient                   ...        0 min,  0.000 sec
 * total energy  :    -4.1603892 Eh     change       -0.1150056E-02 Eh
   gradient norm :     0.0038819 Eh/α   predicted    -0.8246121E-03 ( -28.30%)
   displ. norm   :     0.2055307 α      lambda       -0.7978460E-03
   maximum displ.:     0.2055307 α      in ANC's #1, #1, #1, ...

........................................................................
.............................. CYCLE    9 ..............................
........................................................................
   1     -4.1609685 -0.416097E+01  0.110E-01    0.00       0.0  T
   2     -4.1609687 -0.239168E-06  0.671E-02    0.00       1.1  T
   3     -4.1609688 -0.128775E-06  0.357E-03    0.00      19.8  T
   4     -4.1609688 -0.795843E-09  0.418E-04    0.00     169.0  T
   5     -4.1609688 -0.869882E-11  0.226E-04    0.00     313.6  T
     SCC iter.                  ...        0 min,  0.000 sec
     gradient                   ...        0 min,  0.000 sec
 * total energy  :    -4.1609688 Eh     change       -0.5796679E-03 Eh
   gradient norm :     0.0019696 Eh/α   predicted    -0.4157751E-03 ( -28.27%)
   displ. norm   :     0.2847915 α      lambda       -0.3739544E-03
   maximum displ.:     0.2847915 α      in ANC's #1, #1, #1, ...

........................................................................
.............................. CYCLE   10 ..............................
........................................................................
   1     -4.1613300 -0.416133E+01  0.113E-01    0.00       0.0  T
   2     -4.1613302 -0.119439E-06  0.748E-02    0.00       1.0  T
   3     -4.1613302 -0.911246E-07  0.644E-03    0.00      11.0  T
   4     -4.1613303 -0.269335E-08  0.493E-04    0.00     143.4  T
   5     -4.1613303 -0.371703E-11  0.171E-04    0.00     414.2  T
     SCC iter.                  ...        0 min,  0.000 sec
     gradient                   ...        0 min,  0.000 sec
 * total energy  :    -4.1613303 Eh     change       -0.3614064E-03 Eh
   gradient norm :     0.0007518 Eh/α   predicted    -0.1937159E-03 ( -46.40%)
   displ. norm   :     0.1121424 α      lambda       -0.5620506E-04
   maximum displ.:     0.1121424 α      in ANC's #1, #1, #1, ...

........................................................................
.............................. CYCLE   11 ..............................
........................................................................
   1     -4.1613999 -0.416140E+01  0.315E-02    0.00       0.0  T
   2     -4.1613999 -0.927002E-08  0.216E-02    0.00       3.3  T
   3     -4.1613999 -0.866371E-08  0.190E-03    0.00      37.2  T
   4     -4.1613999 -0.209377E-09  0.873E-05    0.00     809.9  T
   5     -4.1613999 -0.976996E-13  0.315E-05    0.00    2243.1  T
     SCC iter.                  ...        0 min,  0.000 sec
     gradient                   ...        0 min,  0.000 sec
 * total energy  :    -4.1613999 Eh     change       -0.6965333E-04 Eh
   gradient norm :     0.0005050 Eh/α   predicted    -0.2826065E-04 ( -59.43%)
   displ. norm   :     0.0755594 α      lambda       -0.2543686E-04
   maximum displ.:     0.0755594 α      in ANC's #1, #1, #1, ...

........................................................................
.............................. CYCLE   12 ..............................
........................................................................
   1     -4.1614332 -0.416143E+01  0.171E-02    0.00       0.0  T
   2     -4.1614332 -0.284690E-08  0.119E-02    0.00       6.0  T
   3     -4.1614332 -0.285833E-08  0.107E-03    0.00      66.0  T
   4     -4.1614332 -0.598854E-10  0.348E-05    0.00    2032.6  T
   5     -4.1614332 -0.115463E-13  0.143E-05    0.00    4958.2  T
     SCC iter.                  ...        0 min,  0.000 sec
     gradient                   ...        0 min,  0.000 sec
 * total energy  :    -4.1614332 Eh     change       -0.3332256E-04 Eh
   gradient norm :     0.0003819 Eh/α   predicted    -0.1275170E-04 ( -61.73%)
   displ. norm   :     0.0572054 α      lambda       -0.1456590E-04
   maximum displ.:     0.0572054 α      in ANC's #1, #1, #1, ...

........................................................................
.............................. CYCLE   13 ..............................
........................................................................
   1     -4.1614529 -0.416145E+01  0.110E-02    0.00       0.0  T
   2     -4.1614529 -0.120728E-08  0.767E-03    0.00       9.2  T
   3     -4.1614529 -0.126244E-08  0.705E-04    0.00     100.3  T
   4     -4.1614529 -0.238476E-10  0.178E-05    0.00    3980.6  T
     SCC iter.                  ...        0 min,  0.000 sec
     gradient                   ...        0 min,  0.000 sec
 * total energy  :    -4.1614529 Eh     change       -0.1962635E-04 Eh
   gradient norm :     0.0003065 Eh/α   predicted    -0.7293302E-05 ( -62.84%)
   displ. norm   :     0.0459365 α      lambda       -0.9388670E-05
   maximum displ.:     0.0459365 α      in ANC's #1, #1, #1, ...

........................................................................
.............................. CYCLE   14 ..............................
........................................................................
   1     -4.1614657 -0.416147E+01  0.768E-03    0.00       0.0  T
   2     -4.1614657 -0.606323E-09  0.539E-03    0.00      13.1  T
   3     -4.1614657 -0.651154E-09  0.503E-04    0.00     140.6  T
   4     -4.1614657 -0.113642E-10  0.105E-05    0.00    6759.4  T
     SCC iter.                  ...        0 min,  0.000 sec
     gradient                   ...        0 min,  0.000 sec
 * total energy  :    -4.1614657 Eh     change       -0.1287274E-04 Eh
   gradient norm :     0.0002552 Eh/α   predicted    -0.4698044E-05 ( -63.50%)
   displ. norm   :     0.0382516 α      lambda       -0.6507184E-05
   maximum displ.:     0.0382516 α      in ANC's #1, #1, #1, ...

........................................................................
.............................. CYCLE   15 ..............................
........................................................................
   1     -4.1614748 -0.416147E+01  0.570E-03    0.00       0.0  T
   2     -4.1614748 -0.340194E-09  0.402E-03    0.00      17.6  T
   3     -4.1614748 -0.372336E-09  0.379E-04    0.00     186.6  T
   4     -4.1614748 -0.610800E-11  0.679E-06    0.00   10419.0  T
     SCC iter.                  ...        0 min,  0.000 sec
     gradient                   ...        0 min,  0.000 sec
 * total energy  :    -4.1614748 Eh     change       -0.9031454E-05 Eh
   gradient norm :     0.0002178 Eh/α   predicted    -0.3255756E-05 ( -63.95%)
   displ. norm   :     0.0326538 α      lambda       -0.4739233E-05
   maximum displ.:     0.0326538 α      in ANC's #1, #1, #1, ...

........................................................................
.............................. CYCLE   16 ..............................
........................................................................
   1     -4.1614814 -0.416148E+01  0.440E-03    0.00       0.0  T
   2     -4.1614814 -0.206141E-09  0.311E-03    0.00      22.7  T
   3     -4.1614814 -0.228841E-09  0.297E-04    0.00     238.5  T
   4     -4.1614814 -0.356160E-11  0.471E-06    0.00   15010.5  T
     SCC iter.                  ...        0 min,  0.000 sec
     gradient                   ...        0 min,  0.000 sec
 * total energy  :    -4.1614814 Eh     change       -0.6638619E-05 Eh
   gradient norm :     0.0001893 Eh/α   predicted    -0.2371733E-05 ( -64.27%)
   displ. norm   :     0.0283858 α      lambda       -0.3583639E-05
   maximum displ.:     0.0283858 α      in ANC's #1, #1, #1, ...

........................................................................
.............................. CYCLE   17 ..............................
........................................................................
   1     -4.1614864 -0.416149E+01  0.350E-03    0.00       0.0  T
   2     -4.1614864 -0.132317E-09  0.248E-03    0.00      28.5  T
   3     -4.1614864 -0.148519E-09  0.239E-04    0.00     296.3  T
   4     -4.1614864 -0.221956E-11  0.344E-06    0.00   20568.4  T
     SCC iter.                  ...        0 min,  0.000 sec
     gradient                   ...        0 min,  0.000 sec
 * total energy  :    -4.1614864 Eh     change       -0.5050053E-05 Eh
   gradient norm :     0.0001668 Eh/α   predicted    -0.1791843E-05 ( -64.52%)
   displ. norm   :     0.0250204 α      lambda       -0.2783493E-05
   maximum displ.:     0.0250204 α      in ANC's #1, #1, #1, ...

........................................................................
.............................. CYCLE   18 ..............................
........................................................................
   1     -4.1614904 -0.416149E+01  0.286E-03    0.00       0.0  T
   2     -4.1614904 -0.888383E-10  0.203E-03    0.00      34.9  T
   3     -4.1614904 -0.100602E-09  0.196E-04    0.00     360.2  T
   4     -4.1614904 -0.144862E-11  0.261E-06    0.00   27121.5  T
     SCC iter.                  ...        0 min,  0.000 sec
     gradient                   ...        0 min,  0.000 sec
 * total energy  :    -4.1614904 Eh     change       -0.3944317E-05 Eh
   gradient norm :     0.0001487 Eh/α   predicted    -0.1391933E-05 ( -64.71%)
   displ. norm   :     0.0222973 α      lambda       -0.2211158E-05
   maximum displ.:     0.0222973 α      in ANC's #1, #1, #1, ...

   *** GEOMETRY OPTIMIZATION CONVERGED AFTER 18 ITERATIONS ***

------------------------------------------------------------------------
 total energy gain   :        -0.3792482 Eh     -237.9819 kcal/mol
 total RMSD          :         1.9277136 a0        1.0201 Å
 total power (kW/mol):       -55.3175606 (step)********** (real)
------------------------------------------------------------------------

 ANCopt (total)                0 d,  0 h,  0 min,  0.006 sec
 optimizer setup                ...        0 min,  0.000 sec (  1.114%)
 model hessian                  ...        0 min,  0.000 sec (  0.284%)
 ANC generation                 ...        0 min,  0.000 sec (  0.456%)
 coordinate transformation      ...        0 min,  0.000 sec (  0.512%)
 single point calculation       ...        0 min,  0.005 sec ( 81.427%)
 optimization log               ...        0 min,  0.000 sec (  4.835%)
 hessian update                 ...        0 min,  0.000 sec (  0.490%)
 rational function              ...        0 min,  0.000 sec (  3.665%)

================
 final structure:
================
2
 xtb: 6.2.2 (9d81278992624c895f80dd42a50cac0aa55982e2)
O         1.51522918191835    0.00000000000000    0.00000000000000
H        -1.51522918191835    0.00000000000000    0.00000000000000

 Bond Distances (Angstroems)
 ---------------------------


 selected bond angles (degree)
 --------------------


 selected dihedral angles (degree)
 ---------------------------------

           -------------------------------------------------
          |                Final Singlepoint                |
           -------------------------------------------------

          ...................................................
          :                      SETUP                      :
          :.................................................:
          :  # basis functions                   5          :
          :  # atomic orbitals                   5          :
          :  # shells                            3          :
          :  # electrons                         7          :
          :  max. iterations                   250          :
          :  Hamiltonian                  GFN2-xTB          :
          :  restarted?                      false          :
          :  GBSA solvation                  false          :
          :  PC potential                    false          :
          :  electronic temp.          300.0000000     K    :
          :  accuracy                    1.0000000          :
          :  -> integral cutoff          0.2500000E+02      :
          :  -> integral neglect         0.1000000E-07      :
          :  -> SCF convergence          0.1000000E-05 Eh   :
          :  -> wf. convergence          0.1000000E-03 e    :
          :  Broyden damping             0.4000000          :
          ...................................................

 iter      E             dE          RMSdq      gap      omega  full diag
   1     -4.1614904 -0.416149E+01  0.236E-07    0.00       0.0  T
   2     -4.1614904  0.177636E-14  0.156E-07    0.00  100000.0  T
   3     -4.1614904 -0.177636E-14  0.204E-08    0.00  100000.0  T

   *** convergence criteria satisfied after 3 iterations ***

         #    Occupation            Energy/Eh            Energy/eV
      -------------------------------------------------------------
         1        2.0000           -0.7437330             -20.2380
         2        1.9240           -0.5737119             -15.6115
         3        1.0380           -0.5682676             -15.4633
         4        1.0380           -0.5682676             -15.4633
         5        1.0000           -0.3904095             -10.6236 (HOMO)
      -------------------------------------------------------------
                  HL-Gap            0.3904095 Eh           10.6236 eV
             Fermi-level           -0.2856691 Eh           -7.7735 eV

 SCC (total)                   0 d,  0 h,  0 min,  0.000 sec
 SCC setup                      ...        0 min,  0.000 sec ( 11.841%)
 Dispersion                     ...        0 min,  0.000 sec (  0.917%)
 integral evaluation            ...        0 min,  0.000 sec ( 33.919%)
 zeroth order Hamiltonian       ...        0 min,  0.000 sec (  0.917%)
 iterations                     ...        0 min,  0.000 sec ( 27.196%)
 molecular gradient             ...        0 min,  0.000 sec ( 13.751%)
 printout                       ...        0 min,  0.000 sec (  8.021%)

         :::::::::::::::::::::::::::::::::::::::::::::::::::::
         ::                     SUMMARY                     ::
         :::::::::::::::::::::::::::::::::::::::::::::::::::::
         :: total energy              -4.161490389795 Eh    ::
         :: gradient norm              0.000148681473 Eh/a0 ::
         :: HOMO-LUMO gap              0.000000000000 eV    ::
         ::.................................................::
         :: SCC energy                -4.161490389788 Eh    ::
         :: -> isotropic ES            0.000000179226 Eh    ::
         :: -> anisotropic ES          0.000002308311 Eh    ::
         :: -> anisotropic XC         -0.001579146440 Eh    ::
         :: -> dispersion             -0.000124385485 Eh    ::
         :: repulsion energy           0.000000000000 Eh    ::
         :: add. restraining           0.000000000000 Eh    ::
         :::::::::::::::::::::::::::::::::::::::::::::::::::::
Molecule has the following symmetry elements: (Cinf) (sigma) 
It seems to be the Cinfv point group

           ------------------------------------------------- 
          |                Numerical Hessian                |
           ------------------------------------------------- 
step length          :   0.00500
SCC accuracy         :   0.30000
Hessian scale factor :   1.00000
frozen atoms in %    :   0.00000    0
RMS gradient         :   0.00015

writing file <hessian>.

 vibrational frequencies (cm-1)
eigval :        0.00     0.00     0.00     0.00     0.00    98.65
           -------------------------------------------------
          |                Property Printout                |
           -------------------------------------------------

    * Orbital Energies and Occupations

         #    Occupation            Energy/Eh            Energy/eV
      -------------------------------------------------------------
         1        2.0000           -0.7437330             -20.2380
         2        1.9240           -0.5737119             -15.6115
         3        1.0380           -0.5682676             -15.4633
         4        1.0380           -0.5682676             -15.4633
         5        1.0000           -0.3904095             -10.6236 (HOMO)
      -------------------------------------------------------------
                  HL-Gap            0.3904095 Eh           10.6236 eV
             Fermi-level           -0.2856691 Eh           -7.7735 eV

     #   Z        covCN         q      C6AA      α(0)
     1   8 O      0.000     0.001    15.557     5.195
     2   1 H      0.000    -0.001     7.654     5.059

 Mol. C6AA /au·bohr⁶  :         43.793465
 Mol. C8AA /au·bohr⁸  :        727.949969
 Mol. α(0) /au        :         10.253847


Wiberg/Mayer (AO) data.
largest (>0.10) Wiberg bond orders for each atom
          total WBO             WBO to atom ...
     1  O   0.001    
     2  H   0.001    

MOs/occ written to file <molden.input>


molecular dipole:
                 x           y           z       tot (Debye)
 q only:        0.004      -0.000      -0.000
   full:        0.004      -0.000      -0.000       0.011
molecular quadrupole (traceless):
                xx          xy          yy          xz          yz          zz
 q only:       -0.000       0.000       0.000       0.000      -0.000       0.000
  q+dip:        0.002      -0.000      -0.001      -0.000       0.000      -0.001
   full:       -0.581       0.000       0.290       0.000      -0.000       0.290

           -------------------------------------------------
          |                Geometry Summary                 |
           -------------------------------------------------

      molecular mass/u    :       17.0073457
   center of mass at/Å    :        1.3356290      -0.0000070      -0.0000047
  moments of inertia/u·Å² :       -0.1536863E-14   0.8708010E+01   0.8708010E+01
rotational constants/cm⁻¹ :       -0.1096886E+17   0.1935876E+01   0.1935876E+01

           -------------------------------------------------
          |               Frequency Printout                |
           -------------------------------------------------
 vibrational frequencies (cm-1)
eigval :        0.00     0.00     0.00     0.00     0.00    98.65
 reduced masses (amu)
   1:  1.90   2:  1.90   3: 15.11   4: 15.11   5: 15.11   6:  1.90
 IR intensities (amu)
   1:  0.00   2:  0.00   3:  0.01   4:  0.00   5:  0.00   6:  0.01
 Raman intensities (amu)
   1:  0.00   2:  0.00   3:  0.00   4:  0.00   5:  0.00   6:  0.00
 output can be read by thermo (or use thermo option).
 writing <g98.out> molden fake output.
 recommended (thermochemical) frequency scaling factor: 1.0
           -------------------------------------------------
          |             Thermodynamic Functions             |
           -------------------------------------------------

cin symmetry found (for desy threshold:  0.10E+00) used in thermo

          ...................................................
          :                      SETUP                      :
          :.................................................:
          :  # frequencies                           1      :
          :  # imaginary freq.                       0      :
          :  linear?                              true      :
          :  only rotor calc.                    false      :
          :  symmetry                              cin      :
          :  rotational number                       1      :
          :  scaling factor                  1.0000000      :
          :  rotor cutoff                   50.0000000 cm⁻¹ :
          :  imag. cutoff                  -20.0000000 cm⁻¹ :
          :.................................................:

    mode    ω/cm⁻¹     T·S(HO)/kcal·mol⁻¹    T·S(FR)/kcal·mol⁻¹   T·S(vib)
   ------------------------------------------------------------------------
       1     98.65    -0.00000 ( 93.81%)     0.00534 (  6.19%)     0.00033
   ------------------------------------------------------------------------

   temp. (K)  partition function   enthalpy   heat capacity  entropy
                                   cal/mol     cal/K/mol   cal/K/mol   J/K/mol
 298.15  VIB   2.64                  462.617      1.950      3.441
         ROT   107.                  592.502      1.987     11.274
         INT   283.                 1055.119      3.937     14.715
         TR   0.679E+26             1481.254      4.968     34.422
         TOT                        2536.3728     8.9056    49.1373   205.5903

   temp. (K)  partition function   enthalpy   heat capacity  entropy
                                   cal/mol     cal/K/mol   cal/K/mol   J/K/mol
 120.00  VIB   1.44                  124.614      1.771      1.776
         ROT   43.1                  238.471      1.987      9.466
         INT   62.1                  363.085      3.758     11.242
         TR   0.173E+26              596.178      4.968     29.903
         TOT                         959.2631     8.7263    41.1442   172.1473

   temp. (K)  partition function   enthalpy   heat capacity  entropy
                                   cal/mol     cal/K/mol   cal/K/mol   J/K/mol
 100.00  VIB   1.32                   89.987      1.685      1.469
         ROT   35.9                  198.726      1.987      9.103
         INT   47.4                  288.713      3.672     10.572
         TR   0.132E+26              496.815      4.968     28.997
         TOT                         785.5284     8.6401    39.5694   165.5584

   temp. (K)  partition function   enthalpy   heat capacity  entropy
                                   cal/mol     cal/K/mol   cal/K/mol   J/K/mol
  80.00  VIB   1.20                   57.616      1.539      1.117
         ROT   28.7                  158.981      1.987      8.660
         INT   34.6                  216.597      3.526      9.777
         TR   0.943E+25              397.452      4.968     27.889
         TOT                         614.0489     8.4942    37.6659   157.5942

   temp. (K)  partition function   enthalpy   heat capacity  entropy
                                   cal/mol     cal/K/mol   cal/K/mol   J/K/mol
  60.00  VIB   1.10                   29.228      1.272      0.718
         ROT   21.5                  119.236      1.987      8.088
         INT   23.8                  148.464      3.259      8.806
         TR   0.613E+25              298.089      4.968     26.461
         TOT                         446.5526     8.2272    35.2666   147.5556

   temp. (K)  partition function   enthalpy   heat capacity  entropy
                                   cal/mol     cal/K/mol   cal/K/mol   J/K/mol
  40.00  VIB   1.03                    8.356      0.763      0.303
         ROT   14.4                   79.490      1.987      7.282
         INT   14.8                   87.846      2.750      7.585
         TR   0.333E+25              198.726      4.968     24.447
         TOT                         286.5719     7.7186    32.0321   134.0223

   temp. (K)  partition function   enthalpy   heat capacity  entropy
                                   cal/mol     cal/K/mol   cal/K/mol   J/K/mol
  20.00  VIB   1.00                    0.234      0.083      0.022
         ROT   7.18                   39.745      1.987      5.905
         INT   7.19                   39.979      2.070      5.927
         TR   0.118E+25               99.363      4.968     21.005
         TOT                         139.3419     7.0384    26.9321   112.6841

   temp. (K)  partition function   enthalpy   heat capacity  entropy
                                   cal/mol     cal/K/mol   cal/K/mol   J/K/mol
  10.00  VIB   1.00                    0.000      0.000     -0.033
         ROT   3.59                   19.873      1.987      4.527
         INT   3.59                   19.873      1.988      4.494
         TR   0.417E+24               49.681      4.968     17.563
         TOT                          69.5543     6.9557    22.0576    92.2889

       T/K    H(0)-H(T)+PV         H(T)/Eh          T*S/Eh         G(T)/Eh
   ------------------------------------------------------------------------
    298.15    0.404197E-02    0.426671E-02    0.233467E-01   -0.190800E-01
    120.00    0.152868E-02    0.175343E-02    0.786809E-02   -0.611467E-02
    100.00    0.125182E-02    0.147656E-02    0.630578E-02   -0.482922E-02
     80.00    0.978549E-03    0.120329E-02    0.480196E-02   -0.359866E-02
     60.00    0.711627E-03    0.936369E-03    0.337206E-02   -0.243569E-02
     40.00    0.456681E-03    0.681424E-03    0.204186E-02   -0.136043E-02
     20.00    0.222055E-03    0.446798E-03    0.858382E-03   -0.411584E-03
     10.00    0.110842E-03    0.335584E-03    0.351510E-03   -0.159255E-04 (used)
   ------------------------------------------------------------------------

         :::::::::::::::::::::::::::::::::::::::::::::::::::::
         ::                  THERMODYNAMIC                  ::
         :::::::::::::::::::::::::::::::::::::::::::::::::::::
         :: total free energy          -4.161506315338 Eh   ::
         ::.................................................::
         :: total energy               -4.161490389795 Eh   ::
         :: zero point energy           0.000224742492 Eh   ::
         :: G(RRHO) w/o ZPVE           -0.000240668035 Eh   ::
         :: G(RRHO) contrib.           -0.000015925543 Eh   ::
         :::::::::::::::::::::::::::::::::::::::::::::::::::::

optimized geometry written to: xtbopt.xyz


           -------------------------------------------------
          | TOTAL ENERGY               -4.161490389795 Eh   |
          | TOTAL ENTHALPY             -4.161154805482 Eh   |
          | TOTAL FREE ENERGY          -4.161506315338 Eh   |
          | GRADIENT NORM               0.000148681471 Eh/α |
          | HOMO-LUMO GAP              10.623583749871 eV   |
           -------------------------------------------------

------------------------------------------------------------------------
 * finished run on 2020/05/12 at 11:44:43.689     
------------------------------------------------------------------------
 total:
 * wall-time:     0 d,  0 h,  0 min,  0.027 sec
 *  cpu-time:     0 d,  0 h,  0 min,  0.027 sec
 * ratio c/w:     0.999 speedup
 SCF:
 * wall-time:     0 d,  0 h,  0 min,  0.001 sec
 *  cpu-time:     0 d,  0 h,  0 min,  0.001 sec
 * ratio c/w:     1.000 speedup
 ANC optimizer:
 * wall-time:     0 d,  0 h,  0 min,  0.007 sec
 *  cpu-time:     0 d,  0 h,  0 min,  0.007 sec
 * ratio c/w:     1.000 speedup
 numerical hessian:
 * wall-time:     0 d,  0 h,  0 min,  0.003 sec
 *  cpu-time:     0 d,  0 h,  0 min,  0.003 sec
 * ratio c/w:     1.000 speedup

