$hessian                                                                        
        0.0003492149  -0.0000000015  -0.0000000010  -0.0003492149   0.0000000015
        0.0000000010
       -0.0000000015  -0.0000133555  -0.0000000000   0.0000000015   0.0000133555
        0.0000000000
       -0.0000000010  -0.0000000000  -0.0000133555   0.0000000010   0.0000000000
        0.0000133555
       -0.0003492149   0.0000000015   0.0000000010   0.0003492149  -0.0000000015
       -0.0000000010
        0.0000000015   0.0000133555   0.0000000000  -0.0000000015  -0.0000133555
       -0.0000000000
        0.0000000010   0.0000000000   0.0000133555  -0.0000000010  -0.0000000000
       -0.0000133555
