2
 energy: -3.782242159835 gnorm: 1.180054152147 xtb: 6.2.2 (9d81278992624c895f80dd42a50cac0aa55982e2)
O         0.49512700000000    0.00000000000000    0.00000000000000
H        -0.49512700000000    0.00000000000000    0.00000000000000
2
 energy: -4.105376145812 gnorm: 0.174663222504 xtb: 6.2.2 (9d81278992624c895f80dd42a50cac0aa55982e2)
O         0.72858430349809    0.00000000000000    0.00000000000000
H        -0.72858430349809    0.00000000000000    0.00000000000000
2
 energy: -4.121358862790 gnorm: 0.126214400850 xtb: 6.2.2 (9d81278992624c895f80dd42a50cac0aa55982e2)
O         0.76867645836746    0.00000000000000    0.00000000000000
H        -0.76867645836746    0.00000000000000    0.00000000000000
2
 energy: -4.143968199099 gnorm: 0.056466647186 xtb: 6.2.2 (9d81278992624c895f80dd42a50cac0aa55982e2)
O         0.86604824752883    0.00000000000000    0.00000000000000
H        -0.86604824752883    0.00000000000000    0.00000000000000
2
 energy: -4.152401205159 gnorm: 0.029740081553 xtb: 6.2.2 (9d81278992624c895f80dd42a50cac0aa55982e2)
O         0.94166001485501    0.00000000000000    0.00000000000000
H        -0.94166001485501    0.00000000000000    0.00000000000000
2
 energy: -4.157007256882 gnorm: 0.014877010188 xtb: 6.2.2 (9d81278992624c895f80dd42a50cac0aa55982e2)
O         1.02192579801463    0.00000000000000    0.00000000000000
H        -1.02192579801463    0.00000000000000    0.00000000000000
2
 energy: -4.159239120049 gnorm: 0.007630593521 xtb: 6.2.2 (9d81278992624c895f80dd42a50cac0aa55982e2)
O         1.09886971041488    0.00000000000000    0.00000000000000
H        -1.09886971041488    0.00000000000000    0.00000000000000
2
 energy: -4.160389176140 gnorm: 0.003881887394 xtb: 6.2.2 (9d81278992624c895f80dd42a50cac0aa55982e2)
O         1.17641329886327    0.00000000000000    0.00000000000000
H        -1.17641329886327    0.00000000000000    0.00000000000000
2
 energy: -4.160968844006 gnorm: 0.001969608555 xtb: 6.2.2 (9d81278992624c895f80dd42a50cac0aa55982e2)
O         1.25331976984405    0.00000000000000    0.00000000000000
H        -1.25331976984405    0.00000000000000    0.00000000000000
2
 energy: -4.161330250372 gnorm: 0.000751818213 xtb: 6.2.2 (9d81278992624c895f80dd42a50cac0aa55982e2)
O         1.35988441161024    0.00000000000000    0.00000000000000
H        -1.35988441161024    0.00000000000000    0.00000000000000
2
 energy: -4.161399903702 gnorm: 0.000505010564 xtb: 6.2.2 (9d81278992624c895f80dd42a50cac0aa55982e2)
O         1.40184640434949    0.00000000000000    0.00000000000000
H        -1.40184640434949    0.00000000000000    0.00000000000000
2
 energy: -4.161433226260 gnorm: 0.000381924526 xtb: 6.2.2 (9d81278992624c895f80dd42a50cac0aa55982e2)
O         1.43011957019233    0.00000000000000    0.00000000000000
H        -1.43011957019233    0.00000000000000    0.00000000000000
2
 energy: -4.161452852610 gnorm: 0.000306530540 xtb: 6.2.2 (9d81278992624c895f80dd42a50cac0aa55982e2)
O         1.45152494818480    0.00000000000000    0.00000000000000
H        -1.45152494818480    0.00000000000000    0.00000000000000
2
 energy: -4.161465725349 gnorm: 0.000255176685 xtb: 6.2.2 (9d81278992624c895f80dd42a50cac0aa55982e2)
O         1.46871367519010    0.00000000000000    0.00000000000000
H        -1.46871367519010    0.00000000000000    0.00000000000000
2
 energy: -4.161474756803 gnorm: 0.000217795016 xtb: 6.2.2 (9d81278992624c895f80dd42a50cac0aa55982e2)
O         1.48302684786216    0.00000000000000    0.00000000000000
H        -1.48302684786216    0.00000000000000    0.00000000000000
2
 energy: -4.161481395422 gnorm: 0.000189306278 xtb: 6.2.2 (9d81278992624c895f80dd42a50cac0aa55982e2)
O         1.49524539370740    0.00000000000000    0.00000000000000
H        -1.49524539370740    0.00000000000000    0.00000000000000
2
 energy: -4.161486445475 gnorm: 0.000166849236 xtb: 6.2.2 (9d81278992624c895f80dd42a50cac0aa55982e2)
O         1.50586691943599    0.00000000000000    0.00000000000000
H        -1.50586691943599    0.00000000000000    0.00000000000000
2
 energy: -4.161490389791 gnorm: 0.000148681340 xtb: 6.2.2 (9d81278992624c895f80dd42a50cac0aa55982e2)
O         1.51522918191835    0.00000000000000    0.00000000000000
H        -1.51522918191835    0.00000000000000    0.00000000000000
