2
 energy: -4.161490389795 gnorm: 0.000148681473 xtb: 6.2.2 (9d81278992624c895f80dd42a50cac0aa55982e2)
O         1.51522918188835   -0.00000793372144   -0.00000528914763
H        -1.51522918188835    0.00000793372144    0.00000528914763
