[Molden Format]
[Title]
[Atoms] AU
O      1     8  0.28633679041468E+01 -0.14992559287124E-04 -0.99950395248359E-05
H      2     1 -0.28633679041468E+01  0.14992559287124E-04  0.99950395248359E-05
[GTO]
           1 0
 s           4   1.0000000000000000     
   69.137961906196551      -0.20478756370077797     
   11.906129132707308      -0.24997023136827334     
  0.95670827744340703       0.40025880240639616     
  0.36462520496073686       0.15952206667693555     
 p           4   1.0000000000000000     
   8.2124193257781641        1.1321556799186829     
   2.1293576997098116        1.0476840782254817     
  0.75066448202360914       0.54956508217158984     
  0.29885246543283073        8.2908486592766617E-002

           2 0
 s           3   1.0000000000000000     
   3.3702276975336001       0.27359110588908298     
  0.61389118221497996       0.26460540653860526     
  0.16614291148415999        8.2465947534082318E-002

[MO]
Sym=     1a
Ene=  -0.74373296380222698     
Spin= Alpha
Occup=     2.00000000
           1  0.99999750546036614     
           2   3.6971200174539205E-005
           3  -8.4923650479603290E-011
           4  -5.6615240116500324E-011
           5   3.9621794197796241E-004
Sym=     2a
Ene=  -0.57371189545848411     
Spin= Alpha
Occup=     1.92404303
           1   1.2045944862175542E-004
           2  0.99944141982383283     
           3  -3.2925013088782125E-007
           4  -2.1950037314564666E-007
           5  -2.3513719113584353E-002
Sym=     3a
Ene=  -0.56826757316025100     
Spin= Alpha
Occup=     1.03797848
           1  -8.6374001002314265E-010
           2   4.0264362728920345E-007
           3  0.83205031678861952     
           4  0.55470016263800304     
           5   1.4215505298640417E-007
Sym=     4a
Ene=  -0.56826757316024590     
Spin= Alpha
Occup=     1.03797848
           1   2.2773744270669501E-016
           2  -2.5390264194821460E-013
           3  0.55470016263805944     
           4 -0.83205031678870389     
           5   0.0000000000000000     
Sym=     5a
Ene=  -0.39040951904325649     
Spin= Alpha
Occup=     1.00000000
           1  -6.4922479178308335E-003
           2   3.5508484194133612E-002
           3  -1.8889586213835206E-007
           4  -1.2593057457943201E-007
           5  0.99981404671652852     
