 Entering Gaussian System, Link 0=g16
 Initial command:
 /applis/site/cecic/gaussian16/B.01/nehalem/g16/l1.exe "/bettik/tinaccil/g16/12338382_C3H7_2X/Gau-148865.inp" -scrdir="/bettik/tinaccil/g16/12338382_C3H7_2X/"
 Entering Link 1 = /applis/site/cecic/gaussian16/B.01/nehalem/g16/l1.exe PID=    148870.
  
 Copyright (c) 1988-2017, Gaussian, Inc.  All Rights Reserved.
  
 This is part of the Gaussian(R) 16 program.  It is based on
 the Gaussian(R) 09 system (copyright 2009, Gaussian, Inc.),
 the Gaussian(R) 03 system (copyright 2003, Gaussian, Inc.),
 the Gaussian(R) 98 system (copyright 1998, Gaussian, Inc.),
 the Gaussian(R) 94 system (copyright 1995, Gaussian, Inc.),
 the Gaussian 92(TM) system (copyright 1992, Gaussian, Inc.),
 the Gaussian 90(TM) system (copyright 1990, Gaussian, Inc.),
 the Gaussian 88(TM) system (copyright 1988, Gaussian, Inc.),
 the Gaussian 86(TM) system (copyright 1986, Carnegie Mellon
 University), and the Gaussian 82(TM) system (copyright 1983,
 Carnegie Mellon University). Gaussian is a federally registered
 trademark of Gaussian, Inc.
  
 This software contains proprietary and confidential information,
 including trade secrets, belonging to Gaussian, Inc.
  
 This software is provided under written license and may be
 used, copied, transmitted, or stored only in accord with that
 written license.
  
 The following legend is applicable only to US Government
 contracts under FAR:
  
                    RESTRICTED RIGHTS LEGEND
  
 Use, reproduction and disclosure by the US Government is
 subject to restrictions as set forth in subparagraphs (a)
 and (c) of the Commercial Computer Software - Restricted
 Rights clause in FAR 52.227-19.
  
 Gaussian, Inc.
 340 Quinnipiac St., Bldg. 40, Wallingford CT 06492
  
  
 ---------------------------------------------------------------
 Warning -- This program may not be used in any manner that
 competes with the business of Gaussian, Inc. or will provide
 assistance to any competitor of Gaussian, Inc.  The licensee
 of this program is prohibited from giving any competitor of
 Gaussian, Inc. access to this program.  By using this program,
 the user acknowledges that Gaussian, Inc. is engaged in the
 business of creating and licensing software in the field of
 computational chemistry and represents and warrants to the
 licensee that it is not a competitor of Gaussian, Inc. and that
 it will not use this program in any manner prohibited above.
 ---------------------------------------------------------------
  

 Cite this work as:
 Gaussian 16, Revision B.01,
 M. J. Frisch, G. W. Trucks, H. B. Schlegel, G. E. Scuseria, 
 M. A. Robb, J. R. Cheeseman, G. Scalmani, V. Barone, 
 G. A. Petersson, H. Nakatsuji, X. Li, M. Caricato, A. V. Marenich, 
 J. Bloino, B. G. Janesko, R. Gomperts, B. Mennucci, H. P. Hratchian, 
 J. V. Ortiz, A. F. Izmaylov, J. L. Sonnenberg, D. Williams-Young, 
 F. Ding, F. Lipparini, F. Egidi, J. Goings, B. Peng, A. Petrone, 
 T. Henderson, D. Ranasinghe, V. G. Zakrzewski, J. Gao, N. Rega, 
 G. Zheng, W. Liang, M. Hada, M. Ehara, K. Toyota, R. Fukuda, 
 J. Hasegawa, M. Ishida, T. Nakajima, Y. Honda, O. Kitao, H. Nakai, 
 T. Vreven, K. Throssell, J. A. Montgomery, Jr., J. E. Peralta, 
 F. Ogliaro, M. J. Bearpark, J. J. Heyd, E. N. Brothers, K. N. Kudin, 
 V. N. Staroverov, T. A. Keith, R. Kobayashi, J. Normand, 
 K. Raghavachari, A. P. Rendell, J. C. Burant, S. S. Iyengar, 
 J. Tomasi, M. Cossi, J. M. Millam, M. Klene, C. Adamo, R. Cammi, 
 J. W. Ochterski, R. L. Martin, K. Morokuma, O. Farkas, 
 J. B. Foresman, and D. J. Fox, Gaussian, Inc., Wallingford CT, 2016.
 
 ******************************************
 Gaussian 16:  ES64L-G16RevB.01 20-Dec-2017
                28-Sep-2020 
 ******************************************
 %nosave
 %nproc=8
 Will use up to    8 processors via shared memory.
 %mem=2gb
 %chk=input
 --------------------------------------------------------
 #P M062X/cc-pvtz nosymm opt(noeigentest) optcyc=120 freq
 --------------------------------------------------------
 1/6=120,11=1,18=20,19=15,26=3,38=1/1,3;
 2/9=110,12=2,15=1,17=6,18=5,40=1/2;
 3/5=16,6=1,11=2,25=1,30=1,71=1,74=-55/1,2,3;
 4//1;
 5/5=2,38=5/2;
 6/7=2,8=2,9=2,10=2,28=1/1;
 7/30=1/1,2,3,16;
 1/6=120,11=1,18=20,19=15,26=3/3(2);
 2/9=110,15=1/2;
 99//99;
 2/9=110,15=1/2;
 3/5=16,6=1,11=2,25=1,30=1,71=1,74=-55/1,2,3;
 4/5=5,16=3,69=1/1;
 5/5=2,38=5/2;
 7/30=1/1,2,3,16;
 1/6=120,11=1,18=20,19=15,26=3/3(-5);
 2/9=110,15=1/2;
 6/7=2,8=2,9=2,10=2,19=2,28=1/1;
 99/9=1/99;
 Leave Link    1 at Mon Sep 28 10:50:16 2020, MaxMem=   268435456 cpu:               0.9 elap:               0.1
 (Enter /applis/site/cecic/gaussian16/B.01/nehalem/g16/l101.exe)
 -----
 Title
 -----
 Symbolic Z-matrix:
 Charge =  0 Multiplicity = 2
 C
 C                    1    B1
 H                    1    B2       2    A2
 H                    1    B3       2    A3       3    D3       0
 C                    2    B4       1    A4       3    D4       0
 H                    5    B5       2    A5       1    D5       0
 H                    2    B6       1    A6       3    D6       0
 H                    2    B7       1    A7       3    D7       0
 H                    5    B8       2    A8       1    D8       0
 H                    5    B9       2    A9       1    D9       0
       Variables:
  B1                    1.52251                  
  B2                    1.11036                  
  A2                  109.92222                  
  B3                    1.11097                  
  A3                  110.55268                  
  D3                  120.36796                  
  B4                    1.52408                  
  A4                  110.82254                  
  D4                  178.81397                  
  B5                    1.11103                  
  A5                  110.25071                  
  D5                  300.04465                  
  B6                    1.11135                  
  A6                  109.45633                  
  D6                  299.738                    
  B7                    1.11092                  
  A7                  109.00088                  
  D7                   58.6618                   
  B8                    1.11101                  
  A8                  110.37792                  
  D8                   60.77071                  
  B9                    1.11039                  
  A9                  109.58115                  
  D9                  180.39886                  
 
 ITRead=  0  0  0  0  0  0  0  0  0  0
 MicOpt= -1 -1 -1 -1 -1 -1 -1 -1 -1 -1
 NAtoms=     10 NQM=       10 NQMF=       0 NMMI=      0 NMMIF=      0
                NMic=       0 NMicF=      0.
                    Isotopes and Nuclear Properties:
 (Nuclear quadrupole moments (NQMom) in fm**2, nuclear magnetic moments (NMagM)
  in nuclear magnetons)

  Atom         1           2           3           4           5           6           7           8           9          10
 IAtWgt=          12          12           1           1          12           1           1           1           1           1
 AtmWgt=  12.0000000  12.0000000   1.0078250   1.0078250  12.0000000   1.0078250   1.0078250   1.0078250   1.0078250   1.0078250
 NucSpn=           0           0           1           1           0           1           1           1           1           1
 AtZEff=  -0.0000000  -0.0000000  -0.0000000  -0.0000000  -0.0000000  -0.0000000  -0.0000000  -0.0000000  -0.0000000  -0.0000000
 NQMom=    0.0000000   0.0000000   0.0000000   0.0000000   0.0000000   0.0000000   0.0000000   0.0000000   0.0000000   0.0000000
 NMagM=    0.0000000   0.0000000   2.7928460   2.7928460   0.0000000   2.7928460   2.7928460   2.7928460   2.7928460   2.7928460
 AtZNuc=   6.0000000   6.0000000   1.0000000   1.0000000   6.0000000   1.0000000   1.0000000   1.0000000   1.0000000   1.0000000
 Leave Link  101 at Mon Sep 28 10:50:16 2020, MaxMem=   268435456 cpu:               2.6 elap:               0.4
 (Enter /applis/site/cecic/gaussian16/B.01/nehalem/g16/l103.exe)

 GradGradGradGradGradGradGradGradGradGradGradGradGradGradGradGradGradGrad
 Berny optimization.
 Initialization pass.
                           ----------------------------
                           !    Initial Parameters    !
                           ! (Angstroms and Degrees)  !
 --------------------------                            --------------------------
 ! Name  Definition              Value          Derivative Info.                !
 --------------------------------------------------------------------------------
 ! R1    R(1,2)                  1.5225         estimate D2E/DX2                !
 ! R2    R(1,3)                  1.1104         estimate D2E/DX2                !
 ! R3    R(1,4)                  1.111          estimate D2E/DX2                !
 ! R4    R(2,5)                  1.5241         estimate D2E/DX2                !
 ! R5    R(2,7)                  1.1114         estimate D2E/DX2                !
 ! R6    R(2,8)                  1.1109         estimate D2E/DX2                !
 ! R7    R(5,6)                  1.111          estimate D2E/DX2                !
 ! R8    R(5,9)                  1.111          estimate D2E/DX2                !
 ! R9    R(5,10)                 1.1104         estimate D2E/DX2                !
 ! A1    A(2,1,3)              109.9222         estimate D2E/DX2                !
 ! A2    A(2,1,4)              110.5527         estimate D2E/DX2                !
 ! A3    A(3,1,4)              108.991          estimate D2E/DX2                !
 ! A4    A(1,2,5)              110.8225         estimate D2E/DX2                !
 ! A5    A(1,2,7)              109.4563         estimate D2E/DX2                !
 ! A6    A(1,2,8)              109.0009         estimate D2E/DX2                !
 ! A7    A(5,2,7)              109.5423         estimate D2E/DX2                !
 ! A8    A(5,2,8)              109.158          estimate D2E/DX2                !
 ! A9    A(7,2,8)              108.8283         estimate D2E/DX2                !
 ! A10   A(2,5,6)              110.2507         estimate D2E/DX2                !
 ! A11   A(2,5,9)              110.3779         estimate D2E/DX2                !
 ! A12   A(2,5,10)             109.5811         estimate D2E/DX2                !
 ! A13   A(6,5,9)              109.1975         estimate D2E/DX2                !
 ! A14   A(6,5,10)             108.7368         estimate D2E/DX2                !
 ! A15   A(9,5,10)             108.6586         estimate D2E/DX2                !
 ! D1    D(3,1,2,5)            178.814          estimate D2E/DX2                !
 ! D2    D(3,1,2,7)            -60.262          estimate D2E/DX2                !
 ! D3    D(3,1,2,8)             58.6618         estimate D2E/DX2                !
 ! D4    D(4,1,2,5)            -60.8181         estimate D2E/DX2                !
 ! D5    D(4,1,2,7)             60.106          estimate D2E/DX2                !
 ! D6    D(4,1,2,8)            179.0298         estimate D2E/DX2                !
 ! D7    D(1,2,5,6)            -59.9554         estimate D2E/DX2                !
 ! D8    D(1,2,5,9)             60.7707         estimate D2E/DX2                !
 ! D9    D(1,2,5,10)          -179.6011         estimate D2E/DX2                !
 ! D10   D(7,2,5,6)            179.1715         estimate D2E/DX2                !
 ! D11   D(7,2,5,9)            -60.1025         estimate D2E/DX2                !
 ! D12   D(7,2,5,10)            59.5257         estimate D2E/DX2                !
 ! D13   D(8,2,5,6)             60.1031         estimate D2E/DX2                !
 ! D14   D(8,2,5,9)           -179.1708         estimate D2E/DX2                !
 ! D15   D(8,2,5,10)           -59.5427         estimate D2E/DX2                !
 --------------------------------------------------------------------------------
 Trust Radius=3.00D-01 FncErr=1.00D-07 GrdErr=1.00D-06 EigMax=2.50D+02 EigMin=1.00D-04
 Number of steps in this run=    100 maximum allowed number of steps=    100.
 GradGradGradGradGradGradGradGradGradGradGradGradGradGradGradGradGradGrad

 Leave Link  103 at Mon Sep 28 10:50:17 2020, MaxMem=   268435456 cpu:               0.2 elap:               0.1
 (Enter /applis/site/cecic/gaussian16/B.01/nehalem/g16/l202.exe)
                          Input orientation:                          
 ---------------------------------------------------------------------
 Center     Atomic      Atomic             Coordinates (Angstroms)
 Number     Number       Type             X           Y           Z
 ---------------------------------------------------------------------
      1          6           0        0.000000    0.000000    0.000000
      2          6           0        0.000000    0.000000    1.522510
      3          1           0        1.043912    0.000000   -0.378349
      4          1           0       -0.525903   -0.897530   -0.390027
      5          6           0       -1.424231    0.029486    2.064282
      6          1           0       -1.950395    0.942871    1.713189
      7          1           0        0.519788   -0.909883    1.892688
      8          1           0        0.546296    0.897151    1.884206
      9          1           0       -1.985305   -0.867963    1.726459
     10          1           0       -1.400038    0.036269    3.174388
 ---------------------------------------------------------------------
                    Distance matrix (angstroms):
                    1          2          3          4          5
     1  C    0.000000
     2  C    1.522510   0.000000
     3  H    1.110360   2.168644   0.000000
     4  H    1.110970   2.177138   1.808318   0.000000
     5  C    2.508099   1.524080   3.472613   2.773081   0.000000
     6  H    2.761895   2.174720   3.772189   3.136840   1.111030
     7  H    2.163408   1.111350   2.502039   2.510858   2.165888
     8  H    2.157209   1.110920   2.484282   3.089114   2.160612
     9  H    2.770461   2.176325   3.789423   2.571038   1.111010
    10  H    3.469605   2.165669   4.312324   3.786970   1.110390
                    6          7          8          9         10
     6  H    0.000000
     7  H    3.093012   0.000000
     8  H    2.502959   1.807248   0.000000
     9  H    1.811219   2.510953   3.090229   0.000000
    10  H    1.805525   2.494733   2.488755   1.804625   0.000000
 Symmetry turned off by external request.
 Stoichiometry    C3H7(2)
 Framework group  C1[X(C3H7)]
 Deg. of freedom    24
 Full point group                 C1      NOp   1
 Rotational constants (GHZ):          31.7477930           9.0098316           7.8911683
 Leave Link  202 at Mon Sep 28 10:50:17 2020, MaxMem=   268435456 cpu:               0.4 elap:               0.1
 (Enter /applis/site/cecic/gaussian16/B.01/nehalem/g16/l301.exe)
 Standard basis: CC-pVTZ (5D, 7F)
 Ernie: Thresh=  0.10000D-02 Tol=  0.10000D-05 Strict=F.
 Ernie:  9 primitive shells out of 134 were deleted.
   188 basis functions,   275 primitive gaussians,   210 cartesian basis functions
    13 alpha electrons       12 beta electrons
       nuclear repulsion energy        75.4440264080 Hartrees.
 IExCor= 4336 DFT=T Ex+Corr=M062X ExCW=0 ScaHFX=  0.540000
 ScaDFX=  1.000000  1.000000  1.000000  1.000000 ScalE2=  1.000000  1.000000
 IRadAn=      5 IRanWt=     -1 IRanGd=            0 ICorTp=0 IEmpDi=  4
 NAtoms=   10 NActive=   10 NUniq=   10 SFac= 1.00D+00 NAtFMM=   60 NAOKFM=F Big=F
 Integral buffers will be    131072 words long.
 Raffenetti 2 integral format.
 Two-electron integral symmetry is turned off.
 Leave Link  301 at Mon Sep 28 10:50:17 2020, MaxMem=   268435456 cpu:               0.9 elap:               0.2
 (Enter /applis/site/cecic/gaussian16/B.01/nehalem/g16/l302.exe)
 NPDir=0 NMtPBC=     1 NCelOv=     1 NCel=       1 NClECP=     1 NCelD=      1
         NCelK=      1 NCelE2=     1 NClLst=     1 CellRange=     0.0.
 One-electron integrals computed using PRISM.
 NBasis=   188 RedAO= T EigKep=  9.55D-04  NBF=   188
 NBsUse=   188 1.00D-06 EigRej= -1.00D+00 NBFU=   188
 Precomputing XC quadrature grid using
 IXCGrd= 4 IRadAn=           5 IRanWt=          -1 IRanGd=           0 AccXCQ= 0.00D+00.
 Generated NRdTot=       0 NPtTot=           0 NUsed=           0 NTot=          32
 NSgBfM=   210   210   210   210   210 MxSgAt=    10 MxSgA2=    10.
 Leave Link  302 at Mon Sep 28 10:50:18 2020, MaxMem=   268435456 cpu:               2.7 elap:               0.4
 (Enter /applis/site/cecic/gaussian16/B.01/nehalem/g16/l303.exe)
 DipDrv:  MaxL=1.
 Leave Link  303 at Mon Sep 28 10:50:18 2020, MaxMem=   268435456 cpu:               1.0 elap:               0.3
 (Enter /applis/site/cecic/gaussian16/B.01/nehalem/g16/l401.exe)
 ExpMin= 1.03D-01 ExpMax= 8.24D+03 ExpMxC= 2.81D+02 IAcc=3 IRadAn=         5 AccDes= 0.00D+00
 Harris functional with IExCor= 1009 and IRadAn=       5 diagonalized for initial guess.
 HarFok:  IExCor= 1009 AccDes= 0.00D+00 IRadAn=         5 IDoV= 1 UseB2=F ITyADJ=14
 ICtDFT=  3500011 ScaDFX=  1.000000  1.000000  1.000000  1.000000
 FoFCou: FMM=F IPFlag=           0 FMFlag=      100000 FMFlg1=           0
         NFxFlg=           0 DoJE=T BraDBF=F KetDBF=T FulRan=T
         wScrn=  0.000000 ICntrl=       500 IOpCl=  0 I1Cent=   200000004 NGrid=           0
         NMat0=    1 NMatS0=      1 NMatT0=    0 NMatD0=    1 NMtDS0=    0 NMtDT0=    0
 Symmetry not used in FoFCou.
 Harris En= -118.403144049303    
 JPrj=0 DoOrth=F DoCkMO=F.
 Initial guess <Sx>= 0.0000 <Sy>= 0.0000 <Sz>= 0.5000 <S**2>= 0.7500 S= 0.5000
 Leave Link  401 at Mon Sep 28 10:50:19 2020, MaxMem=   268435456 cpu:               6.2 elap:               0.9
 (Enter /applis/site/cecic/gaussian16/B.01/nehalem/g16/l502.exe)
 Two-electron integral symmetry not used.
 UHF open shell SCF:
 Using DIIS extrapolation, IDIIS=  1040.
 NGot=   268435456 LenX=   268344050 LenY=   268299509
 Requested convergence on RMS density matrix=1.00D-08 within 128 cycles.
 Requested convergence on MAX density matrix=1.00D-06.
 Requested convergence on             energy=1.00D-06.
 No special actions if energy rises.
 Fock matrices will be formed incrementally for  20 cycles.
 Integral accuracy reduced to 1.0D-05 until final iterations.

 Cycle   1  Pass 0  IDiag  1:
 FoFJK:  IHMeth= 1 ICntrl=       0 DoSepK=F KAlg= 0 I1Cent=           0 FoldK=F
 IRaf= 990000000 NMat=       1 IRICut=       1 DoRegI=T DoRafI=F ISym2E= 0 IDoP0=0 IntGTp=1.
 FoFCou: FMM=F IPFlag=           0 FMFlag=      100000 FMFlg1=           0
         NFxFlg=           0 DoJE=F BraDBF=F KetDBF=F FulRan=T
         wScrn=  0.000000 ICntrl=         0 IOpCl=  1 I1Cent=           0 NGrid=           0
         NMat0=    1 NMatS0=      1 NMatT0=    0 NMatD0=    1 NMtDS0=    0 NMtDT0=    0
 Symmetry not used in FoFCou.
 E= -118.291188436804    
 DIIS: error= 3.55D-02 at cycle   1 NSaved=   1.
 NSaved= 1 IEnMin= 1 EnMin= -118.291188436804     IErMin= 1 ErrMin= 3.55D-02
 ErrMax= 3.55D-02  0.00D+00 EMaxC= 1.00D-01 BMatC= 5.58D-01 BMatP= 5.58D-01
 IDIUse=3 WtCom= 6.45D-01 WtEn= 3.55D-01
 Coeff-Com:  0.100D+01
 Coeff-En:   0.100D+01
 Coeff:      0.100D+01
 Gap=     0.319 Goal=   None    Shift=    0.000
 Gap=     0.378 Goal=   None    Shift=    0.000
 GapD=    0.319 DampG=1.000 DampE=0.500 DampFc=0.5000 IDamp=-1.
 Damping current iteration by 5.00D-01
 RMSDP=2.36D-03 MaxDP=6.62D-02              OVMax= 1.60D-01

 Cycle   2  Pass 0  IDiag  1:
 RMSU=  1.17D-03    CP:  9.91D-01
 E= -118.361542183451     Delta-E=       -0.070353746647 Rises=F Damp=T
 DIIS: error= 4.85D-03 at cycle   2 NSaved=   2.
 NSaved= 2 IEnMin= 2 EnMin= -118.361542183451     IErMin= 2 ErrMin= 4.85D-03
 ErrMax= 4.85D-03  0.00D+00 EMaxC= 1.00D-01 BMatC= 3.03D-02 BMatP= 5.58D-01
 IDIUse=3 WtCom= 9.52D-01 WtEn= 4.85D-02
 Coeff-Com: -0.876D-01 0.109D+01
 Coeff-En:   0.000D+00 0.100D+01
 Coeff:     -0.833D-01 0.108D+01
 Gap=     0.365 Goal=   None    Shift=    0.000
 Gap=     0.368 Goal=   None    Shift=    0.000
 RMSDP=5.15D-04 MaxDP=2.69D-02 DE=-7.04D-02 OVMax= 7.53D-02

 Cycle   3  Pass 0  IDiag  1:
 RMSU=  5.06D-04    CP:  9.97D-01  1.06D+00
 E= -118.428526966141     Delta-E=       -0.066984782690 Rises=F Damp=F
 DIIS: error= 2.64D-03 at cycle   3 NSaved=   3.
 NSaved= 3 IEnMin= 3 EnMin= -118.428526966141     IErMin= 3 ErrMin= 2.64D-03
 ErrMax= 2.64D-03  0.00D+00 EMaxC= 1.00D-01 BMatC= 2.66D-03 BMatP= 3.03D-02
 IDIUse=3 WtCom= 9.74D-01 WtEn= 2.64D-02
 Coeff-Com: -0.475D-01 0.176D+00 0.872D+00
 Coeff-En:   0.000D+00 0.000D+00 0.100D+01
 Coeff:     -0.463D-01 0.171D+00 0.875D+00
 Gap=     0.366 Goal=   None    Shift=    0.000
 Gap=     0.352 Goal=   None    Shift=    0.000
 RMSDP=1.02D-04 MaxDP=3.57D-03 DE=-6.70D-02 OVMax= 8.60D-03

 Cycle   4  Pass 0  IDiag  1:
 RMSU=  9.47D-05    CP:  9.96D-01  1.09D+00  9.97D-01
 E= -118.429261924709     Delta-E=       -0.000734958568 Rises=F Damp=F
 DIIS: error= 7.65D-04 at cycle   4 NSaved=   4.
 NSaved= 4 IEnMin= 4 EnMin= -118.429261924709     IErMin= 4 ErrMin= 7.65D-04
 ErrMax= 7.65D-04  0.00D+00 EMaxC= 1.00D-01 BMatC= 3.38D-04 BMatP= 2.66D-03
 IDIUse=3 WtCom= 9.92D-01 WtEn= 7.65D-03
 Coeff-Com: -0.699D-02 0.442D-02 0.236D+00 0.767D+00
 Coeff-En:   0.000D+00 0.000D+00 0.000D+00 0.100D+01
 Coeff:     -0.693D-02 0.439D-02 0.234D+00 0.768D+00
 Gap=     0.365 Goal=   None    Shift=    0.000
 Gap=     0.354 Goal=   None    Shift=    0.000
 RMSDP=3.96D-05 MaxDP=2.42D-03 DE=-7.35D-04 OVMax= 5.02D-03

 Cycle   5  Pass 0  IDiag  1:
 RMSU=  3.39D-05    CP:  9.96D-01  1.09D+00  1.04D+00  9.55D-01
 E= -118.429371441811     Delta-E=       -0.000109517101 Rises=F Damp=F
 DIIS: error= 2.34D-04 at cycle   5 NSaved=   5.
 NSaved= 5 IEnMin= 5 EnMin= -118.429371441811     IErMin= 5 ErrMin= 2.34D-04
 ErrMax= 2.34D-04  0.00D+00 EMaxC= 1.00D-01 BMatC= 5.31D-05 BMatP= 3.38D-04
 IDIUse=3 WtCom= 9.98D-01 WtEn= 2.34D-03
 Coeff-Com:  0.413D-02-0.201D-01-0.532D-01 0.162D+00 0.907D+00
 Coeff-En:   0.000D+00 0.000D+00 0.000D+00 0.000D+00 0.100D+01
 Coeff:      0.412D-02-0.201D-01-0.531D-01 0.161D+00 0.908D+00
 Gap=     0.367 Goal=   None    Shift=    0.000
 Gap=     0.353 Goal=   None    Shift=    0.000
 RMSDP=2.39D-05 MaxDP=1.02D-03 DE=-1.10D-04 OVMax= 2.29D-03

 Cycle   6  Pass 0  IDiag  1:
 RMSU=  1.46D-05    CP:  9.96D-01  1.09D+00  1.05D+00  1.12D+00  1.23D+00
 E= -118.429396157491     Delta-E=       -0.000024715681 Rises=F Damp=F
 DIIS: error= 1.34D-04 at cycle   6 NSaved=   6.
 NSaved= 6 IEnMin= 6 EnMin= -118.429396157491     IErMin= 6 ErrMin= 1.34D-04
 ErrMax= 1.34D-04  0.00D+00 EMaxC= 1.00D-01 BMatC= 7.83D-06 BMatP= 5.31D-05
 IDIUse=3 WtCom= 9.99D-01 WtEn= 1.34D-03
 Coeff-Com:  0.174D-02-0.386D-02-0.564D-01-0.129D+00 0.192D+00 0.995D+00
 Coeff-En:   0.000D+00 0.000D+00 0.000D+00 0.000D+00 0.000D+00 0.100D+01
 Coeff:      0.173D-02-0.385D-02-0.563D-01-0.129D+00 0.192D+00 0.995D+00
 Gap=     0.367 Goal=   None    Shift=    0.000
 Gap=     0.354 Goal=   None    Shift=    0.000
 RMSDP=1.08D-05 MaxDP=6.74D-04 DE=-2.47D-05 OVMax= 1.37D-03

 Cycle   7  Pass 0  IDiag  1:
 RMSU=  4.58D-06    CP:  9.96D-01  1.09D+00  1.06D+00  1.17D+00  1.46D+00
                    CP:  1.11D+00
 E= -118.429400772479     Delta-E=       -0.000004614988 Rises=F Damp=F
 DIIS: error= 2.40D-05 at cycle   7 NSaved=   7.
 NSaved= 7 IEnMin= 7 EnMin= -118.429400772479     IErMin= 7 ErrMin= 2.40D-05
 ErrMax= 2.40D-05  0.00D+00 EMaxC= 1.00D-01 BMatC= 3.32D-07 BMatP= 7.83D-06
 IDIUse=1 WtCom= 1.00D+00 WtEn= 0.00D+00
 Coeff-Com: -0.517D-03 0.166D-02 0.498D-02-0.127D-01-0.603D-01 0.133D-01
 Coeff-Com:  0.105D+01
 Coeff:     -0.517D-03 0.166D-02 0.498D-02-0.127D-01-0.603D-01 0.133D-01
 Coeff:      0.105D+01
 Gap=     0.367 Goal=   None    Shift=    0.000
 Gap=     0.353 Goal=   None    Shift=    0.000
 RMSDP=2.55D-06 MaxDP=1.13D-04 DE=-4.61D-06 OVMax= 1.72D-04

 Initial convergence to 1.0D-05 achieved.  Increase integral accuracy.
 Cycle   8  Pass 1  IDiag  1:
 E= -118.429404981676     Delta-E=       -0.000004209197 Rises=F Damp=F
 DIIS: error= 2.05D-05 at cycle   1 NSaved=   1.
 NSaved= 1 IEnMin= 1 EnMin= -118.429404981676     IErMin= 1 ErrMin= 2.05D-05
 ErrMax= 2.05D-05  0.00D+00 EMaxC= 1.00D-01 BMatC= 6.47D-07 BMatP= 6.47D-07
 IDIUse=1 WtCom= 1.00D+00 WtEn= 0.00D+00
 Coeff-Com:  0.100D+01
 Coeff:      0.100D+01
 Gap=     0.367 Goal=   None    Shift=    0.000
 Gap=     0.353 Goal=   None    Shift=    0.000
 RMSDP=2.55D-06 MaxDP=1.13D-04 DE=-4.21D-06 OVMax= 1.05D-04

 Cycle   9  Pass 1  IDiag  1:
 RMSU=  2.64D-06    CP:  1.00D+00
 E= -118.429405085547     Delta-E=       -0.000000103871 Rises=F Damp=F
 DIIS: error= 5.69D-06 at cycle   2 NSaved=   2.
 NSaved= 2 IEnMin= 2 EnMin= -118.429405085547     IErMin= 2 ErrMin= 5.69D-06
 ErrMax= 5.69D-06  0.00D+00 EMaxC= 1.00D-01 BMatC= 2.22D-08 BMatP= 6.47D-07
 IDIUse=1 WtCom= 1.00D+00 WtEn= 0.00D+00
 Coeff-Com: -0.208D-01 0.102D+01
 Coeff:     -0.208D-01 0.102D+01
 Gap=     0.367 Goal=   None    Shift=    0.000
 Gap=     0.353 Goal=   None    Shift=    0.000
 RMSDP=4.62D-07 MaxDP=1.55D-05 DE=-1.04D-07 OVMax= 5.95D-05

 Cycle  10  Pass 1  IDiag  1:
 RMSU=  4.42D-07    CP:  1.00D+00  1.05D+00
 E= -118.429405091477     Delta-E=       -0.000000005930 Rises=F Damp=F
 DIIS: error= 4.73D-06 at cycle   3 NSaved=   3.
 NSaved= 3 IEnMin= 3 EnMin= -118.429405091477     IErMin= 3 ErrMin= 4.73D-06
 ErrMax= 4.73D-06  0.00D+00 EMaxC= 1.00D-01 BMatC= 1.25D-08 BMatP= 2.22D-08
 IDIUse=1 WtCom= 1.00D+00 WtEn= 0.00D+00
 Coeff-Com: -0.394D-01 0.433D+00 0.606D+00
 Coeff:     -0.394D-01 0.433D+00 0.606D+00
 Gap=     0.367 Goal=   None    Shift=    0.000
 Gap=     0.353 Goal=   None    Shift=    0.000
 RMSDP=1.78D-07 MaxDP=6.83D-06 DE=-5.93D-09 OVMax= 1.98D-05

 Cycle  11  Pass 1  IDiag  1:
 RMSU=  1.58D-07    CP:  1.00D+00  1.07D+00  8.60D-01
 E= -118.429405094877     Delta-E=       -0.000000003400 Rises=F Damp=F
 DIIS: error= 1.20D-06 at cycle   4 NSaved=   4.
 NSaved= 4 IEnMin= 4 EnMin= -118.429405094877     IErMin= 4 ErrMin= 1.20D-06
 ErrMax= 1.20D-06  0.00D+00 EMaxC= 1.00D-01 BMatC= 6.66D-10 BMatP= 1.25D-08
 IDIUse=1 WtCom= 1.00D+00 WtEn= 0.00D+00
 Coeff-Com:  0.324D-02-0.148D+00-0.365D-01 0.118D+01
 Coeff:      0.324D-02-0.148D+00-0.365D-01 0.118D+01
 Gap=     0.367 Goal=   None    Shift=    0.000
 Gap=     0.353 Goal=   None    Shift=    0.000
 RMSDP=1.13D-07 MaxDP=3.98D-06 DE=-3.40D-09 OVMax= 2.46D-05

 Cycle  12  Pass 1  IDiag  1:
 RMSU=  5.62D-08    CP:  1.00D+00  1.08D+00  1.01D+00  1.42D+00
 E= -118.429405095500     Delta-E=       -0.000000000623 Rises=F Damp=F
 DIIS: error= 5.58D-07 at cycle   5 NSaved=   5.
 NSaved= 5 IEnMin= 5 EnMin= -118.429405095500     IErMin= 5 ErrMin= 5.58D-07
 ErrMax= 5.58D-07  0.00D+00 EMaxC= 1.00D-01 BMatC= 8.85D-11 BMatP= 6.66D-10
 IDIUse=1 WtCom= 1.00D+00 WtEn= 0.00D+00
 Coeff-Com:  0.591D-02-0.749D-01-0.952D-01 0.616D-01 0.110D+01
 Coeff:      0.591D-02-0.749D-01-0.952D-01 0.616D-01 0.110D+01
 Gap=     0.367 Goal=   None    Shift=    0.000
 Gap=     0.353 Goal=   None    Shift=    0.000
 RMSDP=5.11D-08 MaxDP=1.53D-06 DE=-6.23D-10 OVMax= 1.23D-05

 Cycle  13  Pass 1  IDiag  1:
 RMSU=  1.97D-08    CP:  1.00D+00  1.08D+00  1.07D+00  1.64D+00  1.35D+00
 E= -118.429405095596     Delta-E=       -0.000000000096 Rises=F Damp=F
 DIIS: error= 1.12D-07 at cycle   6 NSaved=   6.
 NSaved= 6 IEnMin= 6 EnMin= -118.429405095596     IErMin= 6 ErrMin= 1.12D-07
 ErrMax= 1.12D-07  0.00D+00 EMaxC= 1.00D-01 BMatC= 5.12D-12 BMatP= 8.85D-11
 IDIUse=1 WtCom= 1.00D+00 WtEn= 0.00D+00
 Coeff-Com: -0.135D-03 0.105D-01-0.808D-04-0.988D-01 0.688D-02 0.108D+01
 Coeff:     -0.135D-03 0.105D-01-0.808D-04-0.988D-01 0.688D-02 0.108D+01
 Gap=     0.367 Goal=   None    Shift=    0.000
 Gap=     0.353 Goal=   None    Shift=    0.000
 RMSDP=1.30D-08 MaxDP=4.17D-07 DE=-9.62D-11 OVMax= 3.35D-06

 Cycle  14  Pass 1  IDiag  1:
 RMSU=  5.37D-09    CP:  1.00D+00  1.08D+00  1.08D+00  1.68D+00  1.51D+00
                    CP:  1.21D+00
 E= -118.429405095601     Delta-E=       -0.000000000005 Rises=F Damp=F
 DIIS: error= 3.94D-08 at cycle   7 NSaved=   7.
 NSaved= 7 IEnMin= 7 EnMin= -118.429405095601     IErMin= 7 ErrMin= 3.94D-08
 ErrMax= 3.94D-08  0.00D+00 EMaxC= 1.00D-01 BMatC= 5.34D-13 BMatP= 5.12D-12
 IDIUse=1 WtCom= 1.00D+00 WtEn= 0.00D+00
 Coeff-Com: -0.357D-03 0.604D-02 0.534D-02-0.177D-01-0.653D-01 0.166D+00
 Coeff-Com:  0.905D+00
 Coeff:     -0.357D-03 0.604D-02 0.534D-02-0.177D-01-0.653D-01 0.166D+00
 Coeff:      0.905D+00
 Gap=     0.367 Goal=   None    Shift=    0.000
 Gap=     0.353 Goal=   None    Shift=    0.000
 RMSDP=2.90D-09 MaxDP=7.06D-08 DE=-5.06D-12 OVMax= 6.51D-07

 SCF Done:  E(UM062X) =  -118.429405096     A.U. after   14 cycles
            NFock= 14  Conv=0.29D-08     -V/T= 2.0081
 <Sx>= 0.0000 <Sy>= 0.0000 <Sz>= 0.5000 <S**2>= 0.7544 S= 0.5022
 <L.S>= 0.000000000000E+00
 KE= 1.174729651063D+02 PE=-4.243130554616D+02 EE= 1.129666588517D+02
 Annihilation of the first spin contaminant:
 S**2 before annihilation     0.7544,   after     0.7500
 Leave Link  502 at Mon Sep 28 10:50:47 2020, MaxMem=   268435456 cpu:             225.4 elap:              28.5
 (Enter /applis/site/cecic/gaussian16/B.01/nehalem/g16/l601.exe)
 Copying SCF densities to generalized density rwf, IOpCl= 1 IROHF=0.

 **********************************************************************

            Population analysis using the SCF Density.

 **********************************************************************

 Alpha  occ. eigenvalues --  -10.55280 -10.54063 -10.52904  -0.88296  -0.76284
 Alpha  occ. eigenvalues --   -0.65638  -0.52746  -0.50875  -0.46293  -0.42184
 Alpha  occ. eigenvalues --   -0.39840  -0.39630  -0.29360
 Alpha virt. eigenvalues --    0.07317   0.11061   0.11285   0.13170   0.14292
 Alpha virt. eigenvalues --    0.16274   0.17227   0.20356   0.25374   0.29350
 Alpha virt. eigenvalues --    0.29888   0.31550   0.32942   0.36152   0.39287
 Alpha virt. eigenvalues --    0.42523   0.43366   0.45907   0.47794   0.49059
 Alpha virt. eigenvalues --    0.49333   0.51337   0.52646   0.53200   0.53462
 Alpha virt. eigenvalues --    0.55464   0.60771   0.63770   0.69669   0.75044
 Alpha virt. eigenvalues --    0.78890   0.81908   0.84568   0.88953   0.92362
 Alpha virt. eigenvalues --    0.95758   0.98851   0.99706   1.03934   1.07532
 Alpha virt. eigenvalues --    1.08467   1.11992   1.12524   1.13978   1.16010
 Alpha virt. eigenvalues --    1.17911   1.19419   1.20409   1.22839   1.26682
 Alpha virt. eigenvalues --    1.29299   1.30475   1.32943   1.35117   1.37199
 Alpha virt. eigenvalues --    1.39442   1.42348   1.43724   1.49158   1.51730
 Alpha virt. eigenvalues --    1.54998   1.56046   1.57988   1.63458   2.17081
 Alpha virt. eigenvalues --    2.24037   2.26109   2.27684   2.31132   2.33197
 Alpha virt. eigenvalues --    2.38733   2.43409   2.46398   2.51338   2.52717
 Alpha virt. eigenvalues --    2.57519   2.60262   2.61645   2.67375   2.68693
 Alpha virt. eigenvalues --    2.73335   2.75367   2.79014   2.82800   2.83900
 Alpha virt. eigenvalues --    2.84225   2.87666   2.91418   2.93145   2.97246
 Alpha virt. eigenvalues --    3.00195   3.02209   3.05873   3.07496   3.09279
 Alpha virt. eigenvalues --    3.09700   3.11791   3.13798   3.15725   3.17556
 Alpha virt. eigenvalues --    3.20460   3.24189   3.26505   3.30030   3.30848
 Alpha virt. eigenvalues --    3.33622   3.36514   3.39813   3.41826   3.44095
 Alpha virt. eigenvalues --    3.45557   3.49554   3.52536   3.61969   3.64370
 Alpha virt. eigenvalues --    3.66761   3.68175   3.73514   3.76534   3.77695
 Alpha virt. eigenvalues --    3.78867   3.80088   3.80905   3.83860   3.87116
 Alpha virt. eigenvalues --    3.89651   3.91965   3.94207   3.95433   3.97295
 Alpha virt. eigenvalues --    3.98849   4.01100   4.03147   4.03899   4.10676
 Alpha virt. eigenvalues --    4.12908   4.18694   4.20567   4.21888   4.23628
 Alpha virt. eigenvalues --    4.27321   4.33207   4.45252   4.45983   4.50034
 Alpha virt. eigenvalues --    4.62589   4.68514   4.71979   4.72617   4.73607
 Alpha virt. eigenvalues --    4.74784   4.78293   4.82846   4.85782   4.91889
 Alpha virt. eigenvalues --    4.99027   5.02868   5.08381   5.16362   5.18566
 Alpha virt. eigenvalues --    5.21015   5.22331   5.25570   5.29513   5.32068
 Alpha virt. eigenvalues --    5.36846   5.41379   5.50066   5.68761   5.75945
 Alpha virt. eigenvalues --    5.78526   5.81898  11.26082  12.30784  13.09894
  Beta  occ. eigenvalues --  -10.54370 -10.54092 -10.52887  -0.87273  -0.74452
  Beta  occ. eigenvalues --   -0.63989  -0.51801  -0.49977  -0.45511  -0.41263
  Beta  occ. eigenvalues --   -0.39319  -0.38970
  Beta virt. eigenvalues --   -0.03624   0.07041   0.10864   0.11379   0.12236
  Beta virt. eigenvalues --    0.14219   0.15979   0.17429   0.19951   0.25171
  Beta virt. eigenvalues --    0.28585   0.29739   0.30968   0.33013   0.35351
  Beta virt. eigenvalues --    0.38310   0.41232   0.44181   0.45599   0.47849
  Beta virt. eigenvalues --    0.48698   0.49412   0.51796   0.52407   0.53363
  Beta virt. eigenvalues --    0.53631   0.55099   0.61429   0.64219   0.69148
  Beta virt. eigenvalues --    0.74754   0.78929   0.81628   0.84334   0.89328
  Beta virt. eigenvalues --    0.91885   0.96034   0.98299   0.99658   1.04055
  Beta virt. eigenvalues --    1.07411   1.08555   1.11689   1.12050   1.13958
  Beta virt. eigenvalues --    1.16079   1.17883   1.19424   1.20272   1.22947
  Beta virt. eigenvalues --    1.26681   1.28948   1.30285   1.33117   1.35193
  Beta virt. eigenvalues --    1.36932   1.39398   1.42431   1.43563   1.49418
  Beta virt. eigenvalues --    1.51953   1.54723   1.56844   1.58049   1.63532
  Beta virt. eigenvalues --    2.19607   2.25301   2.26561   2.28450   2.32099
  Beta virt. eigenvalues --    2.33823   2.39269   2.43680   2.47087   2.52199
  Beta virt. eigenvalues --    2.53823   2.58240   2.62180   2.63138   2.68226
  Beta virt. eigenvalues --    2.70076   2.74846   2.76048   2.79623   2.83754
  Beta virt. eigenvalues --    2.85397   2.85784   2.88906   2.93275   2.94182
  Beta virt. eigenvalues --    2.99022   3.02709   3.03856   3.06364   3.08506
  Beta virt. eigenvalues --    3.10404   3.10646   3.13034   3.14589   3.16604
  Beta virt. eigenvalues --    3.18984   3.21787   3.24980   3.27417   3.30485
  Beta virt. eigenvalues --    3.31687   3.34352   3.37155   3.40108   3.42258
  Beta virt. eigenvalues --    3.44959   3.45879   3.49827   3.52934   3.62363
  Beta virt. eigenvalues --    3.64524   3.67304   3.68619   3.74397   3.76812
  Beta virt. eigenvalues --    3.78314   3.78826   3.80773   3.81504   3.84126
  Beta virt. eigenvalues --    3.87583   3.90263   3.92558   3.94606   3.95772
  Beta virt. eigenvalues --    3.97706   3.99457   4.01703   4.03494   4.04093
  Beta virt. eigenvalues --    4.11570   4.13466   4.19480   4.20874   4.21902
  Beta virt. eigenvalues --    4.24711   4.27627   4.33362   4.45636   4.46955
  Beta virt. eigenvalues --    4.51507   4.63471   4.69837   4.72525   4.73147
  Beta virt. eigenvalues --    4.74756   4.75369   4.79283   4.83781   4.87076
  Beta virt. eigenvalues --    4.93005   5.00112   5.04338   5.09930   5.17172
  Beta virt. eigenvalues --    5.19219   5.21134   5.22845   5.26959   5.30775
  Beta virt. eigenvalues --    5.32385   5.38241   5.42099   5.51852   5.75042
  Beta virt. eigenvalues --    5.76009   5.79889   5.81467  11.26851  12.31152
  Beta virt. eigenvalues --   13.09873
          Condensed to atoms (all electrons):
               1          2          3          4          5          6
     1  C    5.356961   0.314322   0.392572   0.385862  -0.065194  -0.000095
     2  C    0.314322   4.976088  -0.048238  -0.047877   0.314335  -0.039325
     3  H    0.392572  -0.048238   0.572478  -0.042716   0.008435   0.000055
     4  H    0.385862  -0.047877  -0.042716   0.577293  -0.006215  -0.000546
     5  C   -0.065194   0.314335   0.008435  -0.006215   4.946311   0.400047
     6  H   -0.000095  -0.039325   0.000055  -0.000546   0.400047   0.592306
     7  H   -0.042790   0.403937  -0.002713  -0.004832  -0.039430   0.008339
     8  H   -0.042076   0.401316  -0.006632   0.008051  -0.037517  -0.006746
     9  H   -0.006078  -0.039227  -0.000064   0.004494   0.402722  -0.036424
    10  H    0.008548  -0.039997  -0.000549  -0.000183   0.401148  -0.030063
               7          8          9         10
     1  C   -0.042790  -0.042076  -0.006078   0.008548
     2  C    0.403937   0.401316  -0.039227  -0.039997
     3  H   -0.002713  -0.006632  -0.000064  -0.000549
     4  H   -0.004832   0.008051   0.004494  -0.000183
     5  C   -0.039430  -0.037517   0.402722   0.401148
     6  H    0.008339  -0.006746  -0.036424  -0.030063
     7  H    0.596196  -0.037655  -0.007443  -0.003709
     8  H   -0.037655   0.605149   0.008028  -0.005965
     9  H   -0.007443   0.008028   0.601319  -0.032256
    10  H   -0.003709  -0.005965  -0.032256   0.596592
          Atomic-Atomic Spin Densities.
               1          2          3          4          5          6
     1  C    1.139443  -0.046605  -0.012738  -0.015338  -0.008057   0.005156
     2  C   -0.046605  -0.047866   0.006941   0.006348   0.010834  -0.000192
     3  H   -0.012738   0.006941  -0.022332   0.004169  -0.000264  -0.000190
     4  H   -0.015338   0.006348   0.004169  -0.019463   0.001239  -0.000495
     5  C   -0.008057   0.010834  -0.000264   0.001239   0.013721  -0.002895
     6  H    0.005156  -0.000192  -0.000190  -0.000495  -0.002895  -0.002352
     7  H   -0.025841   0.013863  -0.003317  -0.003318  -0.005171   0.001200
     8  H   -0.007936   0.004330   0.001128   0.000283   0.004587  -0.001298
     9  H   -0.000569   0.000403   0.000078   0.000184   0.000586  -0.000674
    10  H    0.000587  -0.000231   0.000003  -0.000083  -0.003620   0.000944
               7          8          9         10
     1  C   -0.025841  -0.007936  -0.000569   0.000587
     2  C    0.013863   0.004330   0.000403  -0.000231
     3  H   -0.003317   0.001128   0.000078   0.000003
     4  H   -0.003318   0.000283   0.000184  -0.000083
     5  C   -0.005171   0.004587   0.000586  -0.003620
     6  H    0.001200  -0.001298  -0.000674   0.000944
     7  H    0.083208  -0.009035  -0.001223   0.001662
     8  H   -0.009035   0.019639   0.000146  -0.000340
     9  H   -0.001223   0.000146   0.001549  -0.000171
    10  H    0.001662  -0.000340  -0.000171   0.004309
 Mulliken charges and spin densities:
               1          2
     1  C   -0.302032   1.028103
     2  C   -0.195334  -0.052176
     3  H    0.127373  -0.026521
     4  H    0.126668  -0.026473
     5  C   -0.324641   0.010962
     6  H    0.112453  -0.000797
     7  H    0.130102   0.052027
     8  H    0.114047   0.011505
     9  H    0.104930   0.000309
    10  H    0.106433   0.003061
 Sum of Mulliken charges =  -0.00000   1.00000
 Mulliken charges and spin densities with hydrogens summed into heavy atoms:
               1          2
     1  C   -0.047991   0.975108
     2  C    0.048815   0.011356
     5  C   -0.000824   0.013536
 Electronic spatial extent (au):  <R**2>=            371.8011
 Charge=             -0.0000 electrons
 Dipole moment (field-independent basis, Debye):
    X=              0.3132    Y=             -0.4468    Z=              0.4379  Tot=              0.6996
 Quadrupole moment (field-independent basis, Debye-Ang):
   XX=            -21.6110   YY=            -21.0709   ZZ=            -21.2997
   XY=              0.2365   XZ=              0.1645   YZ=              0.2426
 Traceless Quadrupole moment (field-independent basis, Debye-Ang):
   XX=             -0.2838   YY=              0.2563   ZZ=              0.0275
   XY=              0.2365   XZ=              0.1645   YZ=              0.2426
 Octapole moment (field-independent basis, Debye-Ang**2):
  XXX=             33.4276  YYY=              0.7423  ZZZ=            -77.3808  XYY=             10.0026
  XXY=              0.2952  XXZ=            -27.5941  XZZ=             11.6147  YZZ=              0.2325
  YYZ=            -25.4731  XYZ=             -0.2259
 Hexadecapole moment (field-independent basis, Debye-Ang**3):
 XXXX=           -148.3209 YYYY=            -41.9505 ZZZZ=           -336.6042 XXXY=              0.0494
 XXXZ=             72.1360 YYYX=              0.1877 YYYZ=             -1.8583 ZZZX=             70.9879
 ZZZY=             -2.2727 XXYY=            -29.3537 XXZZ=            -85.3061 YYZZ=            -63.7649
 XXYZ=             -0.5736 YYXZ=             23.7139 ZZXY=             -0.1307
 N-N= 7.544402640803D+01 E-N=-4.243130539496D+02  KE= 1.174729651063D+02
                          Isotropic Fermi Contact Couplings
        Atom                 a.u.       MegaHertz       Gauss      10(-4) cm-1
     1  C(13)              0.41036     461.32269     164.61141     153.88069
     2  C(13)             -0.01497     -16.82940      -6.00515      -5.61368
     3  H(1)              -0.00570     -25.47978      -9.09182      -8.49914
     4  H(1)              -0.00488     -21.82575      -7.78797      -7.28029
     5  C(13)              0.01266      14.22963       5.07749       4.74649
     6  H(1)              -0.00032      -1.45110      -0.51779      -0.48403
     7  H(1)               0.02350     105.04036      37.48101      35.03769
     8  H(1)               0.00431      19.27237       6.87686       6.42857
     9  H(1)              -0.00024      -1.07732      -0.38441      -0.35935
    10  H(1)              -0.00028      -1.26012      -0.44964      -0.42033
 --------------------------------------------------------
       Center         ----  Spin Dipole Couplings  ----
                      3XX-RR        3YY-RR        3ZZ-RR
 --------------------------------------------------------
     1   Atom       -0.165895      0.509073     -0.343179
     2   Atom       -0.017083     -0.003157      0.020241
     3   Atom        0.061417     -0.023806     -0.037611
     4   Atom       -0.011486      0.047857     -0.036371
     5   Atom        0.001920     -0.009948      0.008028
     6   Atom        0.002625     -0.005883      0.003257
     7   Atom       -0.007437     -0.001179      0.008616
     8   Atom       -0.006971     -0.006478      0.013448
     9   Atom        0.002460     -0.003000      0.000541
    10   Atom       -0.001749     -0.003418      0.005167
 --------------------------------------------------------
                        XY            XZ            YZ
 --------------------------------------------------------
     1   Atom       -0.565670      0.220171     -0.389151
     2   Atom       -0.008032      0.010888     -0.022487
     3   Atom       -0.010565     -0.036712     -0.016559
     4   Atom        0.031584      0.033558      0.024277
     5   Atom        0.003464     -0.014189     -0.005114
     6   Atom       -0.004395     -0.009456      0.002820
     7   Atom       -0.006361      0.004178     -0.007689
     8   Atom        0.002874      0.009041      0.009054
     9   Atom        0.004501     -0.006756     -0.004303
    10   Atom       -0.000353     -0.003732     -0.000327
 --------------------------------------------------------


 ---------------------------------------------------------------------------------
              Anisotropic Spin Dipole Couplings in Principal Axis System
 ---------------------------------------------------------------------------------

       Atom             a.u.   MegaHertz   Gauss  10(-4) cm-1        Axes

              Baa    -0.4942   -66.315   -23.663   -22.120 -0.0762  0.3229  0.9433
     1 C(13)  Bbb    -0.4870   -65.356   -23.321   -21.801  0.8806  0.4656 -0.0882
              Bcc     0.9812   131.672    46.984    43.921 -0.4677  0.8240 -0.3199
 
              Baa    -0.0208    -2.788    -0.995    -0.930  0.9306  0.3627 -0.0482
     2 C(13)  Bbb    -0.0165    -2.208    -0.788    -0.737 -0.2754  0.7811  0.5604
              Bcc     0.0372     4.997     1.783     1.667  0.2409 -0.5082  0.8269
 
              Baa    -0.0598   -31.929   -11.393   -10.650  0.2931  0.4688  0.8332
     3 H(1)   Bbb    -0.0139    -7.442    -2.655    -2.482 -0.1008  0.8818 -0.4607
              Bcc     0.0738    39.371    14.048    13.133  0.9507 -0.0510 -0.3057
 
              Baa    -0.0598   -31.885   -11.378   -10.636 -0.5609 -0.0221  0.8276
     4 H(1)   Bbb    -0.0138    -7.358    -2.625    -2.454  0.7025 -0.5417  0.4616
              Bcc     0.0736    39.243    14.003    13.090  0.4381  0.8403  0.3193
 
              Baa    -0.0113    -1.520    -0.542    -0.507  0.0944  0.9432  0.3184
     5 C(13)  Bbb    -0.0094    -1.261    -0.450    -0.421  0.7841 -0.2676  0.5600
              Bcc     0.0207     2.781     0.992     0.928 -0.6134 -0.1968  0.7649
 
              Baa    -0.0081    -4.306    -1.537    -1.436  0.5653  0.7764  0.2787
     6 H(1)   Bbb    -0.0057    -3.017    -1.076    -1.006  0.4618 -0.5778  0.6729
              Bcc     0.0137     7.323     2.613     2.443 -0.6834  0.2517  0.6852
 
              Baa    -0.0114    -6.091    -2.173    -2.032  0.8368  0.5464  0.0352
     7 H(1)   Bbb    -0.0035    -1.867    -0.666    -0.623 -0.4612  0.6686  0.5833
              Bcc     0.0149     7.958     2.840     2.654  0.2952 -0.5044  0.8115
 
              Baa    -0.0107    -5.702    -2.035    -1.902  0.7492  0.4770 -0.4596
     8 H(1)   Bbb    -0.0096    -5.099    -1.820    -1.701 -0.5750  0.8127 -0.0939
              Bcc     0.0202    10.801     3.854     3.603  0.3287  0.3346  0.8832
 
              Baa    -0.0059    -3.139    -1.120    -1.047  0.0160  0.8229  0.5680
     9 H(1)   Bbb    -0.0052    -2.770    -0.988    -0.924  0.7276 -0.3993  0.5579
              Bcc     0.0111     5.908     2.108     1.971  0.6858  0.4043 -0.6051
 
              Baa    -0.0039    -2.057    -0.734    -0.686  0.6284  0.7233  0.2862
    10 H(1)   Bbb    -0.0029    -1.571    -0.561    -0.524 -0.6674  0.6904 -0.2792
              Bcc     0.0068     3.628     1.294     1.210 -0.3995 -0.0156  0.9166
 

 ---------------------------------------------------------------------------------

 No NMR shielding tensors so no spin-rotation constants.
 Leave Link  601 at Mon Sep 28 10:50:48 2020, MaxMem=   268435456 cpu:               2.3 elap:               0.4
 (Enter /applis/site/cecic/gaussian16/B.01/nehalem/g16/l701.exe)
 ... and contract with generalized density number  0.
 Compute integral first derivatives.
 Leave Link  701 at Mon Sep 28 10:50:48 2020, MaxMem=   268435456 cpu:               1.3 elap:               0.3
 (Enter /applis/site/cecic/gaussian16/B.01/nehalem/g16/l702.exe)
 L702 exits ... SP integral derivatives will be done elsewhere.
 Leave Link  702 at Mon Sep 28 10:50:49 2020, MaxMem=   268435456 cpu:               0.5 elap:               0.2
 (Enter /applis/site/cecic/gaussian16/B.01/nehalem/g16/l703.exe)
 Integral derivatives from FoFJK, PRISM(SPDF).
 Compute integral first derivatives, UseDBF=F ICtDFT=           0.
 Calling FoFJK, ICntrl=      2127 FMM=F ISym2X=0 I1Cent= 0 IOpClX= 1 NMat=1 NMatS=1 NMatT=0.
 FoFJK:  IHMeth= 1 ICntrl=    2127 DoSepK=F KAlg= 0 I1Cent=           0 FoldK=F
 IRaf=         0 NMat=       1 IRICut=       1 DoRegI=T DoRafI=F ISym2E= 0 IDoP0=0 IntGTp=1.
 FoFCou: FMM=F IPFlag=           0 FMFlag=      100000 FMFlg1=         800
         NFxFlg=           0 DoJE=F BraDBF=F KetDBF=F FulRan=T
         wScrn=  0.000000 ICntrl=      2127 IOpCl=  1 I1Cent=           0 NGrid=           0
         NMat0=    1 NMatS0=      1 NMatT0=    0 NMatD0=    1 NMtDS0=    0 NMtDT0=    0
 Symmetry not used in FoFCou.
 Leave Link  703 at Mon Sep 28 10:50:54 2020, MaxMem=   268435456 cpu:              38.3 elap:               4.9
 (Enter /applis/site/cecic/gaussian16/B.01/nehalem/g16/l716.exe)
 Dipole        = 1.23215655D-01-1.75792628D-01 1.72292278D-01
 -------------------------------------------------------------------
 Center     Atomic                   Forces (Hartrees/Bohr)
 Number     Number              X              Y              Z
 -------------------------------------------------------------------
      1        6           0.029402996   -0.042253009    0.016529026
      2        6          -0.004837807    0.015840027   -0.009388231
      3        1          -0.015891867    0.011234583   -0.004666155
      4        1          -0.002569891    0.019014937   -0.002447985
      5        6          -0.006384416   -0.000223409    0.009707049
      6        1           0.004799528   -0.012205411    0.004568039
      7        1          -0.002038972    0.009456921   -0.004400295
      8        1          -0.002972590   -0.012206668   -0.001538776
      9        1           0.004809067    0.011484506    0.004149287
     10        1          -0.004316047   -0.000142478   -0.012511959
 -------------------------------------------------------------------
 Cartesian Forces:  Max     0.042253009 RMS     0.012921202
 Leave Link  716 at Mon Sep 28 10:50:54 2020, MaxMem=   268435456 cpu:               0.7 elap:               0.2
 (Enter /applis/site/cecic/gaussian16/B.01/nehalem/g16/l103.exe)

 GradGradGradGradGradGradGradGradGradGradGradGradGradGradGradGradGradGrad
 Berny optimization.
 FormGI is forming the generalized inverse of G from B-inverse, IUseBI=4.
 Internal  Forces:  Max     0.018789181 RMS     0.007790192
 Search for a local minimum.
 Step number   1 out of a maximum of  100
 All quantities printed in internal units (Hartrees-Bohrs-Radians)
 RMS Force = .77902D-02 SwitMx=.10000D-02 MixMth= 1
 Mixed Optimization -- RFO/linear search
 Second derivative matrix not updated -- first step.
 ITU=  0
     Eigenvalues ---    0.00447   0.00468   0.03869   0.04352   0.05515
     Eigenvalues ---    0.05694   0.05800   0.08997   0.12590   0.16000
     Eigenvalues ---    0.16000   0.16000   0.16000   0.16000   0.21990
     Eigenvalues ---    0.29977   0.30126   0.32458   0.32491   0.32493
     Eigenvalues ---    0.32498   0.32503   0.32559   0.32562
 RFO step:  Lambda=-1.71626269D-02 EMin= 4.47415290D-03
 Linear search not attempted -- first point.
 Iteration  1 RMS(Cart)=  0.05793738 RMS(Int)=  0.01093716
 Iteration  2 RMS(Cart)=  0.00805639 RMS(Int)=  0.00801096
 Iteration  3 RMS(Cart)=  0.00008971 RMS(Int)=  0.00801057
 Iteration  4 RMS(Cart)=  0.00000231 RMS(Int)=  0.00801057
 Iteration  5 RMS(Cart)=  0.00000007 RMS(Int)=  0.00801057
 ITry= 1 IFail=0 DXMaxC= 1.48D-01 DCOld= 1.00D+10 DXMaxT= 3.00D-01 DXLimC= 3.00D+00 Rises=F
 Variable       Old X    -DE/DX   Delta X   Delta X   Delta X     New X
                                 (Linear)    (Quad)   (Total)
    R1        2.87713  -0.00942   0.00000  -0.02957  -0.02957   2.84756
    R2        2.09828  -0.01335   0.00000  -0.03895  -0.03895   2.05933
    R3        2.09943  -0.01329   0.00000  -0.03883  -0.03883   2.06060
    R4        2.88009   0.00310   0.00000   0.00978   0.00978   2.88988
    R5        2.10015  -0.01016   0.00000  -0.02974  -0.02974   2.07041
    R6        2.09933  -0.01182   0.00000  -0.03454  -0.03454   2.06479
    R7        2.09954  -0.01375   0.00000  -0.04020  -0.04020   2.05934
    R8        2.09950  -0.01297   0.00000  -0.03791  -0.03791   2.06160
    R9        2.09833  -0.01260   0.00000  -0.03677  -0.03677   2.06156
    A1        1.91850   0.01879   0.00000   0.16266   0.13784   2.05635
    A2        1.92951   0.01419   0.00000   0.13606   0.11110   2.04061
    A3        1.90225  -0.00342   0.00000   0.08961   0.05736   1.95961
    A4        1.93422   0.00667   0.00000   0.03525   0.03485   1.96907
    A5        1.91037  -0.00412   0.00000  -0.02941  -0.02939   1.88098
    A6        1.90242  -0.00049   0.00000   0.01216   0.01136   1.91378
    A7        1.91187  -0.00015   0.00000   0.00049   0.00081   1.91269
    A8        1.90517  -0.00073   0.00000   0.01043   0.00977   1.91494
    A9        1.89941  -0.00131   0.00000  -0.02993  -0.02993   1.86948
   A10        1.92424   0.00111   0.00000   0.00453   0.00442   1.92866
   A11        1.92646   0.00119   0.00000   0.00479   0.00468   1.93114
   A12        1.91255   0.00557   0.00000   0.03506   0.03483   1.94738
   A13        1.90586  -0.00231   0.00000  -0.01995  -0.01993   1.88593
   A14        1.89782  -0.00280   0.00000  -0.01208  -0.01230   1.88551
   A15        1.89645  -0.00290   0.00000  -0.01304  -0.01326   1.88319
    D1        3.12089  -0.00779   0.00000  -0.13071  -0.13650   2.98440
    D2       -1.05177  -0.00641   0.00000  -0.12682  -0.13307  -1.18484
    D3        1.02384  -0.01071   0.00000  -0.17322  -0.17941   0.84443
    D4       -1.06148   0.00918   0.00000   0.17312   0.17949  -0.88198
    D5        1.04905   0.01056   0.00000   0.17702   0.18292   1.23196
    D6        3.12466   0.00626   0.00000   0.13062   0.13658  -3.02195
    D7       -1.04642  -0.00067   0.00000  -0.01138  -0.01142  -1.05784
    D8        1.06065  -0.00207   0.00000  -0.03024  -0.03040   1.03024
    D9       -3.13463  -0.00141   0.00000  -0.02128  -0.02139   3.12717
   D10        3.12713   0.00029   0.00000   0.00238   0.00239   3.12952
   D11       -1.04899  -0.00111   0.00000  -0.01647  -0.01659  -1.06558
   D12        1.03892  -0.00045   0.00000  -0.00751  -0.00757   1.03135
   D13        1.04900   0.00240   0.00000   0.03225   0.03248   1.08148
   D14       -3.12712   0.00100   0.00000   0.01340   0.01350  -3.11362
   D15       -1.03922   0.00167   0.00000   0.02236   0.02252  -1.01670
         Item               Value     Threshold  Converged?
 Maximum Force            0.018789     0.000450     NO 
 RMS     Force            0.007790     0.000300     NO 
 Maximum Displacement     0.148013     0.001800     NO 
 RMS     Displacement     0.054522     0.001200     NO 
 Predicted change in Energy=-1.146453D-02
 Lowest energy point so far.  Saving SCF results.
 GradGradGradGradGradGradGradGradGradGradGradGradGradGradGradGradGradGrad

 Leave Link  103 at Mon Sep 28 10:50:54 2020, MaxMem=   268435456 cpu:               1.0 elap:               0.2
 (Enter /applis/site/cecic/gaussian16/B.01/nehalem/g16/l202.exe)
                          Input orientation:                          
 ---------------------------------------------------------------------
 Center     Atomic      Atomic             Coordinates (Angstroms)
 Number     Number       Type             X           Y           Z
 ---------------------------------------------------------------------
      1          6           0        0.059175   -0.078325    0.033540
      2          6           0        0.004508   -0.009496    1.537838
      3          1           0        1.030343    0.041412   -0.446095
      4          1           0       -0.547838   -0.845634   -0.447907
      5          6           0       -1.425578    0.029071    2.078204
      6          1           0       -1.951200    0.907583    1.704692
      7          1           0        0.522468   -0.890824    1.931979
      8          1           0        0.553844    0.868616    1.885707
      9          1           0       -1.979916   -0.856078    1.762933
     10          1           0       -1.441683    0.064077    3.168454
 ---------------------------------------------------------------------
                    Distance matrix (angstroms):
                    1          2          3          4          5
     1  C    0.000000
     2  C    1.506863   0.000000
     3  H    1.089749   2.234036   0.000000
     4  H    1.090422   2.224275   1.810389   0.000000
     5  C    2.529165   1.529258   3.521901   2.813677   0.000000
     6  H    2.793989   2.166488   3.777001   3.110769   1.089758
     7  H    2.116333   1.095614   2.604272   2.609877   2.159276
     8  H    2.138204   1.092641   2.519646   3.098082   2.158704
     9  H    2.784527   2.169172   3.840176   2.634155   1.090951
    10  H    3.478583   2.180778   4.379085   3.834659   1.090931
                    6          7          8          9         10
     6  H    0.000000
     7  H    3.066752   0.000000
     8  H    2.511878   1.760329   0.000000
     9  H    1.764856   2.508328   3.067504   0.000000
    10  H    1.764571   2.509701   2.504966   1.764049   0.000000
 Symmetry turned off by external request.
 Stoichiometry    C3H7(2)
 Framework group  C1[X(C3H7)]
 Deg. of freedom    24
 Full point group                 C1      NOp   1
 Rotational constants (GHZ):          33.0265817           8.8898422           7.7836062
 Leave Link  202 at Mon Sep 28 10:50:54 2020, MaxMem=   268435456 cpu:               0.4 elap:               0.1
 (Enter /applis/site/cecic/gaussian16/B.01/nehalem/g16/l301.exe)
 Standard basis: CC-pVTZ (5D, 7F)
 Ernie: Thresh=  0.10000D-02 Tol=  0.10000D-05 Strict=F.
 Ernie:  9 primitive shells out of 134 were deleted.
   188 basis functions,   275 primitive gaussians,   210 cartesian basis functions
    13 alpha electrons       12 beta electrons
       nuclear repulsion energy        75.7510881123 Hartrees.
 IExCor= 4336 DFT=T Ex+Corr=M062X ExCW=0 ScaHFX=  0.540000
 ScaDFX=  1.000000  1.000000  1.000000  1.000000 ScalE2=  1.000000  1.000000
 IRadAn=      5 IRanWt=     -1 IRanGd=            0 ICorTp=0 IEmpDi=  4
 NAtoms=   10 NActive=   10 NUniq=   10 SFac= 1.00D+00 NAtFMM=   60 NAOKFM=F Big=F
 Integral buffers will be    131072 words long.
 Raffenetti 2 integral format.
 Two-electron integral symmetry is turned off.
 Leave Link  301 at Mon Sep 28 10:50:54 2020, MaxMem=   268435456 cpu:               0.4 elap:               0.1
 (Enter /applis/site/cecic/gaussian16/B.01/nehalem/g16/l302.exe)
 NPDir=0 NMtPBC=     1 NCelOv=     1 NCel=       1 NClECP=     1 NCelD=      1
         NCelK=      1 NCelE2=     1 NClLst=     1 CellRange=     0.0.
 One-electron integrals computed using PRISM.
 NBasis=   188 RedAO= T EigKep=  9.56D-04  NBF=   188
 NBsUse=   188 1.00D-06 EigRej= -1.00D+00 NBFU=   188
 Precomputing XC quadrature grid using
 IXCGrd= 4 IRadAn=           5 IRanWt=          -1 IRanGd=           0 AccXCQ= 0.00D+00.
 Generated NRdTot=       0 NPtTot=           0 NUsed=           0 NTot=          32
 NSgBfM=   210   210   210   210   210 MxSgAt=    10 MxSgA2=    10.
 Leave Link  302 at Mon Sep 28 10:50:54 2020, MaxMem=   268435456 cpu:               1.6 elap:               0.2
 (Enter /applis/site/cecic/gaussian16/B.01/nehalem/g16/l303.exe)
 DipDrv:  MaxL=1.
 Leave Link  303 at Mon Sep 28 10:50:55 2020, MaxMem=   268435456 cpu:               0.5 elap:               0.1
 (Enter /applis/site/cecic/gaussian16/B.01/nehalem/g16/l401.exe)
 Initial guess from the checkpoint file:  "input.chk"
 B after Tr=     0.047268   -0.071754    0.032776
         Rot=    0.999957    0.007642    0.005029    0.001323 Ang=   1.06 deg.
 Guess basis will be translated and rotated to current coordinates.
 JPrj=2 DoOrth=T DoCkMO=T.
 Initial guess <Sx>= 0.0000 <Sy>= 0.0000 <Sz>= 0.5000 <S**2>= 0.7545 S= 0.5023
 Generating alternative initial guess.
 ExpMin= 1.03D-01 ExpMax= 8.24D+03 ExpMxC= 2.81D+02 IAcc=3 IRadAn=         5 AccDes= 0.00D+00
 Harris functional with IExCor= 1009 and IRadAn=       5 diagonalized for initial guess.
 HarFok:  IExCor= 1009 AccDes= 0.00D+00 IRadAn=         5 IDoV= 1 UseB2=F ITyADJ=14
 ICtDFT=  3500011 ScaDFX=  1.000000  1.000000  1.000000  1.000000
 FoFCou: FMM=F IPFlag=           0 FMFlag=      100000 FMFlg1=           0
         NFxFlg=           0 DoJE=T BraDBF=F KetDBF=T FulRan=T
         wScrn=  0.000000 ICntrl=       500 IOpCl=  0 I1Cent=   200000004 NGrid=           0
         NMat0=    1 NMatS0=      1 NMatT0=    0 NMatD0=    1 NMtDS0=    0 NMtDT0=    0
 Symmetry not used in FoFCou.
 Harris En= -118.422963034684    
 Leave Link  401 at Mon Sep 28 10:50:55 2020, MaxMem=   268435456 cpu:               5.9 elap:               0.8
 (Enter /applis/site/cecic/gaussian16/B.01/nehalem/g16/l502.exe)
 Two-electron integral symmetry not used.
 UHF open shell SCF:
 Using DIIS extrapolation, IDIIS=  1040.
 NGot=   268435456 LenX=   268344050 LenY=   268299509
 Requested convergence on RMS density matrix=1.00D-08 within 128 cycles.
 Requested convergence on MAX density matrix=1.00D-06.
 Requested convergence on             energy=1.00D-06.
 No special actions if energy rises.
 Fock matrices will be formed incrementally for  20 cycles.
 Integral accuracy reduced to 1.0D-05 until final iterations.

 Cycle   1  Pass 0  IDiag  1:
 FoFJK:  IHMeth= 1 ICntrl=       0 DoSepK=F KAlg= 0 I1Cent=           0 FoldK=F
 IRaf= 990000000 NMat=       1 IRICut=       1 DoRegI=T DoRafI=F ISym2E= 0 IDoP0=0 IntGTp=1.
 FoFCou: FMM=F IPFlag=           0 FMFlag=      100000 FMFlg1=           0
         NFxFlg=           0 DoJE=F BraDBF=F KetDBF=F FulRan=T
         wScrn=  0.000000 ICntrl=         0 IOpCl=  1 I1Cent=           0 NGrid=           0
         NMat0=    1 NMatS0=      1 NMatT0=    0 NMatD0=    1 NMtDS0=    0 NMtDT0=    0
 Symmetry not used in FoFCou.
 E= -118.434204468914    
 DIIS: error= 6.45D-03 at cycle   1 NSaved=   1.
 NSaved= 1 IEnMin= 1 EnMin= -118.434204468914     IErMin= 1 ErrMin= 6.45D-03
 ErrMax= 6.45D-03  0.00D+00 EMaxC= 1.00D-01 BMatC= 2.18D-02 BMatP= 2.18D-02
 IDIUse=3 WtCom= 9.35D-01 WtEn= 6.45D-02
 Coeff-Com:  0.100D+01
 Coeff-En:   0.100D+01
 Coeff:      0.100D+01
 Gap=     0.866 Goal=   None    Shift=    0.000
 Gap=     0.972 Goal=   None    Shift=    0.000
 GapD=    0.866 DampG=2.000 DampE=1.000 DampFc=2.0000 IDamp=-1.
 RMSDP=2.98D-04 MaxDP=9.72D-03              OVMax= 3.52D-02

 Cycle   2  Pass 0  IDiag  1:
 RMSU=  2.98D-04    CP:  9.99D-01
 E= -118.438915781466     Delta-E=       -0.004711312552 Rises=F Damp=F
 DIIS: error= 1.16D-03 at cycle   2 NSaved=   2.
 NSaved= 2 IEnMin= 2 EnMin= -118.438915781466     IErMin= 2 ErrMin= 1.16D-03
 ErrMax= 1.16D-03  0.00D+00 EMaxC= 1.00D-01 BMatC= 7.72D-04 BMatP= 2.18D-02
 IDIUse=3 WtCom= 9.88D-01 WtEn= 1.16D-02
 Coeff-Com: -0.349D-01 0.103D+01
 Coeff-En:   0.000D+00 0.100D+01
 Coeff:     -0.345D-01 0.103D+01
 Gap=     0.348 Goal=   None    Shift=    0.000
 Gap=     0.377 Goal=   None    Shift=    0.000
 RMSDP=1.19D-04 MaxDP=7.33D-03 DE=-4.71D-03 OVMax= 1.37D-02

 Cycle   3  Pass 0  IDiag  1:
 RMSU=  9.79D-05    CP:  9.98D-01  1.23D+00
 E= -118.439283314572     Delta-E=       -0.000367533105 Rises=F Damp=F
 DIIS: error= 8.27D-04 at cycle   3 NSaved=   3.
 NSaved= 3 IEnMin= 3 EnMin= -118.439283314572     IErMin= 3 ErrMin= 8.27D-04
 ErrMax= 8.27D-04  0.00D+00 EMaxC= 1.00D-01 BMatC= 3.03D-04 BMatP= 7.72D-04
 IDIUse=3 WtCom= 9.92D-01 WtEn= 8.27D-03
 Coeff-Com: -0.385D-01 0.351D+00 0.688D+00
 Coeff-En:   0.000D+00 0.000D+00 0.100D+01
 Coeff:     -0.382D-01 0.348D+00 0.690D+00
 Gap=     0.350 Goal=   None    Shift=    0.000
 Gap=     0.378 Goal=   None    Shift=    0.000
 RMSDP=4.33D-05 MaxDP=1.78D-03 DE=-3.68D-04 OVMax= 3.61D-03

 Cycle   4  Pass 0  IDiag  1:
 RMSU=  3.57D-05    CP:  9.98D-01  1.31D+00  9.90D-01
 E= -118.439384718243     Delta-E=       -0.000101403671 Rises=F Damp=F
 DIIS: error= 3.35D-04 at cycle   4 NSaved=   4.
 NSaved= 4 IEnMin= 4 EnMin= -118.439384718243     IErMin= 4 ErrMin= 3.35D-04
 ErrMax= 3.35D-04  0.00D+00 EMaxC= 1.00D-01 BMatC= 3.92D-05 BMatP= 3.03D-04
 IDIUse=3 WtCom= 9.97D-01 WtEn= 3.35D-03
 Coeff-Com:  0.438D-02-0.196D+00 0.590D-01 0.113D+01
 Coeff-En:   0.000D+00 0.000D+00 0.000D+00 0.100D+01
 Coeff:      0.437D-02-0.196D+00 0.588D-01 0.113D+01
 Gap=     0.349 Goal=   None    Shift=    0.000
 Gap=     0.377 Goal=   None    Shift=    0.000
 RMSDP=3.69D-05 MaxDP=2.13D-03 DE=-1.01D-04 OVMax= 3.66D-03

 Cycle   5  Pass 0  IDiag  1:
 RMSU=  1.12D-05    CP:  9.98D-01  1.37D+00  1.26D+00  1.39D+00
 E= -118.439412330604     Delta-E=       -0.000027612361 Rises=F Damp=F
 DIIS: error= 8.44D-05 at cycle   5 NSaved=   5.
 NSaved= 5 IEnMin= 5 EnMin= -118.439412330604     IErMin= 5 ErrMin= 8.44D-05
 ErrMax= 8.44D-05  0.00D+00 EMaxC= 1.00D-01 BMatC= 3.10D-06 BMatP= 3.92D-05
 IDIUse=1 WtCom= 1.00D+00 WtEn= 0.00D+00
 Coeff-Com:  0.469D-02-0.695D-01-0.624D-01 0.184D+00 0.943D+00
 Coeff:      0.469D-02-0.695D-01-0.624D-01 0.184D+00 0.943D+00
 Gap=     0.349 Goal=   None    Shift=    0.000
 Gap=     0.377 Goal=   None    Shift=    0.000
 RMSDP=9.77D-06 MaxDP=5.57D-04 DE=-2.76D-05 OVMax= 9.80D-04

 Initial convergence to 1.0D-05 achieved.  Increase integral accuracy.
 Cycle   6  Pass 1  IDiag  1:
 E= -118.439429445683     Delta-E=       -0.000017115079 Rises=F Damp=F
 DIIS: error= 2.50D-05 at cycle   1 NSaved=   1.
 NSaved= 1 IEnMin= 1 EnMin= -118.439429445683     IErMin= 1 ErrMin= 2.50D-05
 ErrMax= 2.50D-05  0.00D+00 EMaxC= 1.00D-01 BMatC= 1.03D-06 BMatP= 1.03D-06
 IDIUse=1 WtCom= 1.00D+00 WtEn= 0.00D+00
 Coeff-Com:  0.100D+01
 Coeff:      0.100D+01
 Gap=     0.349 Goal=   None    Shift=    0.000
 Gap=     0.377 Goal=   None    Shift=    0.000
 RMSDP=9.77D-06 MaxDP=5.57D-04 DE=-1.71D-05 OVMax= 2.07D-04

 Cycle   7  Pass 1  IDiag  1:
 RMSU=  3.30D-06    CP:  1.00D+00
 E= -118.439429614843     Delta-E=       -0.000000169160 Rises=F Damp=F
 DIIS: error= 1.62D-05 at cycle   2 NSaved=   2.
 NSaved= 2 IEnMin= 2 EnMin= -118.439429614843     IErMin= 2 ErrMin= 1.62D-05
 ErrMax= 1.62D-05  0.00D+00 EMaxC= 1.00D-01 BMatC= 2.90D-07 BMatP= 1.03D-06
 IDIUse=1 WtCom= 1.00D+00 WtEn= 0.00D+00
 Coeff-Com:  0.287D+00 0.713D+00
 Coeff:      0.287D+00 0.713D+00
 Gap=     0.349 Goal=   None    Shift=    0.000
 Gap=     0.377 Goal=   None    Shift=    0.000
 RMSDP=1.05D-06 MaxDP=3.95D-05 DE=-1.69D-07 OVMax= 9.43D-05

 Cycle   8  Pass 1  IDiag  1:
 RMSU=  1.01D-06    CP:  1.00D+00  9.09D-01
 E= -118.439429680430     Delta-E=       -0.000000065587 Rises=F Damp=F
 DIIS: error= 7.32D-06 at cycle   3 NSaved=   3.
 NSaved= 3 IEnMin= 3 EnMin= -118.439429680430     IErMin= 3 ErrMin= 7.32D-06
 ErrMax= 7.32D-06  0.00D+00 EMaxC= 1.00D-01 BMatC= 4.37D-08 BMatP= 2.90D-07
 IDIUse=1 WtCom= 1.00D+00 WtEn= 0.00D+00
 Coeff-Com: -0.589D-01 0.232D+00 0.827D+00
 Coeff:     -0.589D-01 0.232D+00 0.827D+00
 Gap=     0.349 Goal=   None    Shift=    0.000
 Gap=     0.377 Goal=   None    Shift=    0.000
 RMSDP=4.36D-07 MaxDP=1.52D-05 DE=-6.56D-08 OVMax= 4.29D-05

 Cycle   9  Pass 1  IDiag  1:
 RMSU=  3.37D-07    CP:  1.00D+00  9.91D-01  9.49D-01
 E= -118.439429694854     Delta-E=       -0.000000014424 Rises=F Damp=F
 DIIS: error= 2.04D-06 at cycle   4 NSaved=   4.
 NSaved= 4 IEnMin= 4 EnMin= -118.439429694854     IErMin= 4 ErrMin= 2.04D-06
 ErrMax= 2.04D-06  0.00D+00 EMaxC= 1.00D-01 BMatC= 1.67D-09 BMatP= 4.37D-08
 IDIUse=1 WtCom= 1.00D+00 WtEn= 0.00D+00
 Coeff-Com: -0.228D-02-0.826D-01-0.161D+00 0.125D+01
 Coeff:     -0.228D-02-0.826D-01-0.161D+00 0.125D+01
 Gap=     0.349 Goal=   None    Shift=    0.000
 Gap=     0.377 Goal=   None    Shift=    0.000
 RMSDP=2.22D-07 MaxDP=9.37D-06 DE=-1.44D-08 OVMax= 2.44D-05

 Cycle  10  Pass 1  IDiag  1:
 RMSU=  1.07D-07    CP:  1.00D+00  1.01D+00  1.05D+00  1.46D+00
 E= -118.439429696319     Delta-E=       -0.000000001465 Rises=F Damp=F
 DIIS: error= 1.01D-06 at cycle   5 NSaved=   5.
 NSaved= 5 IEnMin= 5 EnMin= -118.439429696319     IErMin= 5 ErrMin= 1.01D-06
 ErrMax= 1.01D-06  0.00D+00 EMaxC= 1.00D-01 BMatC= 5.16D-10 BMatP= 1.67D-09
 IDIUse=1 WtCom= 1.00D+00 WtEn= 0.00D+00
 Coeff-Com:  0.900D-02-0.733D-01-0.207D+00 0.503D+00 0.768D+00
 Coeff:      0.900D-02-0.733D-01-0.207D+00 0.503D+00 0.768D+00
 Gap=     0.349 Goal=   None    Shift=    0.000
 Gap=     0.377 Goal=   None    Shift=    0.000
 RMSDP=8.43D-08 MaxDP=3.53D-06 DE=-1.47D-09 OVMax= 9.16D-06

 Cycle  11  Pass 1  IDiag  1:
 RMSU=  4.52D-08    CP:  1.00D+00  1.01D+00  1.08D+00  1.64D+00  1.01D+00
 E= -118.439429696555     Delta-E=       -0.000000000236 Rises=F Damp=F
 DIIS: error= 1.91D-07 at cycle   6 NSaved=   6.
 NSaved= 6 IEnMin= 6 EnMin= -118.439429696555     IErMin= 6 ErrMin= 1.91D-07
 ErrMax= 1.91D-07  0.00D+00 EMaxC= 1.00D-01 BMatC= 1.69D-11 BMatP= 5.16D-10
 IDIUse=1 WtCom= 1.00D+00 WtEn= 0.00D+00
 Coeff-Com:  0.140D-02-0.285D-02-0.144D-01-0.344D-01 0.100D+00 0.950D+00
 Coeff:      0.140D-02-0.285D-02-0.144D-01-0.344D-01 0.100D+00 0.950D+00
 Gap=     0.349 Goal=   None    Shift=    0.000
 Gap=     0.377 Goal=   None    Shift=    0.000
 RMSDP=1.95D-08 MaxDP=8.68D-07 DE=-2.36D-10 OVMax= 2.16D-06

 Cycle  12  Pass 1  IDiag  1:
 RMSU=  1.08D-08    CP:  1.00D+00  1.01D+00  1.09D+00  1.67D+00  1.10D+00
                    CP:  1.14D+00
 E= -118.439429696566     Delta-E=       -0.000000000011 Rises=F Damp=F
 DIIS: error= 5.40D-08 at cycle   7 NSaved=   7.
 NSaved= 7 IEnMin= 7 EnMin= -118.439429696566     IErMin= 7 ErrMin= 5.40D-08
 ErrMax= 5.40D-08  0.00D+00 EMaxC= 1.00D-01 BMatC= 1.58D-12 BMatP= 1.69D-11
 IDIUse=1 WtCom= 1.00D+00 WtEn= 0.00D+00
 Coeff-Com: -0.541D-03 0.620D-02 0.161D-01-0.545D-01-0.515D-01 0.191D+00
 Coeff-Com:  0.893D+00
 Coeff:     -0.541D-03 0.620D-02 0.161D-01-0.545D-01-0.515D-01 0.191D+00
 Coeff:      0.893D+00
 Gap=     0.349 Goal=   None    Shift=    0.000
 Gap=     0.377 Goal=   None    Shift=    0.000
 RMSDP=6.16D-09 MaxDP=2.69D-07 DE=-1.08D-11 OVMax= 6.78D-07

 SCF Done:  E(UM062X) =  -118.439429697     A.U. after   12 cycles
            NFock= 12  Conv=0.62D-08     -V/T= 2.0068
 <Sx>= 0.0000 <Sy>= 0.0000 <Sz>= 0.5000 <S**2>= 0.7547 S= 0.5023
 <L.S>= 0.000000000000E+00
 KE= 1.176418420813D+02 PE=-4.250671271419D+02 EE= 1.132347672517D+02
 Annihilation of the first spin contaminant:
 S**2 before annihilation     0.7547,   after     0.7500
 Leave Link  502 at Mon Sep 28 10:51:20 2020, MaxMem=   268435456 cpu:             195.8 elap:              24.6
 (Enter /applis/site/cecic/gaussian16/B.01/nehalem/g16/l701.exe)
 ... and contract with generalized density number  0.
 Compute integral first derivatives.
 Leave Link  701 at Mon Sep 28 10:51:20 2020, MaxMem=   268435456 cpu:               1.1 elap:               0.2
 (Enter /applis/site/cecic/gaussian16/B.01/nehalem/g16/l702.exe)
 L702 exits ... SP integral derivatives will be done elsewhere.
 Leave Link  702 at Mon Sep 28 10:51:20 2020, MaxMem=   268435456 cpu:               0.3 elap:               0.1
 (Enter /applis/site/cecic/gaussian16/B.01/nehalem/g16/l703.exe)
 Integral derivatives from FoFJK, PRISM(SPDF).
 Compute integral first derivatives, UseDBF=F ICtDFT=           0.
 Calling FoFJK, ICntrl=      2127 FMM=F ISym2X=0 I1Cent= 0 IOpClX= 1 NMat=1 NMatS=1 NMatT=0.
 FoFJK:  IHMeth= 1 ICntrl=    2127 DoSepK=F KAlg= 0 I1Cent=           0 FoldK=F
 IRaf=         0 NMat=       1 IRICut=       1 DoRegI=T DoRafI=F ISym2E= 0 IDoP0=0 IntGTp=1.
 FoFCou: FMM=F IPFlag=           0 FMFlag=      100000 FMFlg1=         800
         NFxFlg=           0 DoJE=F BraDBF=F KetDBF=F FulRan=T
         wScrn=  0.000000 ICntrl=      2127 IOpCl=  1 I1Cent=           0 NGrid=           0
         NMat0=    1 NMatS0=      1 NMatT0=    0 NMatD0=    1 NMtDS0=    0 NMtDT0=    0
 Symmetry not used in FoFCou.
 Leave Link  703 at Mon Sep 28 10:51:25 2020, MaxMem=   268435456 cpu:              35.3 elap:               4.5
 (Enter /applis/site/cecic/gaussian16/B.01/nehalem/g16/l716.exe)
 Dipole        = 8.88308759D-02-1.32544794D-01 1.47089355D-01
 -------------------------------------------------------------------
 Center     Atomic                   Forces (Hartrees/Bohr)
 Number     Number              X              Y              Z
 -------------------------------------------------------------------
      1        6           0.007995757   -0.013998694    0.005604953
      2        6          -0.004157431    0.004344066   -0.010013472
      3        1          -0.004345807    0.005468339    0.001651144
      4        1          -0.002993679    0.006297920    0.001377530
      5        6           0.001512334   -0.000733673    0.000233343
      6        1          -0.000192518   -0.000306437   -0.000306849
      7        1           0.000963312    0.000283301    0.002362530
      8        1           0.000789674   -0.001654790    0.000317637
      9        1          -0.000096377    0.000468679   -0.000245935
     10        1           0.000524737   -0.000168710   -0.000980881
 -------------------------------------------------------------------
 Cartesian Forces:  Max     0.013998694 RMS     0.004260232
 Leave Link  716 at Mon Sep 28 10:51:25 2020, MaxMem=   268435456 cpu:               0.4 elap:               0.1
 (Enter /applis/site/cecic/gaussian16/B.01/nehalem/g16/l103.exe)

 GradGradGradGradGradGradGradGradGradGradGradGradGradGradGradGradGradGrad
 Berny optimization.
 Using GEDIIS/GDIIS optimizer.
 FormGI is forming the generalized inverse of G from B-inverse, IUseBI=4.
 Internal  Forces:  Max     0.008492919 RMS     0.002222980
 Search for a local minimum.
 Step number   2 out of a maximum of  100
 All quantities printed in internal units (Hartrees-Bohrs-Radians)
 RMS Force = .22230D-02 SwitMx=.10000D-02 MixMth= 1
 Mixed Optimization -- RFO/linear search
 Update second derivatives using D2CorX and points    1    2
 DE= -1.00D-02 DEPred=-1.15D-02 R= 8.74D-01
 TightC=F SS=  1.41D+00  RLast= 4.55D-01 DXNew= 5.0454D-01 1.3641D+00
 Trust test= 8.74D-01 RLast= 4.55D-01 DXMaxT set to 5.05D-01
 ITU=  1  0
 Use linear search instead of GDIIS.
     Eigenvalues ---    0.00447   0.00468   0.02698   0.04134   0.05355
     Eigenvalues ---    0.05539   0.05650   0.09414   0.12899   0.15924
     Eigenvalues ---    0.16000   0.16000   0.16000   0.17398   0.22290
     Eigenvalues ---    0.27248   0.30043   0.31784   0.32471   0.32492
     Eigenvalues ---    0.32501   0.32526   0.32550   0.33516
 RFO step:  Lambda=-2.51273883D-03 EMin= 4.47418741D-03
 Quartic linear search produced a step of  0.43745.
 Iteration  1 RMS(Cart)=  0.04821117 RMS(Int)=  0.00836862
 Iteration  2 RMS(Cart)=  0.00460242 RMS(Int)=  0.00702765
 Iteration  3 RMS(Cart)=  0.00003705 RMS(Int)=  0.00702754
 Iteration  4 RMS(Cart)=  0.00000053 RMS(Int)=  0.00702754
 ITry= 1 IFail=0 DXMaxC= 1.33D-01 DCOld= 1.00D+10 DXMaxT= 5.05D-01 DXLimC= 3.00D+00 Rises=F
 Variable       Old X    -DE/DX   Delta X   Delta X   Delta X     New X
                                 (Linear)    (Quad)   (Total)
    R1        2.84756  -0.00849  -0.01293  -0.02732  -0.04026   2.80730
    R2        2.05933  -0.00400  -0.01704   0.00014  -0.01690   2.04243
    R3        2.06060  -0.00337  -0.01699   0.00285  -0.01414   2.04646
    R4        2.88988  -0.00211   0.00428  -0.01477  -0.01049   2.87939
    R5        2.07041   0.00108  -0.01301   0.01858   0.00557   2.07598
    R6        2.06479  -0.00083  -0.01511   0.01225  -0.00286   2.06193
    R7        2.05934  -0.00005  -0.01758   0.01836   0.00078   2.06012
    R8        2.06160  -0.00026  -0.01658   0.01637  -0.00022   2.06138
    R9        2.06156  -0.00099  -0.01609   0.01256  -0.00352   2.05804
    A1        2.05635   0.00115   0.06030  -0.00010   0.03603   2.09238
    A2        2.04061   0.00104   0.04860   0.01107   0.03546   2.07607
    A3        1.95961   0.00207   0.02509   0.07931   0.07798   2.03759
    A4        1.96907  -0.00162   0.01525  -0.02223  -0.00714   1.96193
    A5        1.88098   0.00178  -0.01286   0.03556   0.02272   1.90370
    A6        1.91378   0.00028   0.00497  -0.00139   0.00324   1.91702
    A7        1.91269  -0.00045   0.00036  -0.00740  -0.00689   1.90580
    A8        1.91494   0.00124   0.00428   0.00592   0.00992   1.92486
    A9        1.86948  -0.00123  -0.01309  -0.00955  -0.02265   1.84682
   A10        1.92866   0.00019   0.00193  -0.00051   0.00137   1.93003
   A11        1.93114   0.00020   0.00205  -0.00112   0.00089   1.93203
   A12        1.94738  -0.00069   0.01524  -0.02126  -0.00612   1.94126
   A13        1.88593  -0.00037  -0.00872   0.00388  -0.00483   1.88110
   A14        1.88551   0.00039  -0.00538   0.01080   0.00532   1.89083
   A15        1.88319   0.00030  -0.00580   0.00942   0.00353   1.88672
    D1        2.98440  -0.00288  -0.05971  -0.06321  -0.12588   2.85852
    D2       -1.18484  -0.00324  -0.05821  -0.06211  -0.12349  -1.30833
    D3        0.84443  -0.00356  -0.07848  -0.05442  -0.13603   0.70840
    D4       -0.88198   0.00379   0.07852   0.09218   0.17392  -0.70807
    D5        1.23196   0.00342   0.08002   0.09329   0.17630   1.40827
    D6       -3.02195   0.00310   0.05975   0.10098   0.16376  -2.85819
    D7       -1.05784   0.00034  -0.00500   0.00650   0.00149  -1.05635
    D8        1.03024   0.00013  -0.01330   0.01029  -0.00308   1.02717
    D9        3.12717   0.00019  -0.00936   0.00731  -0.00209   3.12508
   D10        3.12952  -0.00054   0.00105  -0.01887  -0.01782   3.11170
   D11       -1.06558  -0.00075  -0.00726  -0.01508  -0.02239  -1.08797
   D12        1.03135  -0.00070  -0.00331  -0.01807  -0.02141   1.00994
   D13        1.08148   0.00049   0.01421  -0.00641   0.00790   1.08938
   D14       -3.11362   0.00027   0.00591  -0.00262   0.00333  -3.11029
   D15       -1.01670   0.00033   0.00985  -0.00560   0.00432  -1.01238
         Item               Value     Threshold  Converged?
 Maximum Force            0.008493     0.000450     NO 
 RMS     Force            0.002223     0.000300     NO 
 Maximum Displacement     0.133491     0.001800     NO 
 RMS     Displacement     0.047869     0.001200     NO 
 Predicted change in Energy=-1.846565D-03
 Lowest energy point so far.  Saving SCF results.
 GradGradGradGradGradGradGradGradGradGradGradGradGradGradGradGradGradGrad

 Leave Link  103 at Mon Sep 28 10:51:25 2020, MaxMem=   268435456 cpu:               0.3 elap:               0.1
 (Enter /applis/site/cecic/gaussian16/B.01/nehalem/g16/l202.exe)
                          Input orientation:                          
 ---------------------------------------------------------------------
 Center     Atomic      Atomic             Coordinates (Angstroms)
 Number     Number       Type             X           Y           Z
 ---------------------------------------------------------------------
      1          6           0        0.081945   -0.133646    0.064997
      2          6           0        0.016684   -0.025886    1.545205
      3          1           0        1.006352    0.084891   -0.450618
      4          1           0       -0.618478   -0.783586   -0.444653
      5          6           0       -1.416072    0.021645    2.061565
      6          1           0       -1.941071    0.886793    1.656141
      7          1           0        0.532864   -0.887106    1.990960
      8          1           0        0.567802    0.855460    1.876953
      9          1           0       -1.964317   -0.871975    1.760239
     10          1           0       -1.441586    0.083811    3.148557
 ---------------------------------------------------------------------
                    Distance matrix (angstroms):
                    1          2          3          4          5
     1  C    0.000000
     2  C    1.485559   0.000000
     3  H    1.080808   2.230476   0.000000
     4  H    1.082939   2.221953   1.842379   0.000000
     5  C    2.500891   1.523706   3.490445   2.750579   0.000000
     6  H    2.768687   2.162891   3.710631   2.992115   1.090171
     7  H    2.116687   1.098562   2.670258   2.696018   2.151550
     8  H    2.120748   1.091127   2.490721   3.079543   2.159881
     9  H    2.757927   2.164826   3.824704   2.584694   1.090838
    10  H    3.446270   2.170098   4.352754   3.786957   1.089067
                    6          7          8          9         10
     6  H    0.000000
     7  H    3.062544   0.000000
     8  H    2.518767   1.746641   0.000000
     9  H    1.761999   2.507862   3.067455   0.000000
    10  H    1.766797   2.486194   2.500012   1.764710   0.000000
 Symmetry turned off by external request.
 Stoichiometry    C3H7(2)
 Framework group  C1[X(C3H7)]
 Deg. of freedom    24
 Full point group                 C1      NOp   1
 Rotational constants (GHZ):          32.8921914           9.1064825           7.9088171
 Leave Link  202 at Mon Sep 28 10:51:25 2020, MaxMem=   268435456 cpu:               0.0 elap:               0.0
 (Enter /applis/site/cecic/gaussian16/B.01/nehalem/g16/l301.exe)
 Standard basis: CC-pVTZ (5D, 7F)
 Ernie: Thresh=  0.10000D-02 Tol=  0.10000D-05 Strict=F.
 Ernie:  9 primitive shells out of 134 were deleted.
   188 basis functions,   275 primitive gaussians,   210 cartesian basis functions
    13 alpha electrons       12 beta electrons
       nuclear repulsion energy        76.2117786256 Hartrees.
 IExCor= 4336 DFT=T Ex+Corr=M062X ExCW=0 ScaHFX=  0.540000
 ScaDFX=  1.000000  1.000000  1.000000  1.000000 ScalE2=  1.000000  1.000000
[...]
 (Enter /applis/site/cecic/gaussian16/B.01/nehalem/g16/l601.exe)
 Copying SCF densities to generalized density rwf, IOpCl= 1 IROHF=0.

 **********************************************************************

            Population analysis using the SCF Density.

 **********************************************************************

 Orbital symmetries:
 Alpha Orbitals:
       Occupied  (A) (A) (A) (A) (A) (A) (A) (A) (A) (A) (A) (A)
                 (A)
       Virtual   (A) (A) (A) (A) (A) (A) (A) (A) (A) (A) (A) (A)
                 (A) (A) (A) (A) (A) (A) (A) (A) (A) (A) (A) (A)
                 (A) (A) (A) (A) (A) (A) (A) (A) (A) (A) (A) (A)
                 (A) (A) (A) (A) (A) (A) (A) (A) (A) (A) (A) (A)
                 (A) (A) (A) (A) (A) (A) (A) (A) (A) (A) (A) (A)
                 (A) (A) (A) (A) (A) (A) (A) (A) (A) (A) (A) (A)
                 (A) (A) (A) (A) (A) (A) (A) (A) (A) (A) (A) (A)
                 (A) (A) (A) (A) (A) (A) (A) (A) (A) (A) (A) (A)
                 (A) (A) (A) (A) (A) (A) (A) (A) (A) (A) (A) (A)
                 (A) (A) (A) (A) (A) (A) (A) (A) (A) (A) (A) (A)
                 (A) (A) (A) (A) (A) (A) (A) (A) (A) (A) (A) (A)
                 (A) (A) (A) (A) (A) (A) (A) (A) (A) (A) (A) (A)
                 (A) (A) (A) (A) (A) (A) (A) (A) (A) (A) (A) (A)
                 (A) (A) (A) (A) (A) (A) (A) (A) (A) (A) (A) (A)
                 (A) (A) (A) (A) (A) (A) (A) (A) (A) (A) (A) (A)
                 (A) (A) (A) (A) (A) (A) (A) (A) (A) (A) (A) (A)
                 (A) (A) (A) (A) (A) (A) (A) (A) (A) (A) (A) (A)
                 (A) (A) (A) (A) (A) (A) (A) (A) (A) (A) (A) (A)
                 (A) (A) (A) (A) (A) (A) (A) (A) (A) (A) (A) (A)
                 (A) (A) (A) (A) (A) (A) (A) (A) (A) (A) (A) (A)
                 (A) (A) (A) (A) (A) (A) (A) (A) (A) (A) (A) (A)
                 (A) (A) (A) (A) (A) (A) (A) (A) (A) (A) (A) (A)
                 (A) (A) (A) (A) (A) (A) (A) (A) (A) (A) (A) (A)
                 (A) (A) (A) (A) (A) (A) (A) (A) (A) (A)
 Beta  Orbitals:
       Occupied  (A) (A) (A) (A) (A) (A) (A) (A) (A) (A) (A) (A)
       Virtual   (A) (A) (A) (A) (A) (A) (A) (A) (A) (A) (A) (A)
                 (A) (A) (A) (A) (A) (A) (A) (A) (A) (A) (A) (A)
                 (A) (A) (A) (A) (A) (A) (A) (A) (A) (A) (A) (A)
                 (A) (A) (A) (A) (A) (A) (A) (A) (A) (A) (A) (A)
                 (A) (A) (A) (A) (A) (A) (A) (A) (A) (A) (A) (A)
                 (A) (A) (A) (A) (A) (A) (A) (A) (A) (A) (A) (A)
                 (A) (A) (A) (A) (A) (A) (A) (A) (A) (A) (A) (A)
                 (A) (A) (A) (A) (A) (A) (A) (A) (A) (A) (A) (A)
                 (A) (A) (A) (A) (A) (A) (A) (A) (A) (A) (A) (A)
                 (A) (A) (A) (A) (A) (A) (A) (A) (A) (A) (A) (A)
                 (A) (A) (A) (A) (A) (A) (A) (A) (A) (A) (A) (A)
                 (A) (A) (A) (A) (A) (A) (A) (A) (A) (A) (A) (A)
                 (A) (A) (A) (A) (A) (A) (A) (A) (A) (A) (A) (A)
                 (A) (A) (A) (A) (A) (A) (A) (A) (A) (A) (A) (A)
                 (A) (A) (A) (A) (A) (A) (A) (A) (A) (A) (A) (A)
                 (A) (A) (A) (A) (A) (A) (A) (A) (A) (A) (A) (A)
                 (A) (A) (A) (A) (A) (A) (A) (A) (A) (A) (A) (A)
                 (A) (A) (A) (A) (A) (A) (A) (A) (A) (A) (A) (A)
                 (A) (A) (A) (A) (A) (A) (A) (A) (A) (A) (A) (A)
                 (A) (A) (A) (A) (A) (A) (A) (A) (A) (A) (A) (A)
                 (A) (A) (A) (A) (A) (A) (A) (A) (A) (A) (A) (A)
                 (A) (A) (A) (A) (A) (A) (A) (A) (A) (A) (A) (A)
                 (A) (A) (A) (A) (A) (A) (A) (A) (A) (A) (A) (A)
                 (A) (A) (A) (A) (A) (A) (A) (A) (A) (A) (A)
 The electronic state is 2-A.
 Alpha  occ. eigenvalues --  -11.22544 -11.22111 -11.21170  -1.06372  -0.92775
 Alpha  occ. eigenvalues --   -0.80175  -0.62455  -0.60977  -0.56467  -0.50662
 Alpha  occ. eigenvalues --   -0.49811  -0.48530  -0.34741
 Alpha virt. eigenvalues --    0.03190   0.03924   0.04111   0.04360   0.06095
 Alpha virt. eigenvalues --    0.06393   0.06559   0.10163   0.10475   0.12054
 Alpha virt. eigenvalues --    0.12393   0.13204   0.14196   0.14273   0.14675
 Alpha virt. eigenvalues --    0.15600   0.16612   0.18770   0.20130   0.21931
 Alpha virt. eigenvalues --    0.23841   0.24522   0.25316   0.27674   0.28411
 Alpha virt. eigenvalues --    0.29562   0.30086   0.30966   0.32644   0.33790
 Alpha virt. eigenvalues --    0.33876   0.35128   0.36366   0.36750   0.36942
 Alpha virt. eigenvalues --    0.37559   0.38596   0.38806   0.39692   0.40303
 Alpha virt. eigenvalues --    0.41801   0.42132   0.43436   0.44175   0.44339
 Alpha virt. eigenvalues --    0.45144   0.45506   0.47304   0.48045   0.48897
 Alpha virt. eigenvalues --    0.49246   0.49760   0.50637   0.51256   0.52349
 Alpha virt. eigenvalues --    0.52551   0.54435   0.55070   0.57163   0.57887
 Alpha virt. eigenvalues --    0.58928   0.62082   0.63437   0.65512   0.73271
 Alpha virt. eigenvalues --    0.75834   0.77007   0.78949   0.81433   0.81919
 Alpha virt. eigenvalues --    0.83808   0.83935   0.84776   0.85617   0.86291
 Alpha virt. eigenvalues --    0.87914   0.88291   0.89828   0.90898   0.91313
 Alpha virt. eigenvalues --    0.92168   0.93181   0.94206   0.94728   0.96558
 Alpha virt. eigenvalues --    0.97120   0.98442   0.99506   1.00317   1.02460
 Alpha virt. eigenvalues --    1.03042   1.04745   1.05308   1.07360   1.08020
 Alpha virt. eigenvalues --    1.08618   1.09681   1.10511   1.11915   1.12591
 Alpha virt. eigenvalues --    1.14211   1.14881   1.18382   1.19600   1.20698
 Alpha virt. eigenvalues --    1.20998   1.22415   1.23515   1.24391   1.25255
 Alpha virt. eigenvalues --    1.26375   1.27564   1.29458   1.32222   1.33999
 Alpha virt. eigenvalues --    1.35534   1.39876   1.41570   1.42206   1.46108
 Alpha virt. eigenvalues --    1.47013   1.48390   1.51108   1.53067   1.56278
 Alpha virt. eigenvalues --    1.56886   1.58407   1.61865   1.62030   1.64352
 Alpha virt. eigenvalues --    1.68097   1.68362   1.69361   1.70286   1.70902
 Alpha virt. eigenvalues --    1.72187   1.74491   1.75408   1.76619   1.79587
 Alpha virt. eigenvalues --    1.81460   1.82324   1.85169   1.85945   1.87562
 Alpha virt. eigenvalues --    1.89540   1.91962   1.94204   1.95327   1.96025
 Alpha virt. eigenvalues --    1.99438   2.00831   2.04161   2.06217   2.07755
 Alpha virt. eigenvalues --    2.08082   2.15029   2.15348   2.19290   2.20570
 Alpha virt. eigenvalues --    2.22906   2.26294   2.26800   2.29021   2.30072
 Alpha virt. eigenvalues --    2.31851   2.35738   2.36962   2.40692   2.45026
 Alpha virt. eigenvalues --    2.49901   2.56147   2.56478   2.81312   2.95314
 Alpha virt. eigenvalues --    3.11685   3.15702   3.17779   3.22043   3.26866
 Alpha virt. eigenvalues --    3.34978   3.38207   3.41335   3.43858   3.47333
 Alpha virt. eigenvalues --    3.50401   3.53027   3.54130   3.56115   3.58343
 Alpha virt. eigenvalues --    3.59238   3.64327   3.65896   3.67435   3.69753
 Alpha virt. eigenvalues --    3.71083   3.73635   3.74615   3.76337   3.76702
 Alpha virt. eigenvalues --    3.80079   3.82871   3.84036   3.86839   3.87925
 Alpha virt. eigenvalues --    3.90782   3.93895   3.96839   3.97513   3.99041
 Alpha virt. eigenvalues --    4.01300   4.02081   4.05674   4.07763   4.11312
 Alpha virt. eigenvalues --    4.16155   4.17602   4.19176   4.21539   4.22918
 Alpha virt. eigenvalues --    4.23693   4.24821   4.29834   4.33197   4.39767
 Alpha virt. eigenvalues --    4.42068   4.48217   4.50394   4.51827   4.56627
 Alpha virt. eigenvalues --    4.60664   4.63249   4.67003   4.70589   4.71252
 Alpha virt. eigenvalues --    4.79761   4.82340   4.83772   4.84422   4.85669
 Alpha virt. eigenvalues --    4.87144   4.90510   4.93616   4.95349   5.01735
 Alpha virt. eigenvalues --    5.05874   5.07588   5.10423   5.11625   5.15736
 Alpha virt. eigenvalues --    5.17550   5.20621   5.24638   5.27494   5.33715
 Alpha virt. eigenvalues --    5.34855   5.36623   5.38528   5.42730   5.47654
 Alpha virt. eigenvalues --    5.50572   5.53079   5.55352   5.59537   5.63332
 Alpha virt. eigenvalues --    5.72084   5.75884   5.80152   5.87886   5.95360
 Alpha virt. eigenvalues --    6.00522   6.07825   6.16042   6.17640   6.22905
 Alpha virt. eigenvalues --    6.27223   6.35797   6.38688   6.50172   6.67734
 Alpha virt. eigenvalues --    6.72306   6.80058   6.85581  16.62472  17.90660
 Alpha virt. eigenvalues --   18.44036
  Beta  occ. eigenvalues --  -11.22422 -11.21115 -11.20213  -1.04475  -0.88890
  Beta  occ. eigenvalues --   -0.76998  -0.61417  -0.59594  -0.55661  -0.49306
  Beta  occ. eigenvalues --   -0.48851  -0.48082
  Beta virt. eigenvalues --    0.03224   0.03950   0.04126   0.04291   0.06110
  Beta virt. eigenvalues --    0.06402   0.06555   0.08434   0.10215   0.12048
  Beta virt. eigenvalues --    0.12446   0.13002   0.13924   0.14311   0.14699
  Beta virt. eigenvalues --    0.15614   0.16698   0.17028   0.18944   0.20319
  Beta virt. eigenvalues --    0.22573   0.24147   0.24812   0.25693   0.27867
  Beta virt. eigenvalues --    0.28689   0.29669   0.30298   0.31235   0.33744
  Beta virt. eigenvalues --    0.33961   0.34501   0.35250   0.36583   0.37010
  Beta virt. eigenvalues --    0.37359   0.38646   0.38816   0.39075   0.40062
  Beta virt. eigenvalues --    0.40730   0.42084   0.42659   0.43956   0.44360
  Beta virt. eigenvalues --    0.44661   0.45647   0.46697   0.47802   0.48649
  Beta virt. eigenvalues --    0.49409   0.50057   0.50458   0.50986   0.51495
  Beta virt. eigenvalues --    0.52542   0.53121   0.54757   0.55663   0.57505
  Beta virt. eigenvalues --    0.58541   0.59300   0.62402   0.64358   0.65844
  Beta virt. eigenvalues --    0.75240   0.76562   0.77962   0.79455   0.81962
  Beta virt. eigenvalues --    0.82524   0.84040   0.84568   0.85211   0.86129
  Beta virt. eigenvalues --    0.86809   0.88434   0.89047   0.90398   0.91141
  Beta virt. eigenvalues --    0.91784   0.92778   0.93729   0.94691   0.94977
  Beta virt. eigenvalues --    0.96741   0.97722   0.98765   0.99979   1.00821
  Beta virt. eigenvalues --    1.03296   1.03593   1.05161   1.06004   1.07855
  Beta virt. eigenvalues --    1.08644   1.09208   1.10039   1.11133   1.12068
  Beta virt. eigenvalues --    1.12844   1.14963   1.15102   1.18722   1.20082
  Beta virt. eigenvalues --    1.21114   1.21697   1.22628   1.24631   1.25043
  Beta virt. eigenvalues --    1.25550   1.26811   1.27917   1.29726   1.32542
  Beta virt. eigenvalues --    1.34329   1.36012   1.40370   1.41856   1.42469
  Beta virt. eigenvalues --    1.46314   1.47305   1.49078   1.51426   1.53797
  Beta virt. eigenvalues --    1.56531   1.58040   1.59211   1.62260   1.63256
  Beta virt. eigenvalues --    1.64771   1.68351   1.68663   1.69706   1.70617
  Beta virt. eigenvalues --    1.71100   1.72703   1.74871   1.75833   1.77435
  Beta virt. eigenvalues --    1.80099   1.81849   1.82959   1.85858   1.87318
  Beta virt. eigenvalues --    1.88567   1.90412   1.92538   1.94567   1.95620
  Beta virt. eigenvalues --    1.96800   1.99914   2.01040   2.04807   2.06732
  Beta virt. eigenvalues --    2.08359   2.08451   2.15526   2.16375   2.20161
  Beta virt. eigenvalues --    2.20896   2.23264   2.26491   2.27371   2.29222
  Beta virt. eigenvalues --    2.30488   2.32299   2.36286   2.37166   2.40952
  Beta virt. eigenvalues --    2.45450   2.50381   2.56447   2.56933   2.81883
  Beta virt. eigenvalues --    2.95608   3.15512   3.16864   3.19234   3.22427
  Beta virt. eigenvalues --    3.27280   3.36468   3.38844   3.42644   3.44339
  Beta virt. eigenvalues --    3.48334   3.51936   3.53603   3.55087   3.56812
  Beta virt. eigenvalues --    3.58954   3.61417   3.64687   3.66208   3.67793
  Beta virt. eigenvalues --    3.70316   3.72114   3.74119   3.75555   3.76736
  Beta virt. eigenvalues --    3.77132   3.81644   3.84023   3.85228   3.87341
  Beta virt. eigenvalues --    3.88376   3.92301   3.94704   3.96914   3.97838
  Beta virt. eigenvalues --    3.99431   4.02293   4.02579   4.06090   4.08119
  Beta virt. eigenvalues --    4.11816   4.16351   4.17899   4.19807   4.21913
  Beta virt. eigenvalues --    4.23238   4.24096   4.25432   4.30389   4.33496
  Beta virt. eigenvalues --    4.40158   4.42536   4.48507   4.50637   4.52303
  Beta virt. eigenvalues --    4.56871   4.60959   4.63459   4.67190   4.70856
  Beta virt. eigenvalues --    4.71356   4.80340   4.82368   4.83866   4.84601
  Beta virt. eigenvalues --    4.85783   4.87245   4.90645   4.93865   4.95428
  Beta virt. eigenvalues --    5.01914   5.05991   5.07864   5.10609   5.11869
  Beta virt. eigenvalues --    5.16048   5.17743   5.20864   5.25029   5.28244
  Beta virt. eigenvalues --    5.34008   5.35307   5.36951   5.38858   5.43025
  Beta virt. eigenvalues --    5.47928   5.50770   5.53470   5.55516   5.59748
  Beta virt. eigenvalues --    5.63570   5.72352   5.76068   5.80245   5.88098
  Beta virt. eigenvalues --    5.95630   6.00576   6.08069   6.16190   6.17705
  Beta virt. eigenvalues --    6.22939   6.27543   6.36048   6.38930   6.50502
  Beta virt. eigenvalues --    6.68111   6.72404   6.80088   6.85646  16.63625
  Beta virt. eigenvalues --   17.90878  18.44193
          Condensed to atoms (all electrons):
               1          2          3          4          5          6
     1  C    6.324832   0.073352   0.392657   0.316257   0.028626  -0.011448
     2  C    0.073352   5.138634  -0.042371  -0.002030   0.138959   0.023939
     3  H    0.392657  -0.042371   0.292777  -0.018673   0.007446   0.003070
     4  H    0.316257  -0.002030  -0.018673   0.257352   0.000904  -0.004450
     5  C    0.028626   0.138959   0.007446   0.000904   5.549694   0.384642
     6  H   -0.011448   0.023939   0.003070  -0.004450   0.384642   0.287532
     7  H   -0.014356   0.418749   0.000794  -0.000641  -0.003495  -0.002647
     8  H   -0.036639   0.442152  -0.008143   0.005398  -0.020733   0.001002
     9  H   -0.002837   0.018766   0.002584  -0.005506   0.388879   0.013068
    10  H   -0.002079  -0.005771  -0.000487   0.001003   0.421350   0.016207
               7          8          9         10
     1  C   -0.014356  -0.036639  -0.002837  -0.002079
     2  C    0.418749   0.442152   0.018766  -0.005771
     3  H    0.000794  -0.008143   0.002584  -0.000487
     4  H   -0.000641   0.005398  -0.005506   0.001003
     5  C   -0.003495  -0.020733   0.388879   0.421350
     6  H   -0.002647   0.001002   0.013068   0.016207
     7  H    0.354501  -0.005023   0.001393   0.003101
     8  H   -0.005023   0.363647  -0.002357  -0.004080
     9  H    0.001393  -0.002357   0.301916   0.013080
    10  H    0.003101  -0.004080   0.013080   0.281888
          Atomic-Atomic Spin Densities.
               1          2          3          4          5          6
     1  C    1.368034  -0.098215  -0.015326  -0.000819   0.000888  -0.004903
     2  C   -0.098215  -0.136286   0.007153  -0.002042   0.002315  -0.000646
     3  H   -0.015326   0.007153  -0.061895  -0.001102  -0.000446  -0.000273
     4  H   -0.000819  -0.002042  -0.001102  -0.045901   0.001770  -0.000426
     5  C    0.000888   0.002315  -0.000446   0.001770   0.022566   0.000187
     6  H   -0.004903  -0.000646  -0.000273  -0.000426   0.000187   0.002856
     7  H   -0.027075   0.031692   0.001357  -0.000687  -0.005061  -0.002748
     8  H   -0.014596   0.004840  -0.001089   0.000808   0.005663   0.003723
     9  H   -0.000609   0.000678  -0.000147  -0.000538  -0.001057  -0.000639
    10  H   -0.000041   0.002311  -0.000150   0.000339  -0.002567  -0.001086
               7          8          9         10
     1  C   -0.027075  -0.014596  -0.000609  -0.000041
     2  C    0.031692   0.004840   0.000678   0.002311
     3  H    0.001357  -0.001089  -0.000147  -0.000150
     4  H   -0.000687   0.000808  -0.000538   0.000339
     5  C   -0.005061   0.005663  -0.001057  -0.002567
     6  H   -0.002748   0.003723  -0.000639  -0.001086
     7  H    0.081562  -0.018115  -0.000972   0.001675
     8  H   -0.018115   0.042935   0.000465  -0.001345
     9  H   -0.000972   0.000465  -0.000458   0.000447
    10  H    0.001675  -0.001345   0.000447  -0.000590
 Mulliken charges and spin densities:
               1          2
     1  C   -1.068365   1.207337
     2  C   -0.204379  -0.188200
     3  H    0.370347  -0.071918
     4  H    0.450386  -0.048598
     5  C   -0.896273   0.024258
     6  H    0.289084  -0.003956
     7  H    0.247624   0.061628
     8  H    0.264775   0.023289
     9  H    0.271014  -0.002832
    10  H    0.275789  -0.001006
 Sum of Mulliken charges =  -0.00000   1.00000
 Mulliken charges and spin densities with hydrogens summed into heavy atoms:
               1          2
     1  C   -0.247632   1.086820
     2  C    0.308020  -0.103284
     5  C   -0.060387   0.016464
 Electronic spatial extent (au):  <R**2>=            210.7645
 Charge=             -0.0000 electrons
 Dipole moment (field-independent basis, Debye):
    X=             -0.1202    Y=              0.1873    Z=              0.1189  Tot=              0.2523
 Quadrupole moment (field-independent basis, Debye-Ang):
   XX=            -21.3913   YY=            -20.8811   ZZ=            -21.6560
   XY=              0.1002   XZ=             -0.0728   YZ=             -0.4792
 Traceless Quadrupole moment (field-independent basis, Debye-Ang):
   XX=             -0.0818   YY=              0.4283   ZZ=             -0.3465
   XY=              0.1002   XZ=             -0.0728   YZ=             -0.4792
 Octapole moment (field-independent basis, Debye-Ang**2):
  XXX=              0.6581  YYY=             -0.2780  ZZZ=              0.2780  XYY=             -0.0699
  XXY=              1.6056  XXZ=             -0.5379  XZZ=             -1.5158  YZZ=              0.5662
  YYZ=              0.5335  XYZ=             -0.5941
 Hexadecapole moment (field-independent basis, Debye-Ang**3):
 XXXX=           -187.2473 YYYY=            -67.4108 ZZZZ=            -38.8800 XXXY=              0.3245
 XXXZ=             -2.4169 YYYX=             -0.8166 YYYZ=             -1.9194 ZZZX=              0.5733
 ZZZY=             -0.1760 XXYY=            -43.0637 XXZZ=            -40.9598 YYZZ=            -16.7657
 XXYZ=             -0.8880 YYXZ=              0.4577 ZZXY=              1.4798
 N-N= 7.615058367338D+01 E-N=-4.255802884334D+02  KE= 1.175841535605D+02
 Leave Link  601 at Mon Sep 28 12:34:01 2020, MaxMem=   327680000 cpu:               1.7 elap:               0.4
 (Enter /applis/site/cecic/gaussian16/B.01/nehalem/g16/l9999.exe)
 1\1\GINC-DAHU89\SP\UCCSD(T)-FC\Aug-CC-pVTZ\C3H7(2)\TINACCIL\28-Sep-202
 0\0\\#P CCSD(T)/aug-cc-pvtz geom=allcheck guess=read\\Title\\0,2\C,0,0
 .1085142736,-0.1779320056,0.0745611621\C,0,0.0252831556,-0.0350397535,
 1.5508698162\H,0,1.0191523953,0.0507759043,-0.457600571\H,0,-0.6845483
 719,-0.6700781974,-0.4700186754\C,0,-1.4128778576,0.0098250562,2.05875
 84001\H,0,-1.9461299374,0.8575016158,1.628507047\H,0,0.5499395459,-0.8
 684453085,2.0388410638\H,0,0.5622119054,0.863569347,1.8662171382\H,0,-
 1.9471467926,-0.8977995571,1.775516672\H,0,-1.4502750652,0.0980246889,
 3.1436937724\\Version=ES64L-G16RevB.01\State=2-A\HF=-117.6765385\MP2=-
 118.1882202\MP3=-118.2265949\MP4D=-118.2380625\MP4DQ=-118.2263309\PUHF
 =-117.679971\PMP2-0=-118.1903918\PMP3-0=-118.2278401\MP4SDQ=-118.22935
 22\CCSD=-118.229703\CCSD(T)=-118.2499863\S2=0.763161\S2-1=0.753441\S2A
 =0.750115\RMSD=2.749e-09\PG=C01 [X(C3H7)]\\@


 A MAN SHOULD NEVER BE ASHAMED TO OWN HE HAS BEEN IN THE WRONG
 WHICH IS BUT SAYING IN OTHER WORDS,
 THAT HE IS WISER TODAY THAN HE WAS YESTERDAY.

                          -- JONATHAN SWIFT
 Job cpu time:       0 days 12 hours 20 minutes  9.6 seconds.
 Elapsed time:       0 days  1 hours 34 minutes 44.8 seconds.
 File lengths (MBytes):  RWF=  22668 Int=      0 D2E=      0 Chk=     10 Scr=      1
 Normal termination of Gaussian 16 at Mon Sep 28 12:34:01 2020.
