2
 energy: -6.828340823347 gnorm: 0.000864273183 xtb: 6.2.2 (9d81278992624c895f80dd42a50cac0aa55982e2)
O         0.57757246119139   -0.00000302416234   -0.00000201610822
N        -0.57757246119139    0.00000302416234    0.00000201610822
