      -----------------------------------------------------------      
     |                   =====================                   |     
     |                           x T B                           |     
     |                   =====================                   |     
     |                         S. Grimme                         |     
     |          Mulliken Center for Theoretical Chemistry        |     
     |                    University of Bonn                     |     
      -----------------------------------------------------------      

   * xtb version 6.2.2 (9d81278992624c895f80dd42a50cac0aa55982e2) compiled by '@Darwin' on 04/03/2020

   xtb is free software: you can redistribute it and/or modify it under
   the terms of the GNU Lesser General Public License as published by
   the Free Software Foundation, either version 3 of the License, or
   (at your option) any later version.
   
   xtb is distributed in the hope that it will be useful,
   but WITHOUT ANY WARRANTY; without even the implied warranty of
   MERCHANTABILITY or FITNESS FOR A PARTICULAR PURPOSE.  See the
   GNU Lesser General Public License for more details.
   
   Cite this work as:
   * S. Grimme, C. Bannwarth, P. Shushkov, J. Chem. Theory Comput., 2017,
     13, 1989-2009. DOI: 10.1021/acs.jctc.7b00118
   * C. Bannwarth, S. Ehlert and S. Grimme., J. Chem. Theory Comput., 2019,
     15, 1652-1671. DOI: 10.1021/acs.jctc.8b01176
   * P. Pracht, E. Caldeweyher, S. Ehlert, S. Grimme, ChemRxiv, 2019, preprint.
     DOI: 10.26434/chemrxiv.8326202.v1
   
   for DFT-D4:
   * E. Caldeweyher, C. Bannwarth and S. Grimme, J. Chem. Phys., 2017,
     147, 034112. DOI: 10.1063/1.4993215
   * E. Caldeweyher, S. Ehlert, A. Hansen, H. Neugebauer, S. Spicher,
     C. Bannwarth and S. Grimme, J. Chem. Phys., 2019, 150, 154122.
     DOI: 10.1063/1.5090222
   
   for sTDA-xTB:
   * S. Grimme and C. Bannwarth, J. Chem. Phys., 2016, 145, 054103.
     DOI: 10.1063/1.4959605
   
   in the mass-spec context:
   * V. Asgeirsson, C. Bauer and S. Grimme, Chem. Sci., 2017, 8, 4879.
     DOI: 10.1039/c7sc00601b
   
   for metadynamics refer to:
   * S. Grimme, J. Chem. Theory Comput., 2019, 155, 2847-2862
     DOI: 10.1021/acs.jctc.9b00143
   
   with help from (in alphabetical order)
   C. Bannwarth, F. Bohle, G. Brandenburg, E. Caldeweyher, M. Checinski,
   S. Dohm, S. Ehlert, S. Ehrlich, F. März, H. Neugebauer, J. Pisarek,
   P. Pracht, P. Shushkov, and S. Spicher.
   
 * started run on 2020/05/12 at 11:44:29.623     

           -------------------------------------------------
          |                Calculation Setup                |
           -------------------------------------------------

          program call               : xtb --input N1O1_0_S_1.input N1O1_0_S_1.xyz --ohess --molden --namespace N1O1_0_S_1 output.out
          calculation namespace      : N1O1_0_S_1
          coordinate file            : N1O1_0_S_1.xyz
          number of atoms            :                     2
          number of electrons        :                    11
          charge                     :                     0
          spin                       :                   0.5
          first test random number   :      0.95528640694499

   ID    Z sym.   atoms
    1    8 O      1
    2    7 N      2

           -------------------------------------------------
          |                 G F N 2 - x T B                 |
           -------------------------------------------------

        Reference                      10.1021/acs.jctc.8b01176
      * Hamiltonian:
        H0-scaling (s, p, d)           1.850000    2.230000    2.230000
        zeta-weighting                 0.500000
      * Dispersion:
        s8                             2.700000
        a1                             0.520000
        a2                             5.000000
        s9                             5.000000
      * Repulsion:
        kExp                           1.500000    1.000000
        rExp                           1.000000
      * Coulomb:
        alpha                          2.000000
        third order                    shell-resolved
        anisotropic                    true
        a3                             3.000000
        a5                             4.000000
        cn-shift                       1.200000
        cn-exp                         4.000000
        max-rad                        5.000000


          ...................................................
          :                      SETUP                      :
          :.................................................:
          :  # basis functions                   8          :
          :  # atomic orbitals                   8          :
          :  # shells                            4          :
          :  # electrons                        11          :
          :  max. iterations                   250          :
          :  Hamiltonian                  GFN2-xTB          :
          :  restarted?                      false          :
          :  GBSA solvation                  false          :
          :  PC potential                    false          :
          :  electronic temp.          300.0000000     K    :
          :  accuracy                    1.0000000          :
          :  -> integral cutoff          0.2500000E+02      :
          :  -> integral neglect         0.1000000E-07      :
          :  -> SCF convergence          0.1000000E-05 Eh   :
          :  -> wf. convergence          0.1000000E-03 e    :
          :  Broyden damping             0.4000000          :
          ...................................................

 iter      E             dE          RMSdq      gap      omega  full diag
   1     -6.7119565 -0.671196E+01  0.102E+01    0.00       0.0  T
   2     -6.7045426  0.741387E-02  0.670E+00    0.00       1.0  T
   3     -6.7732060 -0.686634E-01  0.424E+00    0.00       1.0  T
   4     -6.7840336 -0.108276E-01  0.639E-01    0.00       1.0  T
   5     -6.7845582 -0.524572E-03  0.188E-01    0.00       1.0  T
   6     -6.7845740 -0.157898E-04  0.544E-02    0.00       1.3  T
   7     -6.7845764 -0.248994E-05  0.230E-02    0.00       3.1  T
   8     -6.7845769 -0.414011E-06  0.125E-03    0.00      56.6  T
   9     -6.7845769 -0.218472E-08  0.246E-04    0.00     287.5  T
  10     -6.7845769 -0.752109E-11  0.413E-05    0.00    1712.1  T

   *** convergence criteria satisfied after 10 iterations ***

         #    Occupation            Energy/Eh            Energy/eV
      -------------------------------------------------------------
         1        2.0000           -0.7638048             -20.7842
         2        2.0000           -0.6612294             -17.9930
         3        2.0000           -0.5871847             -15.9781
         4        2.0000           -0.5871847             -15.9781
         5        2.0000           -0.5428286             -14.7711
         6        0.5000           -0.4231457             -11.5144 (HOMO)
         7        0.5000           -0.4231457             -11.5144 (LUMO)
         8                         -0.0323146              -0.8793
      -------------------------------------------------------------
                  HL-Gap            0.0000000 Eh            0.0000 eV
             Fermi-level           -0.4530664 Eh          -12.3286 eV

 SCC (total)                   0 d,  0 h,  0 min,  0.001 sec
 SCC setup                      ...        0 min,  0.000 sec (  6.845%)
 Dispersion                     ...        0 min,  0.000 sec (  0.728%)
 integral evaluation            ...        0 min,  0.000 sec ( 23.839%)
 zeroth order Hamiltonian       ...        0 min,  0.000 sec (  0.747%)
 iterations                     ...        0 min,  0.001 sec ( 46.204%)
 molecular gradient             ...        0 min,  0.000 sec ( 16.916%)
 printout                       ...        0 min,  0.000 sec (  3.895%)

         :::::::::::::::::::::::::::::::::::::::::::::::::::::
         ::                     SUMMARY                     ::
         :::::::::::::::::::::::::::::::::::::::::::::::::::::
         :: total energy              -6.779751026607 Eh    ::
         :: gradient norm              0.293657191271 Eh/a0 ::
         :: HOMO-LUMO gap              0.000000000004 eV    ::
         ::.................................................::
         :: SCC energy                -6.784576859921 Eh    ::
         :: -> isotropic ES            0.003916638449 Eh    ::
         :: -> anisotropic ES         -0.000890936915 Eh    ::
         :: -> anisotropic XC          0.006696907087 Eh    ::
         :: -> dispersion             -0.000224425144 Eh    ::
         :: repulsion energy           0.004825833303 Eh    ::
         :: add. restraining           0.000000000000 Eh    ::
         :::::::::::::::::::::::::::::::::::::::::::::::::::::

      ----------------------------------------------------------- 
     |                   =====================                   |
     |                        A N C O P T                        |
     |                   =====================                   |
     |               Approximate Normal Coordinate               |
     |                Rational Function Optimizer                |
      ----------------------------------------------------------- 

          ...................................................
          :                      SETUP                      :
          :.................................................:
          :   optimization level            normal          :
          :   max. optcycles                   200          :
          :   ANC micro-cycles                  20          :
          :   degrees of freedom                 1          :
          :.................................................:
          :   RF solver                   davidson          :
          :   write xtbopt.log                true          :
          :   linear (good luck)              true          :
          :   energy convergence         0.5000000E-05 Eh   :
          :   grad. convergence          0.1000000E-02 Eh/α :
          :   maximium RF displ.         1.0000000          :
          :   Hlow (freq-cutoff)         0.1000000E-01      :
          :   Hmax (freq-cutoff)         5.0000000          :
          :   S6 in model hess.         20.0000000          :
          ...................................................

generating ANC from model Hessian ...
Using Lindh-Hessian (1995)
 Shifting diagonal of input Hessian by    9.9893005668397969E-003
 Lowest  eigenvalues of input Hessian
   -0.000000    0.000000    0.000000    0.010000    0.010000    1.296724
 Highest eigenvalues
   -0.000000    0.000000    0.000000    0.010000    0.010000    1.296724


........................................................................
.............................. CYCLE    1 ..............................
........................................................................
   1     -6.7845769 -0.678458E+01  0.292E-06    0.00       0.0  T
   2     -6.7845769  0.150990E-13  0.277E-06    0.00   25510.0  T
   3     -6.7845769 -0.222045E-13  0.547E-07    0.00  100000.0  T
     SCC iter.                  ...        0 min,  0.000 sec
     gradient                   ...        0 min,  0.000 sec
 * total energy  :    -6.7797510 Eh     change       -0.1577227E-10 Eh
   gradient norm :     0.2936575 Eh/α   predicted     0.0000000E+00 (-100.00%)
   displ. norm   :     0.2159046 α      lambda       -0.6340200E-01
   maximum displ.:     0.2159046 α      in ANC's #1, #1, #1, ...

........................................................................
.............................. CYCLE    2 ..............................
........................................................................
   1     -6.8462319 -0.684623E+01  0.244E+00    0.00       0.0  T
   2     -6.8470212 -0.789290E-03  0.131E+00    0.00       1.0  T
   3     -6.8471046 -0.834089E-04  0.661E-01    0.00       1.0  T
   4     -6.8472794 -0.174741E-03  0.145E-01    0.00       1.0  T
   5     -6.8472821 -0.277595E-05  0.232E-02    0.00       3.1  T
   6     -6.8472827 -0.618307E-06  0.427E-03    0.00      16.6  T
   7     -6.8472828 -0.221409E-08  0.270E-04    0.00     261.7  T
   8     -6.8472828 -0.701830E-10  0.419E-06    0.00   16859.9  T
     SCC iter.                  ...        0 min,  0.000 sec
     gradient                   ...        0 min,  0.000 sec
 * total energy  :    -6.8260255 Eh     change       -0.4627442E-01 Eh
   gradient norm :     0.0916133 Eh/α   predicted    -0.3317874E-01 ( -28.30%)
   displ. norm   :     0.0969774 α      lambda       -0.8884421E-02
   maximum displ.:     0.0969774 α      in ANC's #1, #1, #1, ...

........................................................................
.............................. CYCLE    3 ..............................
........................................................................
   1     -6.8657742 -0.686577E+01  0.120E+00    0.00       0.0  T
   2     -6.8659778 -0.203549E-03  0.634E-01    0.00       1.0  T
   3     -6.8659964 -0.186496E-04  0.265E-01    0.00       1.0  T
   4     -6.8660101 -0.136797E-04  0.554E-02    0.00       1.3  T
   5     -6.8660104 -0.301162E-06  0.393E-03    0.00      18.0  T
   6     -6.8660104 -0.134822E-07  0.109E-03    0.00      64.8  T
   7     -6.8660104 -0.128465E-09  0.857E-05    0.00     825.2  T
   8     -6.8660104 -0.328537E-11  0.232E-05    0.00    3044.2  T
     SCC iter.                  ...        0 min,  0.000 sec
     gradient                   ...        0 min,  0.000 sec
 * total energy  :    -6.8255712 Eh     change        0.4542686E-03 Eh
   gradient norm :     0.1192318 Eh/α   predicted    -0.4483989E-02 (*******%)
   displ. norm   :     0.0546763 α      lambda       -0.6519150E-02
   maximum displ.:     0.0546763 α      in ANC's #1, #1, #1, ...

........................................................................
.............................. CYCLE    4 ..............................
........................................................................
   1     -6.8563822 -0.685638E+01  0.698E-01    0.00       0.0  T
   2     -6.8564710 -0.888286E-04  0.364E-01    0.00       1.0  T
   3     -6.8564821 -0.110227E-04  0.190E-01    0.00       1.0  T
   4     -6.8564911 -0.907699E-05  0.335E-02    0.00       2.1  T
   5     -6.8564913 -0.116863E-06  0.263E-03    0.00      26.9  T
   6     -6.8564913 -0.194426E-08  0.204E-03    0.00      34.6  T
   7     -6.8564913 -0.153572E-08  0.660E-04    0.00     107.1  T
   8     -6.8564913 -0.102879E-09  0.653E-06    0.00   10823.0  T
     SCC iter.                  ...        0 min,  0.000 sec
     gradient                   ...        0 min,  0.000 sec
 * total energy  :    -6.8283011 Eh     change       -0.2729912E-02 Eh
   gradient norm :     0.0129590 Eh/α   predicted    -0.3269320E-02 (  19.76%)
   displ. norm   :     0.0053599 α      lambda       -0.6946102E-04
   maximum displ.:     0.0053599 α      in ANC's #1, #1, #1, ...

........................................................................
.............................. CYCLE    5 ..............................
........................................................................
   1     -6.8575504 -0.685755E+01  0.672E-02    0.00       0.0  T
   2     -6.8575512 -0.763397E-06  0.352E-02    0.00       2.0  T
   3     -6.8575513 -0.863938E-07  0.177E-02    0.00       4.0  T
   4     -6.8575514 -0.796195E-07  0.328E-03    0.00      21.5  T
   5     -6.8575514 -0.119428E-08  0.150E-04    0.00     472.2  T
   6     -6.8575514 -0.161915E-11  0.637E-05    0.00    1109.3  T
     SCC iter.                  ...        0 min,  0.000 sec
     gradient                   ...        0 min,  0.000 sec
 * total energy  :    -6.8283404 Eh     change       -0.3927468E-04 Eh
   gradient norm :     0.0016413 Eh/α   predicted    -0.3473032E-04 ( -11.57%)
   displ. norm   :     0.0011660 α      lambda       -0.1277376E-05
   maximum displ.:     0.0011660 α      in ANC's #1, #1, #1, ...

........................................................................
.............................. CYCLE    6 ..............................
........................................................................
   1     -6.8577785 -0.685778E+01  0.146E-02    0.00       0.0  T
   2     -6.8577786 -0.364909E-07  0.766E-03    0.00       9.2  T
   3     -6.8577786 -0.408266E-08  0.387E-03    0.00      18.3  T
   4     -6.8577786 -0.364263E-08  0.893E-04    0.00      79.2  T
   5     -6.8577786 -0.106991E-09  0.636E-04    0.00     111.2  T
     SCC iter.                  ...        0 min,  0.000 sec
     gradient                   ...        0 min,  0.000 sec
 * total energy  :    -6.8283408 Eh     change       -0.4547420E-06 Eh
   gradient norm :     0.0008681 Eh/α   predicted    -0.6379200E-06 (  40.28%)
   displ. norm   :     0.0004033 α      lambda       -0.2342473E-06
   maximum displ.:     0.0004033 α      in ANC's #1, #1, #1, ...

   *** GEOMETRY OPTIMIZATION CONVERGED AFTER 6 ITERATIONS ***

------------------------------------------------------------------------
 total energy gain   :        -0.0485898 Eh      -30.4906 kcal/mol
 total RMSD          :         0.1871935 a0        0.0991 Å
 total power (kW/mol):       -21.2620823 (step)********** (real)
------------------------------------------------------------------------

 ANCopt (total)                0 d,  0 h,  0 min,  0.005 sec
 optimizer setup                ...        0 min,  0.000 sec (  1.353%)
 model hessian                  ...        0 min,  0.000 sec (  0.392%)
 ANC generation                 ...        0 min,  0.000 sec (  0.603%)
 coordinate transformation      ...        0 min,  0.000 sec (  0.265%)
 single point calculation       ...        0 min,  0.004 sec ( 89.467%)
 optimization log               ...        0 min,  0.000 sec (  2.020%)
 hessian update                 ...        0 min,  0.000 sec (  0.260%)
 rational function              ...        0 min,  0.000 sec (  1.873%)

================
 final structure:
================
2
 xtb: 6.2.2 (9d81278992624c895f80dd42a50cac0aa55982e2)
O         0.57757246120283    0.00000000000000    0.00000000000000
N        -0.57757246120283    0.00000000000000    0.00000000000000

 Bond Distances (Angstroems)
 ---------------------------
O1-N2=1.1551         N2-O1=1.1551         
 O  N  Rav=1.1551 sigma=0.0000  Rmin=1.1551  Rmax=1.1551     1

 selected bond angles (degree)
 --------------------


 selected dihedral angles (degree)
 ---------------------------------

           -------------------------------------------------
          |                Final Singlepoint                |
           -------------------------------------------------

          ...................................................
          :                      SETUP                      :
          :.................................................:
          :  # basis functions                   8          :
          :  # atomic orbitals                   8          :
          :  # shells                            4          :
          :  # electrons                        11          :
          :  max. iterations                   250          :
          :  Hamiltonian                  GFN2-xTB          :
          :  restarted?                      false          :
          :  GBSA solvation                  false          :
          :  PC potential                    false          :
          :  electronic temp.          300.0000000     K    :
          :  accuracy                    1.0000000          :
          :  -> integral cutoff          0.2500000E+02      :
          :  -> integral neglect         0.1000000E-07      :
          :  -> SCF convergence          0.1000000E-05 Eh   :
          :  -> wf. convergence          0.1000000E-03 e    :
          :  Broyden damping             0.4000000          :
          ...................................................

 iter      E             dE          RMSdq      gap      omega  full diag
   1     -6.8577786 -0.685778E+01  0.160E-03    0.00       0.0  T
   2     -6.8577786  0.798043E-09  0.207E-03    0.00      34.2  T
   3     -6.8577786 -0.198241E-08  0.441E-05    0.00    1601.8  T
   4     -6.8577786 -0.164313E-12  0.236E-05    0.00    2990.5  T

   *** convergence criteria satisfied after 4 iterations ***

         #    Occupation            Energy/Eh            Energy/eV
      -------------------------------------------------------------
         1        2.0000           -0.8003233             -21.7779
         2        2.0000           -0.6713158             -18.2674
         3        2.0000           -0.6262266             -17.0405
         4        2.0000           -0.6262266             -17.0405
         5        2.0000           -0.5099847             -13.8774
         6        0.5000           -0.3557152              -9.6795 (HOMO)
         7        0.5000           -0.3557152              -9.6795 (LUMO)
         8                          0.4206621              11.4468
      -------------------------------------------------------------
                  HL-Gap            0.0000000 Eh            0.0000 eV
             Fermi-level           -0.3942826 Eh          -10.7290 eV

 SCC (total)                   0 d,  0 h,  0 min,  0.001 sec
 SCC setup                      ...        0 min,  0.000 sec (  5.496%)
 Dispersion                     ...        0 min,  0.000 sec (  0.438%)
 integral evaluation            ...        0 min,  0.000 sec ( 39.447%)
 zeroth order Hamiltonian       ...        0 min,  0.000 sec (  0.573%)
 iterations                     ...        0 min,  0.000 sec ( 19.083%)
 molecular gradient             ...        0 min,  0.000 sec ( 24.612%)
 printout                       ...        0 min,  0.000 sec (  8.901%)

         :::::::::::::::::::::::::::::::::::::::::::::::::::::
         ::                     SUMMARY                     ::
         :::::::::::::::::::::::::::::::::::::::::::::::::::::
         :: total energy              -6.828340823347 Eh    ::
         :: gradient norm              0.000864273183 Eh/a0 ::
         :: HOMO-LUMO gap              0.000000012998 eV    ::
         ::.................................................::
         :: SCC energy                -6.857778586545 Eh    ::
         :: -> isotropic ES            0.001240525805 Eh    ::
         :: -> anisotropic ES          0.001490917674 Eh    ::
         :: -> anisotropic XC          0.007410446805 Eh    ::
         :: -> dispersion             -0.000224192563 Eh    ::
         :: repulsion energy           0.029437763199 Eh    ::
         :: add. restraining           0.000000000000 Eh    ::
         :::::::::::::::::::::::::::::::::::::::::::::::::::::

           ------------------------------------------------- 
          |                Numerical Hessian                |
           ------------------------------------------------- 
step length          :   0.00500
SCC accuracy         :   0.30000
Hessian scale factor :   1.00000
frozen atoms in %    :   0.00000    0
RMS gradient         :   0.00086

writing file <hessian>.

 vibrational frequencies (cm-1)
eigval :        0.00     0.00     0.00     0.00     0.00  1952.87
           -------------------------------------------------
          |                Property Printout                |
           -------------------------------------------------

    * Orbital Energies and Occupations

         #    Occupation            Energy/Eh            Energy/eV
      -------------------------------------------------------------
         1        2.0000           -0.8003231             -21.7779
         2        2.0000           -0.6713159             -18.2674
         3        2.0000           -0.6262266             -17.0405
         4        2.0000           -0.6262266             -17.0405
         5        2.0000           -0.5099847             -13.8774
         6        0.5000           -0.3557153              -9.6795 (HOMO)
         7        0.5000           -0.3557153              -9.6795 (LUMO)
         8                          0.4206620              11.4468
      -------------------------------------------------------------
                  HL-Gap            0.0000000 Eh            0.0000 eV
             Fermi-level           -0.3942827 Eh          -10.7290 eV

     #   Z        covCN         q      C6AA      α(0)
     1   8 O      0.923    -0.063    15.962     5.358
     2   7 N      0.923     0.063    20.087     6.476

 Mol. C6AA /au·bohr⁶  :         71.759072
 Mol. C8AA /au·bohr⁸  :       1518.730179
Molecule has the following symmetry elements: (Cinf) (sigma) 
It seems to be the Cinfv point group
 Mol. α(0) /au        :         11.834029


Wiberg/Mayer (AO) data.
largest (>0.10) Wiberg bond orders for each atom
          total WBO             WBO to atom ...
     1  O   2.017        N    2 2.017
     2  N   2.017        O    1 2.017

MOs/occ written to file <molden.input>


molecular dipole:
                 x           y           z       tot (Debye)
 q only:       -0.138       0.000       0.000
   full:        0.067      -0.000      -0.000       0.170
molecular quadrupole (traceless):
                xx          xy          yy          xz          yz          zz
 q only:       -0.000       0.000       0.000       0.000      -0.000       0.000
  q+dip:       -0.972       0.000       0.486       0.000      -0.000       0.486
   full:       -1.587       0.000       0.794       0.000       0.000       0.794

           -------------------------------------------------
          |                Geometry Summary                 |
           -------------------------------------------------

      molecular mass/u    :       30.0061081
   center of mass at/Å    :        0.0383565      -0.0000002      -0.0000001
  moments of inertia/u·Å² :       -0.2794296E-15   0.9965590E+01   0.9965590E+01
rotational constants/cm⁻¹ :       -0.6032873E+17   0.1691584E+01   0.1691584E+01

 * 1 selected distances

     #   Z        #   Z                                     value/Å
     0 *** --     0 *** --                                0.0000000 (max)

 * 0 distinct bonds (by element types)

   Z      Z             #   av. dist./Å        max./Å        min./Å

           -------------------------------------------------
          |               Frequency Printout                |
           -------------------------------------------------
 vibrational frequencies (cm-1)
eigval :        0.00     0.00     0.00     0.00     0.00  1952.87
 reduced masses (amu)
   1: 14.94   2: 14.94   3: 15.07   4: 15.07   5: 15.07   6: 14.94
 IR intensities (amu)
   1:  0.04   2:  0.04   3:  0.02   4:  0.01   5:  0.00   6:  0.57
 Raman intensities (amu)
   1:  0.00   2:  0.00   3:  0.00   4:  0.00   5:  0.00   6:  0.00
 output can be read by thermo (or use thermo option).
 writing <g98.out> molden fake output.
 recommended (thermochemical) frequency scaling factor: 1.0
           -------------------------------------------------
          |             Thermodynamic Functions             |
           -------------------------------------------------

cin symmetry found (for desy threshold:  0.10E+00) used in thermo

          ...................................................
          :                      SETUP                      :
          :.................................................:
          :  # frequencies                           1      :
          :  # imaginary freq.                       0      :
          :  linear?                              true      :
          :  only rotor calc.                    false      :
          :  symmetry                              cin      :
          :  rotational number                       1      :
          :  scaling factor                  1.0000000      :
          :  rotor cutoff                   50.0000000 cm⁻¹ :
          :  imag. cutoff                  -20.0000000 cm⁻¹ :
          :.................................................:

    mode    ω/cm⁻¹     T·S(HO)/kcal·mol⁻¹    T·S(FR)/kcal·mol⁻¹   T·S(vib)
   ------------------------------------------------------------------------
   ------------------------------------------------------------------------

   temp. (K)  partition function   enthalpy   heat capacity  entropy
                                   cal/mol     cal/K/mol   cal/K/mol   J/K/mol
 298.15  VIB   1.00                    0.451      0.014      0.002
         ROT   123.                  592.502      1.987     11.542
         INT   123.                  592.953      2.002     11.544
         TR   0.159E+27             1481.254      4.968     36.113
         TOT                        2074.2065     6.9697    47.6574   199.3985

   temp. (K)  partition function   enthalpy   heat capacity  entropy
                                   cal/mol     cal/K/mol   cal/K/mol   J/K/mol
 120.00  VIB   1.00                    0.000      0.000     -0.000
         ROT   49.3                  238.471      1.987      9.734
         INT   49.3                  238.471      1.987      9.734
         TR   0.406E+26              596.178      4.968     31.594
         TOT                         834.6492     6.9554    41.3278   172.9154

   temp. (K)  partition function   enthalpy   heat capacity  entropy
                                   cal/mol     cal/K/mol   cal/K/mol   J/K/mol
 100.00  VIB   1.00                    0.000      0.000     -0.000
         ROT   41.1                  198.726      1.987      9.371
         INT   41.1                  198.726      1.987      9.371
         TR   0.309E+26              496.815      4.968     30.689
         TOT                         695.5410     6.9554    40.0601   167.6114

   temp. (K)  partition function   enthalpy   heat capacity  entropy
                                   cal/mol     cal/K/mol   cal/K/mol   J/K/mol
  80.00  VIB   1.00                    0.000      0.000     -0.000
         ROT   32.9                  158.981      1.987      8.928
         INT   32.9                  158.981      1.987      8.928
         TR   0.221E+26              397.452      4.968     29.581
         TOT                         556.4328     6.9554    38.5086   161.1199

   temp. (K)  partition function   enthalpy   heat capacity  entropy
                                   cal/mol     cal/K/mol   cal/K/mol   J/K/mol
  60.00  VIB   1.00                    0.000      0.000     -0.000
         ROT   24.7                  119.236      1.987      8.356
         INT   24.7                  119.236      1.987      8.356
         TR   0.144E+26              298.089      4.968     28.152
         TOT                         417.3246     6.9554    36.5083   152.7508

   temp. (K)  partition function   enthalpy   heat capacity  entropy
                                   cal/mol     cal/K/mol   cal/K/mol   J/K/mol
  40.00  VIB   1.00                    0.000      0.000     -0.000
         ROT   16.4                   79.490      1.987      7.550
         INT   16.4                   79.490      1.987      7.550
         TR   0.781E+25              198.726      4.968     26.139
         TOT                         278.2164     6.9554    33.6891   140.9553

   temp. (K)  partition function   enthalpy   heat capacity  entropy
                                   cal/mol     cal/K/mol   cal/K/mol   J/K/mol
  20.00  VIB   1.00                    0.000      0.000     -0.000
         ROT   8.22                   39.745      1.987      6.173
         INT   8.22                   39.745      1.987      6.173
         TR   0.276E+25               99.363      4.968     22.697
         TOT                         139.1082     6.9554    28.8697   120.7908

   temp. (K)  partition function   enthalpy   heat capacity  entropy
                                   cal/mol     cal/K/mol   cal/K/mol   J/K/mol
  10.00  VIB   1.00                    0.000      0.000     -0.000
         ROT   4.11                   19.873      1.987      4.796
         INT   4.11                   19.873      1.987      4.796
         TR   0.977E+24               49.681      4.968     19.255
         TOT                          69.5541     6.9554    24.0503   100.6263

       T/K    H(0)-H(T)+PV         H(T)/Eh          T*S/Eh         G(T)/Eh
   ------------------------------------------------------------------------
    298.15    0.330546E-02    0.775443E-02    0.226436E-01   -0.148891E-01
    120.00    0.133010E-02    0.577907E-02    0.790320E-02   -0.212413E-02
    100.00    0.110842E-02    0.555739E-02    0.638398E-02   -0.826594E-03
     80.00    0.886732E-03    0.533570E-02    0.490939E-02    0.426319E-03
     60.00    0.665049E-03    0.511402E-02    0.349078E-02    0.162324E-02
     40.00    0.443366E-03    0.489234E-02    0.214748E-02    0.274486E-02
     20.00    0.221683E-03    0.467066E-02    0.920136E-03    0.375052E-02
     10.00    0.110842E-03    0.455981E-02    0.383265E-03    0.417655E-02 (used)
   ------------------------------------------------------------------------

         :::::::::::::::::::::::::::::::::::::::::::::::::::::
         ::                  THERMODYNAMIC                  ::
         :::::::::::::::::::::::::::::::::::::::::::::::::::::
         :: total free energy          -6.824164274137 Eh   ::
         ::.................................................::
         :: total energy               -6.828340823349 Eh   ::
         :: zero point energy           0.004448972877 Eh   ::
         :: G(RRHO) w/o ZPVE           -0.000272423666 Eh   ::
         :: G(RRHO) contrib.            0.004176549211 Eh   ::
         :::::::::::::::::::::::::::::::::::::::::::::::::::::

optimized geometry written to: xtbopt.xyz


           -------------------------------------------------
          | TOTAL ENERGY               -6.828340823349 Eh   |
          | TOTAL ENTHALPY             -6.823781008958 Eh   |
          | TOTAL FREE ENERGY          -6.824164274137 Eh   |
          | GRADIENT NORM               0.000863964342 Eh/α |
          | HOMO-LUMO GAP               0.000000002507 eV   |
           -------------------------------------------------

------------------------------------------------------------------------
 * finished run on 2020/05/12 at 11:44:29.655     
------------------------------------------------------------------------
 total:
 * wall-time:     0 d,  0 h,  0 min,  0.032 sec
 *  cpu-time:     0 d,  0 h,  0 min,  0.032 sec
 * ratio c/w:     0.997 speedup
 SCF:
 * wall-time:     0 d,  0 h,  0 min,  0.001 sec
 *  cpu-time:     0 d,  0 h,  0 min,  0.001 sec
 * ratio c/w:     1.000 speedup
 ANC optimizer:
 * wall-time:     0 d,  0 h,  0 min,  0.006 sec
 *  cpu-time:     0 d,  0 h,  0 min,  0.006 sec
 * ratio c/w:     0.999 speedup
 numerical hessian:
 * wall-time:     0 d,  0 h,  0 min,  0.009 sec
 *  cpu-time:     0 d,  0 h,  0 min,  0.009 sec
 * ratio c/w:     0.997 speedup

