 Entering Gaussian System
 *********************************************
 Gaussian 98:
 frequency output generated by the xtb code
 *********************************************
                         Standard orientation:
 --------------------------------------------------------------------
  Center     Atomic     Atomic              Coordinates (Angstroms)
  Number     Number      Type              X           Y           Z
 --------------------------------------------------------------------
    1          7             0        1.827355   -0.481694   -0.017030
    2          6             0        0.709187   -0.009069    0.007902
    3          6             0       -0.741767   -0.037883   -0.009089
    4          6             0       -0.178578    1.169371    0.110800
    5          1             0       -1.616198   -0.640726   -0.092583
 --------------------------------------------------------------------
     1 basis functions        1 primitive gaussians
     1 alpha electrons        1 beta electrons

 Harmonic frequencies (cm**-1), IR intensities (KM/Mole),
 Raman scattering activities (A**4/amu), Raman depolarization ratios,
 reduced masses (AMU), force constants (mDyne/A) and normal coordinates:
                      1                      2                      3
                        a                      a                      a 
 Frequencies --   242.4696               310.5270               412.3480
 Red. masses --    11.9874                11.1642                 3.9013
 Frc consts  --     0.0000                 0.0000                 0.0000
 IR Inten    --     0.5226                 0.1879                 0.2315
 Raman Activ --     0.0000                 0.0000                 0.0000
 Depolar     --     0.0000                 0.0000                 0.0000
 Atom AN      X      Y      Z        X      Y      Z        X      Y      Z
   1   7     0.01   0.02  -0.39     0.20   0.48   0.04    -0.00   0.01  -0.15
   2   6    -0.01  -0.06   0.83    -0.18  -0.64  -0.04     0.00  -0.02   0.22
   3   6     0.00   0.03  -0.31    -0.22   0.19   0.01     0.00  -0.04   0.39
   4   6    -0.00   0.01  -0.15     0.25  -0.14  -0.01    -0.01   0.03  -0.19
   5   1     0.00  -0.03   0.17    -0.22   0.28   0.02     0.02   0.09  -0.86
                      4                      5                      6
                        a                      a                      a 
 Frequencies --   604.9921               754.2141               901.4616
 Red. masses --     9.6458                 8.6404                 9.5947
 Frc consts  --     0.0000                 0.0000                 0.0000
 IR Inten    --     1.4158                 0.4234                 0.7620
 Raman Activ --     0.0000                 0.0000                 0.0000
 Depolar     --     0.0000                 0.0000                 0.0000
 Atom AN      X      Y      Z        X      Y      Z        X      Y      Z
   1   7     0.13  -0.08  -0.00     0.14  -0.16  -0.01     0.39  -0.16  -0.01
   2   6     0.38   0.41   0.04     0.22  -0.22  -0.02     0.22  -0.21  -0.02
   3   6    -0.45   0.06   0.01     0.33   0.03   0.00    -0.38   0.47   0.04
   4   6     0.03  -0.48  -0.05    -0.62   0.22   0.01    -0.33   0.04   0.00
   5   1    -0.34   0.32   0.02    -0.26   0.50   0.06     0.28  -0.42  -0.04
                      7                      8                      9
                        a                      a                      a 
 Frequencies --  1349.0348              1797.1204              3183.0287
 Red. masses --    11.9932                12.1539                 2.0301
 Frc consts  --     0.0000                 0.0000                 0.0000
 IR Inten    --     1.6996                 1.1014                 0.1655
 Raman Activ --     0.0000                 0.0000                 0.0000
 Depolar     --     0.0000                 0.0000                 0.0000
 Atom AN      X      Y      Z        X      Y      Z        X      Y      Z
   1   7    -0.50   0.18   0.01     0.42  -0.17  -0.01    -0.00   0.00   0.00
   2   6     0.23  -0.10  -0.00    -0.66   0.24   0.01     0.02  -0.01  -0.00
   3   6     0.36   0.43   0.04     0.26   0.26   0.03    -0.24  -0.18  -0.02
   4   6    -0.12  -0.52  -0.05    -0.09  -0.36  -0.04     0.00   0.03   0.00
   5   1     0.23  -0.01   0.00     0.09   0.13   0.01     0.78   0.54   0.07
