4
 energy: -8.849361405402 gnorm: 0.045899535324 xtb: 6.2.2 (9d81278992624c895f80dd42a50cac0aa55982e2)
C         0.75695700000000    0.01153600000000   -0.48075100000000
C        -0.04620600000000    0.74995500000000    0.48956700000000
C        -0.70050400000000   -0.02699600000000   -0.55929100000000
N        -0.01024700000000   -0.73449500000000    0.55047600000000
4
 energy: -8.850727186961 gnorm: 0.021031199308 xtb: 6.2.2 (9d81278992624c895f80dd42a50cac0aa55982e2)
C         0.76404727241679    0.00544948544666   -0.48066514862077
C        -0.04673025997085    0.75086722585727    0.49885229071777
C        -0.70723122382183   -0.03344899101915   -0.55994862034064
N        -0.01008578862411   -0.72286772028477    0.54176247824363
4
 energy: -8.851112555762 gnorm: 0.002029519876 xtb: 6.2.2 (9d81278992624c895f80dd42a50cac0aa55982e2)
C         0.76997281900181    0.00028534038765   -0.48053593067834
C        -0.04716805140140    0.75154995742230    0.50667336638005
C        -0.71285459295111   -0.03892338245582   -0.56043947061225
N        -0.00995017464931   -0.71291191535413    0.53430303491054
4
 energy: -8.851115240215 gnorm: 0.000695198963 xtb: 6.2.2 (9d81278992624c895f80dd42a50cac0aa55982e2)
C         0.77056464958190   -0.00006652165980   -0.48064357830444
C        -0.04720582854288    0.75177389823226    0.50733490299060
C        -0.71341024398450   -0.03931501309366   -0.56060608733470
N        -0.00994857705452   -0.71239236347880    0.53391576264853
