 Entering Gaussian System
 *********************************************
 Gaussian 98:
 frequency output generated by the xtb code
 *********************************************
                         Standard orientation:
 --------------------------------------------------------------------
  Center     Atomic     Atomic              Coordinates (Angstroms)
  Number     Number      Type              X           Y           Z
 --------------------------------------------------------------------
    1          6             0        0.770563   -0.000071   -0.480646
    2          6             0       -0.047200    0.751775    0.507334
    3          6             0       -0.713412   -0.039312   -0.560604
    4          7             0       -0.009950   -0.712391    0.533917
 --------------------------------------------------------------------
     1 basis functions        1 primitive gaussians
     1 alpha electrons        1 beta electrons

 Harmonic frequencies (cm**-1), IR intensities (KM/Mole),
 Raman scattering activities (A**4/amu), Raman depolarization ratios,
 reduced masses (AMU), force constants (mDyne/A) and normal coordinates:
                      1                      2                      3
                        a                      a                      a 
 Frequencies -- -1133.1433             -1132.9524               864.7016
 Red. masses --    12.6491                12.6491                12.0664
 Frc consts  --     0.0000                 0.0000                 0.0000
 IR Inten    --     3.8789                 3.8751                 1.4391
 Raman Activ --     0.0000                 0.0000                 0.0000
 Depolar     --     0.0000                 0.0000                 0.0000
 Atom AN      X      Y      Z        X      Y      Z        X      Y      Z
   1   6    -0.15  -0.43   0.02     0.07  -0.22   0.44    -0.55   0.03   0.31
   2   6    -0.34  -0.18   0.09    -0.13   0.44  -0.29     0.41   0.27   0.22
   3   6    -0.06   0.46  -0.31    -0.20   0.11   0.30    -0.01  -0.25  -0.47
   4   7     0.52   0.14   0.19     0.23  -0.31  -0.41     0.15  -0.05  -0.06
                      4                      5                      6
                        a                      a                      a 
 Frequencies --   864.7653              1046.6860              1477.8964
 Red. masses --    12.0664                12.9423                12.5164
 Frc consts  --     0.0000                 0.0000                 0.0000
 IR Inten    --     1.4405                 1.9690                 0.3269
 Raman Activ --     0.0000                 0.0000                 0.0000
 Depolar     --     0.0000                 0.0000                 0.0000
 Atom AN      X      Y      Z        X      Y      Z        X      Y      Z
   1   6     0.22   0.26   0.36    -0.30   0.29  -0.03     0.42   0.02  -0.27
   2   6     0.28  -0.42  -0.32     0.02  -0.01  -0.42    -0.03   0.42   0.26
   3   6    -0.58   0.07  -0.16     0.29   0.31   0.00    -0.39  -0.00  -0.32
   4   7     0.08   0.09   0.12    -0.01  -0.55   0.41    -0.01  -0.40   0.30
