$hessian                                                                        
        0.2656424693   0.0821422745   0.0044344047  -0.0744802303  -0.0223514240
        0.0078788714   0.1118516000  -0.0175168039  -0.0009137935  -0.0533064054
        0.0258813917   0.0047295473  -0.2497074336  -0.0681554384  -0.0161290300
        0.0821422745   0.3058608551   0.0000690762   0.0800806334  -0.0020625847
        0.0003574048  -0.0124550525  -0.2644690433   0.0098589751   0.0175115804
       -0.0000499488  -0.0002864718  -0.1672794359  -0.0392792782  -0.0099989844
        0.0044344047   0.0000690762   0.0151664680   0.0075670371  -0.0003211466
       -0.0272623299  -0.0012341674   0.0064144927   0.0139357299   0.0088803603
       -0.0011880312   0.0088195183  -0.0196476347  -0.0049743912  -0.0106593863
       -0.0744802303   0.0800806334   0.0075670371   0.8711620900  -0.0365785413
       -0.0720112237  -0.0782477212  -0.0732538621   0.0119625601  -0.6567756686
        0.0272846238   0.0637125250  -0.0616584699   0.0024671462  -0.0112308986
       -0.0223514240  -0.0020625847  -0.0003211466  -0.0365785413   0.0062862652
        0.0048067631   0.0289858644   0.0019812111  -0.0019891193   0.0273983046
       -0.0153857737  -0.0030616252   0.0025457963   0.0091808821   0.0005651280
        0.0078788714   0.0003574048  -0.0272623299  -0.0720112237   0.0048067631
        0.0731637621   0.0063474128  -0.0023827387  -0.0271573663   0.0662511962
       -0.0032028321  -0.0330627264  -0.0084662568   0.0004214029   0.0143186605
        0.1118516000  -0.0124550525  -0.0012341674  -0.0782477212   0.0289858644
        0.0063474128   0.2528532568  -0.0775440414   0.0083321512  -0.0564083224
       -0.0211824365   0.0061139576  -0.2300488132   0.0821956660  -0.0195593543
       -0.0175168039  -0.2644690433   0.0064144927  -0.0732538621   0.0019812111
       -0.0023827387  -0.0775440414   0.3176889332  -0.0180259279  -0.0126250816
        0.0029339628   0.0002808193   0.1809397890  -0.0581350637   0.0137133545
       -0.0009137935   0.0098589751   0.0139357299   0.0119625601  -0.0019891193
       -0.0271573663   0.0083321512  -0.0180259279   0.0162527612   0.0098654444
        0.0009333555   0.0087375662  -0.0292463622   0.0092227165  -0.0117686910
       -0.0533064054   0.0175115804   0.0088803603  -0.6567756686   0.0273983046
        0.0662511962  -0.0564083224  -0.0126250816   0.0098654444   0.7804180333
       -0.0324245162  -0.0787605875  -0.0139276369   0.0001397128  -0.0062364134
        0.0258813917  -0.0000499488  -0.0011880312   0.0272846238  -0.0153857737
       -0.0032028321  -0.0211824365   0.0029339628   0.0009333555  -0.0324245162
        0.0199769744   0.0031299100   0.0004409372  -0.0074752147   0.0003275977
        0.0047295473  -0.0002864718   0.0088195183   0.0637125250  -0.0030616252
       -0.0330627264   0.0061139576   0.0002808193   0.0087375662  -0.0787605875
        0.0031299100   0.0191610687   0.0042045574  -0.0000626323  -0.0036554268
       -0.2497074336  -0.1672794359  -0.0196476347  -0.0616584699   0.0025457963
       -0.0084662568  -0.2300488132   0.1809397890  -0.0292463622  -0.0139276369
        0.0004409372   0.0042045574   0.5553423537  -0.0166470867   0.0531556963
       -0.0681554384  -0.0392792782  -0.0049743912   0.0024671462   0.0091808821
        0.0004214029   0.0821956660  -0.0581350637   0.0092227165   0.0001397128
       -0.0074752147  -0.0000626323  -0.0166470867   0.0957086746  -0.0046070959
       -0.0161290300  -0.0099989844  -0.0106593863  -0.0112308986   0.0005651280
        0.0143186605  -0.0195593543   0.0137133545  -0.0117686910  -0.0062364134
        0.0003275977  -0.0036554268   0.0531556963  -0.0046070959   0.0117648434
