5
 energy: -10.922146252099 gnorm: 0.259167825300 xtb: 6.2.2 (9d81278992624c895f80dd42a50cac0aa55982e2)
C        -0.35018100000000    1.03480200000000    0.08887700000000
N         0.57036900000000   -0.00736300000000    0.52207600000000
C        -0.43063700000000   -0.99697200000000    0.14812000000000
C         1.63750900000000   -0.07836100000000   -0.46357500000000
C        -1.42706000000000    0.04789400000000   -0.29549700000000
5
 energy: -10.987722883844 gnorm: 0.174858541124 xtb: 6.2.2 (9d81278992624c895f80dd42a50cac0aa55982e2)
C        -0.40195850457747    0.95568539498497    0.16639718298373
N         0.64138713024564   -0.01200826835402    0.45920973065144
C        -0.47582311761733   -0.90963651548603    0.22078665004076
C         1.61032471410444   -0.07735719607038   -0.46606518355459
C        -1.37393022215528    0.04331658492546   -0.38032738012134
5
 energy: -10.990425554179 gnorm: 0.370300144626 xtb: 6.2.2 (9d81278992624c895f80dd42a50cac0aa55982e2)
C        -0.47781208118750    0.84179365992952    0.16623353989331
N         0.72778333081670   -0.02110806182690    0.26446112907931
C        -0.54244166149199   -0.79031084836609    0.21382278269828
C         1.66289522087642   -0.07564059722255   -0.33580161960661
C        -1.37042480901363    0.04526584748602   -0.30871483206428
5
 energy: -11.027095191172 gnorm: 0.075149925795 xtb: 6.2.2 (9d81278992624c895f80dd42a50cac0aa55982e2)
C        -0.48686948871224    0.87469356426876    0.20274485118406
N         0.69915912508206   -0.01998678834670    0.26404005019562
C        -0.55398594159042   -0.82021233498282    0.25216522060793
C         1.77217803682815   -0.08117702587530   -0.37726114033730
C        -1.43048173160754    0.04668258493606   -0.34168798165031
5
 energy: -11.032504239935 gnorm: 0.044550417167 xtb: 6.2.2 (9d81278992624c895f80dd42a50cac0aa55982e2)
C        -0.48053248403706    0.85525038757553    0.19803302371826
N         0.71336111124604   -0.02137950735418    0.23556343324731
C        -0.54614361113295   -0.80163778106436    0.24634487958314
C         1.79127327779139   -0.08115225220355   -0.35048084865585
C        -1.47795829386742    0.04891915304656   -0.32945948789286
5
 energy: -11.027277098458 gnorm: 0.120027911890 xtb: 6.2.2 (9d81278992624c895f80dd42a50cac0aa55982e2)
C        -0.44551683656622    0.74343709353572    0.11705805289516
N         0.75919802500887   -0.02634509964387    0.12751259300505
C        -0.50259049842434   -0.69784127652670    0.15908302766630
C         1.91581080718632   -0.08190395930945   -0.20713382218544
C        -1.72690149720463    0.06265324194430   -0.19651885138107
5
 energy: -11.041052630143 gnorm: 0.025820853170 xtb: 6.2.2 (9d81278992624c895f80dd42a50cac0aa55982e2)
C        -0.47679390278221    0.80483882064309    0.14442655713805
N         0.73168284068853   -0.02500727600239    0.13601741876376
C        -0.53855547616928   -0.75488155888233    0.18990379914072
C         1.89575252286731   -0.08229368072227   -0.24768502554434
C        -1.61208598460434    0.05734369496389   -0.22266174949820
5
 energy: -11.041695840230 gnorm: 0.016394748673 xtb: 6.2.2 (9d81278992624c895f80dd42a50cac0aa55982e2)
C        -0.46783942448879    0.80643973856059    0.12785452004612
N         0.72367935223351   -0.02469424244444    0.13587147710384
C        -0.52979153421888   -0.75814452114451    0.17347225410369
C         1.88632194369470   -0.08157089024762   -0.23565015364845
C        -1.61237033722054    0.05796991527598   -0.20154709760519
5
 energy: -11.042512022334 gnorm: 0.020467207651 xtb: 6.2.2 (9d81278992624c895f80dd42a50cac0aa55982e2)
C        -0.46817791927406    0.79795940803278    0.10681850768817
N         0.71968298226907   -0.02564935484965    0.09771702199930
C        -0.52950755811319   -0.75090112014211    0.15197806004726
C         1.90770725263143   -0.08133835746274   -0.19864152102234
C        -1.62970475751325    0.05992942442172   -0.15787106871240
5
 energy: -11.042887257644 gnorm: 0.018343527793 xtb: 6.2.2 (9d81278992624c895f80dd42a50cac0aa55982e2)
C        -0.46904535435198    0.79504859590987    0.09147828972589
N         0.72113158293942   -0.02644361018474    0.07239741679658
C        -0.53016702997642   -0.74882040653672    0.13648654623652
C         1.91898110213739   -0.08101943949799   -0.17214733823718
C        -1.64090030074842    0.06123486030957   -0.12821391452180
5
 energy: -11.043226897838 gnorm: 0.008412141561 xtb: 6.2.2 (9d81278992624c895f80dd42a50cac0aa55982e2)
C        -0.47056820590941    0.79538879947912    0.07125170917387
N         0.72524930455946   -0.02746405819751    0.04329708289996
C        -0.53177888892769   -0.75022356382328    0.11632434923380
C         1.92948740722366   -0.08046559055378   -0.13941915551656
C        -1.65238961694603    0.06276441309543   -0.09145298579107
5
 energy: -11.043308118388 gnorm: 0.001082330622 xtb: 6.2.2 (9d81278992624c895f80dd42a50cac0aa55982e2)
C        -0.47186306024563    0.79654710908518    0.06006577261170
N         0.72811377497836   -0.02800498506486    0.02856705510567
C        -0.53317977228009   -0.75192403089731    0.10521904057513
C         1.93351728931660   -0.08012418962568   -0.12209891081773
C        -1.65658823176925    0.06350609650266   -0.07175195747477
5
 energy: -11.043310850890 gnorm: 0.004772788408 xtb: 6.2.2 (9d81278992624c895f80dd42a50cac0aa55982e2)
C        -0.47233478750191    0.79684433877020    0.04917159493028
N         0.72944213189141   -0.02841935407604    0.01615123074941
C        -0.53369759433292   -0.75281825668201    0.09436018333078
C         1.93892733715806   -0.07989000463634   -0.10672410989961
C        -1.66233708721463    0.06428327662419   -0.05295789911086
5
 energy: -11.043320880622 gnorm: 0.002440515110 xtb: 6.2.2 (9d81278992624c895f80dd42a50cac0aa55982e2)
C        -0.47265648936231    0.79666984550561    0.04839850515949
N         0.72988081524226   -0.02843444061786    0.01621902804604
C        -0.53400575512616   -0.75266473554677    0.09357747195442
C         1.93740115008818   -0.07981233777467   -0.10612636502695
C        -1.66061972084196    0.06424166843369   -0.05206764013300
5
 energy: -11.043324124388 gnorm: 0.001213656429 xtb: 6.2.2 (9d81278992624c895f80dd42a50cac0aa55982e2)
C        -0.47247188624168    0.79622474492213    0.04897491905103
N         0.72949088219847   -0.02836698500181    0.01800412571711
C        -0.53378585765487   -0.75220285043985    0.09412752784369
C         1.93706521769334   -0.07984473015883   -0.10770187244657
C        -1.66029835599525    0.06418982067835   -0.05340370016527
5
 energy: -11.043326569602 gnorm: 0.000689722238 xtb: 6.2.2 (9d81278992624c895f80dd42a50cac0aa55982e2)
C        -0.47241540100355    0.79546925164393    0.04732474214530
N         0.72940403200375   -0.02833478562144    0.01914552569228
C        -0.53369924808557   -0.75156752612682    0.09245040330478
C         1.93736721742921   -0.07982902564848   -0.10734075544843
C        -1.66065660034384    0.06426208575281   -0.05157891569393
