 Entering Gaussian System
 *********************************************
 Gaussian 98:
 frequency output generated by the xtb code
 *********************************************
                         Standard orientation:
 --------------------------------------------------------------------
  Center     Atomic     Atomic              Coordinates (Angstroms)
  Number     Number      Type              X           Y           Z
 --------------------------------------------------------------------
    1          6             0       -0.472411    0.795472    0.047325
    2          7             0        0.729404   -0.028339    0.019143
    3          6             0       -0.533703   -0.751565    0.092454
    4          6             0        1.937366   -0.079839   -0.107347
    5          6             0       -1.660656    0.064271   -0.051573
 --------------------------------------------------------------------
     1 basis functions        1 primitive gaussians
     1 alpha electrons        1 beta electrons

 Harmonic frequencies (cm**-1), IR intensities (KM/Mole),
 Raman scattering activities (A**4/amu), Raman depolarization ratios,
 reduced masses (AMU), force constants (mDyne/A) and normal coordinates:
                      1                      2                      3
                        a                      a                      a 
 Frequencies --  -179.9377               106.4890               307.2789
 Red. masses --    13.0187                12.2086                12.3919
 Frc consts  --     0.0000                 0.0000                 0.0000
 IR Inten    --     1.3524                 0.4581                 0.0719
 Raman Activ --     0.0000                 0.0000                 0.0000
 Depolar     --     0.0000                 0.0000                 0.0000
 Atom AN      X      Y      Z        X      Y      Z        X      Y      Z
   1   6    -0.32   0.37   0.01     0.02   0.03   0.37    -0.25   0.28   0.08
   2   7    -0.03  -0.71   0.02    -0.04   0.01   0.31     0.02   0.44  -0.02
   3   6     0.35   0.34  -0.02     0.01  -0.01   0.37     0.27   0.25  -0.09
   4   6     0.00   0.14  -0.01    -0.11  -0.01  -0.46    -0.02  -0.60   0.02
   5   6    -0.00  -0.08  -0.00     0.12  -0.02  -0.62    -0.02  -0.40   0.01
                      4                      5                      6
                        a                      a                      a 
 Frequencies --   453.0549               677.3812               791.0537
 Red. masses --    13.2195                12.4593                12.0336
 Frc consts  --     0.0000                 0.0000                 0.0000
 IR Inten    --     0.2028                 0.1844                 1.0443
 Raman Activ --     0.0000                 0.0000                 0.0000
 Depolar     --     0.0000                 0.0000                 0.0000
 Atom AN      X      Y      Z        X      Y      Z        X      Y      Z
   1   6     0.02   0.04   0.35     0.25   0.29  -0.11    -0.51  -0.26  -0.03
   2   7    -0.11  -0.02  -0.77    -0.47   0.02   0.04     0.00   0.11  -0.00
   3   6     0.02  -0.02   0.35     0.22  -0.31  -0.09     0.49  -0.30   0.04
   4   6     0.00   0.01   0.33    -0.45   0.02   0.05    -0.00  -0.11   0.00
   5   6     0.07  -0.01  -0.19     0.50  -0.02   0.11     0.02   0.56  -0.02
                      7                      8                      9
                        a                      a                      a 
 Frequencies --  1031.3957              1463.5640              1751.4009
 Red. masses --    12.1179                12.0164                12.9821
 Frc consts  --     0.0000                 0.0000                 0.0000
 IR Inten    --     0.1977                 0.2506                 0.2966
 Raman Activ --     0.0000                 0.0000                 0.0000
 Depolar     --     0.0000                 0.0000                 0.0000
 Atom AN      X      Y      Z        X      Y      Z        X      Y      Z
   1   6    -0.36   0.53  -0.01    -0.34  -0.36  -0.01    -0.01  -0.06  -0.00
   2   7     0.23  -0.01  -0.00     0.05  -0.00  -0.02    -0.69   0.03   0.07
   3   6    -0.40  -0.50   0.02    -0.31   0.39  -0.04    -0.01   0.06  -0.01
   4   6     0.29  -0.01  -0.03    -0.09   0.00   0.01     0.70  -0.03  -0.07
   5   6     0.22  -0.01   0.02     0.70  -0.03   0.06     0.07  -0.00   0.01
