      -----------------------------------------------------------      
     |                   =====================                   |     
     |                           x T B                           |     
     |                   =====================                   |     
     |                         S. Grimme                         |     
     |          Mulliken Center for Theoretical Chemistry        |     
     |                    University of Bonn                     |     
      -----------------------------------------------------------      

   * xtb version 6.2.2 (9d81278992624c895f80dd42a50cac0aa55982e2) compiled by '@Darwin' on 04/03/2020

   xtb is free software: you can redistribute it and/or modify it under
   the terms of the GNU Lesser General Public License as published by
   the Free Software Foundation, either version 3 of the License, or
   (at your option) any later version.
   
   xtb is distributed in the hope that it will be useful,
   but WITHOUT ANY WARRANTY; without even the implied warranty of
   MERCHANTABILITY or FITNESS FOR A PARTICULAR PURPOSE.  See the
   GNU Lesser General Public License for more details.
   
   Cite this work as:
   * S. Grimme, C. Bannwarth, P. Shushkov, J. Chem. Theory Comput., 2017,
     13, 1989-2009. DOI: 10.1021/acs.jctc.7b00118
   * C. Bannwarth, S. Ehlert and S. Grimme., J. Chem. Theory Comput., 2019,
     15, 1652-1671. DOI: 10.1021/acs.jctc.8b01176
   * P. Pracht, E. Caldeweyher, S. Ehlert, S. Grimme, ChemRxiv, 2019, preprint.
     DOI: 10.26434/chemrxiv.8326202.v1
   
   for DFT-D4:
   * E. Caldeweyher, C. Bannwarth and S. Grimme, J. Chem. Phys., 2017,
     147, 034112. DOI: 10.1063/1.4993215
   * E. Caldeweyher, S. Ehlert, A. Hansen, H. Neugebauer, S. Spicher,
     C. Bannwarth and S. Grimme, J. Chem. Phys., 2019, 150, 154122.
     DOI: 10.1063/1.5090222
   
   for sTDA-xTB:
   * S. Grimme and C. Bannwarth, J. Chem. Phys., 2016, 145, 054103.
     DOI: 10.1063/1.4959605
   
   in the mass-spec context:
   * V. Asgeirsson, C. Bauer and S. Grimme, Chem. Sci., 2017, 8, 4879.
     DOI: 10.1039/c7sc00601b
   
   for metadynamics refer to:
   * S. Grimme, J. Chem. Theory Comput., 2019, 155, 2847-2862
     DOI: 10.1021/acs.jctc.9b00143
   
   with help from (in alphabetical order)
   C. Bannwarth, F. Bohle, G. Brandenburg, E. Caldeweyher, M. Checinski,
   S. Dohm, S. Ehlert, S. Ehrlich, F. März, H. Neugebauer, J. Pisarek,
   P. Pracht, P. Shushkov, and S. Spicher.
   
 * started run on 2020/05/12 at 11:44:04.800     

           -------------------------------------------------
          |                Calculation Setup                |
           -------------------------------------------------

          program call               : xtb --input C4N1_16_S_1.input C4N1_16_S_1.xyz --ohess --molden --namespace C4N1_16_S_1 output.out
          calculation namespace      : C4N1_16_S_1
          coordinate file            : C4N1_16_S_1.xyz
          number of atoms            :                     5
          number of electrons        :                    21
          charge                     :                     0
          spin                       :                   0.5
          first test random number   :      0.03473577688752

   ID    Z sym.   atoms
    1    6 C      1, 3-5
    2    7 N      2

           -------------------------------------------------
          |                 G F N 2 - x T B                 |
           -------------------------------------------------

        Reference                      10.1021/acs.jctc.8b01176
      * Hamiltonian:
        H0-scaling (s, p, d)           1.850000    2.230000    2.230000
        zeta-weighting                 0.500000
      * Dispersion:
        s8                             2.700000
        a1                             0.520000
        a2                             5.000000
        s9                             5.000000
      * Repulsion:
        kExp                           1.500000    1.000000
        rExp                           1.000000
      * Coulomb:
        alpha                          2.000000
        third order                    shell-resolved
        anisotropic                    true
        a3                             3.000000
        a5                             4.000000
        cn-shift                       1.200000
        cn-exp                         4.000000
        max-rad                        5.000000


          ...................................................
          :                      SETUP                      :
          :.................................................:
          :  # basis functions                  20          :
          :  # atomic orbitals                  20          :
          :  # shells                           10          :
          :  # electrons                        21          :
          :  max. iterations                   250          :
          :  Hamiltonian                  GFN2-xTB          :
          :  restarted?                      false          :
          :  GBSA solvation                  false          :
          :  PC potential                    false          :
          :  electronic temp.          300.0000000     K    :
          :  accuracy                    1.0000000          :
          :  -> integral cutoff          0.2500000E+02      :
          :  -> integral neglect         0.1000000E-07      :
          :  -> SCF convergence          0.1000000E-05 Eh   :
          :  -> wf. convergence          0.1000000E-03 e    :
          :  Broyden damping             0.4000000          :
          ...................................................

 iter      E             dE          RMSdq      gap      omega  full diag
   1    -10.7703732 -0.107704E+02  0.108E+01    0.35       0.0  T
   2     -8.0160043  0.275437E+01  0.170E+01    0.72       1.0  T
   3     -8.3309427 -0.314938E+00  0.138E+01    0.64       1.0  T
   4    -10.6924056 -0.236146E+01  0.733E+00    1.15       1.0  T
   5    -10.6289617  0.634439E-01  0.645E+00    0.60       1.0  T
   6    -10.8165587 -0.187597E+00  0.483E+00    0.63       1.0  T
   7    -10.9738836 -0.157325E+00  0.237E+00    0.60       1.0  T
   8    -10.9744443 -0.560761E-03  0.246E+00    0.50       1.0  T
   9    -10.9581039  0.163404E-01  0.354E+00    0.50       1.0  T
  10    -10.8843098  0.737941E-01  0.555E+00    0.37       1.0  T
  11    -10.9786759 -0.943661E-01  0.157E+00    0.55       1.0  T
  12    -10.9301546  0.485213E-01  0.389E+00    0.47       1.0  T
  13    -10.9430368 -0.128823E-01  0.343E+00    0.48       1.0  T
  14    -10.9712445 -0.282077E-01  0.200E+00    0.52       1.0  T
  15    -10.9803467 -0.910220E-02  0.121E+00    0.54       1.0  T
  16    -10.9854257 -0.507893E-02  0.290E-01    0.52       1.0  T
  17    -10.9855456 -0.119902E-03  0.271E-01    0.53       1.0  T
  18    -10.9857558 -0.210227E-03  0.659E-02    0.53       1.0  T
  19    -10.9857470  0.877085E-05  0.706E-02    0.53       1.0  T
  20    -10.9857506 -0.360910E-05  0.578E-02    0.53       1.0  T
  21    -10.9857616 -0.109290E-04  0.174E-02    0.53       2.6  T
  22    -10.9857624 -0.864774E-06  0.475E-03    0.53       9.4  T
  23    -10.9857625 -0.363171E-07  0.400E-03    0.53      11.2  T
  24    -10.9857625 -0.323371E-07  0.191E-03    0.53      23.5  T
  25    -10.9857625 -0.140363E-07  0.160E-04    0.53     279.6  T
  26    -10.9857625 -0.318305E-10  0.822E-05    0.53     543.7  T

   *** convergence criteria satisfied after 26 iterations ***

         #    Occupation            Energy/Eh            Energy/eV
      -------------------------------------------------------------
         1        2.0000           -0.7584719             -20.6391
       ...           ...                  ...                  ...
         5        2.0000           -0.5723672             -15.5749
         6        2.0000           -0.5673017             -15.4371
         7        2.0000           -0.5339641             -14.5299
         8        2.0000           -0.5077199             -13.8158
         9        2.0000           -0.4485907             -12.2068
        10        1.6213           -0.4307355             -11.7209
        11        1.3786           -0.4297944             -11.6953 (HOMO)
        12        0.0000           -0.4103638             -11.1666 (LUMO)
        13                         -0.3784431             -10.2980
        14                         -0.3770212             -10.2593
        15                         -0.2820775              -7.6757
        16                         -0.0450729              -1.2265
       ...                                ...                  ...
        20                          0.2391356               6.5072
      -------------------------------------------------------------
                  HL-Gap            0.0194306 Eh            0.5287 eV
             Fermi-level           -0.4250970 Eh          -11.5675 eV

 SCC (total)                   0 d,  0 h,  0 min,  0.006 sec
 SCC setup                      ...        0 min,  0.000 sec (  1.509%)
 Dispersion                     ...        0 min,  0.000 sec (  0.271%)
 integral evaluation            ...        0 min,  0.001 sec ( 21.614%)
 zeroth order Hamiltonian       ...        0 min,  0.000 sec (  0.299%)
 iterations                     ...        0 min,  0.003 sec ( 50.509%)
 molecular gradient             ...        0 min,  0.001 sec ( 24.444%)
 printout                       ...        0 min,  0.000 sec (  1.205%)

         :::::::::::::::::::::::::::::::::::::::::::::::::::::
         ::                     SUMMARY                     ::
         :::::::::::::::::::::::::::::::::::::::::::::::::::::
         :: total energy             -10.922146252638 Eh    ::
         :: gradient norm              0.259167881304 Eh/a0 ::
         :: HOMO-LUMO gap              0.528732953603 eV    ::
         ::.................................................::
         :: SCC energy               -10.985762512731 Eh    ::
         :: -> isotropic ES           -0.024931940347 Eh    ::
         :: -> anisotropic ES          0.001576081798 Eh    ::
         :: -> anisotropic XC          0.005498983277 Eh    ::
         :: -> dispersion             -0.003000216233 Eh    ::
         :: repulsion energy           0.063616200116 Eh    ::
         :: add. restraining           0.000000000000 Eh    ::
         :::::::::::::::::::::::::::::::::::::::::::::::::::::

      ----------------------------------------------------------- 
     |                   =====================                   |
     |                        A N C O P T                        |
     |                   =====================                   |
     |               Approximate Normal Coordinate               |
     |                Rational Function Optimizer                |
      ----------------------------------------------------------- 

          ...................................................
          :                      SETUP                      :
          :.................................................:
          :   optimization level            normal          :
          :   max. optcycles                   200          :
          :   ANC micro-cycles                  20          :
          :   degrees of freedom                 9          :
          :.................................................:
          :   RF solver                   davidson          :
          :   write xtbopt.log                true          :
          :   linear?                        false          :
          :   energy convergence         0.5000000E-05 Eh   :
          :   grad. convergence          0.1000000E-02 Eh/α :
          :   maximium RF displ.         1.0000000          :
          :   Hlow (freq-cutoff)         0.1000000E-01      :
          :   Hmax (freq-cutoff)         5.0000000          :
          :   S6 in model hess.         20.0000000          :
          ...................................................

generating ANC from model Hessian ...
Using Lindh-Hessian (1995)
 Shifting diagonal of input Hessian by    0.0000000000000000     
 Lowest  eigenvalues of input Hessian
   -0.000000   -0.000000   -0.000000    0.000000    0.000000    0.000000
    0.023227    0.098850    0.133212    0.281288    0.836765    0.869035
    0.954283    1.039094    1.247456
 Highest eigenvalues
    0.281288    0.836765    0.869035    0.954283    1.039094    1.247456


........................................................................
.............................. CYCLE    1 ..............................
........................................................................
   1    -10.9857625 -0.109858E+02  0.538E-05    0.53       0.0  T
   2    -10.9857625  0.173164E-08  0.566E-04    0.53      79.1  T
   3    -10.9857625 -0.170624E-08  0.802E-05    0.53     557.7  T
     SCC iter.                  ...        0 min,  0.000 sec
     gradient                   ...        0 min,  0.001 sec
 * total energy  :   -10.9221463 Eh     change        0.5385026E-09 Eh
   gradient norm :     0.2591678 Eh/α   predicted     0.0000000E+00 (-100.00%)
   displ. norm   :     0.4212982 α      lambda       -0.8078305E-01
   maximum displ.:     0.2629108 α      in ANC's #1, #3, #6, ...

........................................................................
.............................. CYCLE    2 ..............................
........................................................................
   1    -11.0718914 -0.110719E+02  0.289E+00    1.48       0.0  T
   2    -10.9395609  0.132331E+00  0.491E+00    1.62       1.0  T
   3    -11.0442379 -0.104677E+00  0.261E+00    1.46       1.0  T
   4    -11.0272418  0.169961E-01  0.277E+00    1.52       1.0  T
   5    -11.0679207 -0.406789E-01  0.216E+00    1.55       1.0  T
   6    -11.0678483  0.724064E-04  0.190E+00    1.55       1.0  T
   7    -11.0793678 -0.115195E-01  0.131E+00    1.49       1.0  T
   8    -11.0825336 -0.316584E-02  0.815E-01    1.51       1.0  T
   9    -11.0842422 -0.170854E-02  0.424E-01    1.53       1.0  T
  10    -11.0847714 -0.529233E-03  0.175E-01    1.54       1.0  T
  11    -11.0848745 -0.103134E-03  0.969E-02    1.54       1.0  T
  12    -11.0848899 -0.153878E-04  0.757E-02    1.54       1.0  T
  13    -11.0849113 -0.213956E-04  0.732E-04    1.54      61.1  T
  14    -11.0849113  0.105568E-08  0.918E-04    1.54      48.7  T
  15    -11.0849113 -0.260719E-09  0.711E-04    1.54      62.9  T
     SCC iter.                  ...        0 min,  0.001 sec
     gradient                   ...        0 min,  0.001 sec
 * total energy  :   -10.9877229 Eh     change       -0.6557663E-01 Eh
   gradient norm :     0.1748432 Eh/α   predicted    -0.4756070E-01 ( -27.47%)
   displ. norm   :     0.6204636 α      lambda       -0.9381939E-01
   maximum displ.:     0.3603845 α      in ANC's #6, #3, #7, ...

........................................................................
.............................. CYCLE    3 ..............................
........................................................................
   1    -11.2306810 -0.112307E+02  0.491E+00    1.79       0.0  T
   2    -11.1175225  0.113159E+00  0.569E+00    2.04       1.0  T
   3    -11.2424344 -0.124912E+00  0.299E+00    1.70       1.0  T
   4    -11.2235072  0.189272E-01  0.359E+00    1.95       1.0  T
   5    -11.2509512 -0.274440E-01  0.253E+00    1.84       1.0  T
   6    -11.2537374 -0.278616E-02  0.235E+00    1.84       1.0  T
   7    -11.2581228 -0.438542E-02  0.211E+00    1.72       1.0  T
   8    -11.2664864 -0.836363E-02  0.128E+00    1.77       1.0  T
   9    -11.2698796 -0.339311E-02  0.686E-01    1.79       1.0  T
  10    -11.2711396 -0.126006E-02  0.268E-01    1.82       1.0  T
  11    -11.2713521 -0.212541E-03  0.104E-02    1.81       4.3  T
  12    -11.2713493  0.282958E-05  0.325E-02    1.81       1.4  T
  13    -11.2713472  0.216396E-05  0.431E-02    1.81       1.0  T
  14    -11.2713519 -0.479152E-05  0.129E-02    1.81       3.5  T
  15    -11.2713524 -0.485203E-06  0.125E-03    1.81      35.9  T
  16    -11.2713524 -0.445935E-08  0.554E-05    1.81     807.9  T
  17    -11.2713524 -0.627054E-12  0.614E-05    1.81     728.8  T
     SCC iter.                  ...        0 min,  0.002 sec
     gradient                   ...        0 min,  0.001 sec
 * total energy  :   -10.9904256 Eh     change       -0.2702670E-02 Eh
   gradient norm :     0.3687438 Eh/α   predicted    -0.6496878E-01 (2303.87%)
   displ. norm   :     0.2939976 α      lambda       -0.9400453E-01
   maximum displ.:     0.2003327 α      in ANC's #3, #6, #7, ...

........................................................................
.............................. CYCLE    4 ..............................
........................................................................
   1    -11.1519281 -0.111519E+02  0.256E+00    1.55       0.0  T
   2    -10.7706715  0.381257E+00  0.736E+00    0.93       1.0  T
   3    -11.1519958 -0.381324E+00  0.211E+00    1.56       1.0  T
   4    -11.1489771  0.301875E-02  0.243E+00    1.48       1.0  T
   5    -11.1722065 -0.232294E-01  0.740E-01    1.52       1.0  T
   6    -11.1740056 -0.179905E-02  0.200E-01    1.52       1.0  T
   7    -11.1740623 -0.566906E-04  0.126E-01    1.52       1.0  T
   8    -11.1741347 -0.724350E-04  0.943E-02    1.51       1.0  T
   9    -11.1741246  0.101139E-04  0.104E-01    1.51       1.0  T
  10    -11.1741444 -0.198540E-04  0.647E-02    1.51       1.0  T
  11    -11.1741512 -0.673789E-05  0.498E-02    1.51       1.0  T
  12    -11.1741577 -0.651572E-05  0.144E-02    1.51       3.1  T
  13    -11.1741583 -0.576465E-06  0.226E-03    1.51      19.8  T
  14    -11.1741583 -0.485996E-08  0.195E-03    1.51      22.9  T
  15    -11.1741583 -0.106611E-07  0.263E-05    1.51    1700.1  T
  16    -11.1741583 -0.733635E-12  0.180E-05    1.51    2480.2  T
     SCC iter.                  ...        0 min,  0.002 sec
     gradient                   ...        0 min,  0.001 sec
 * total energy  :   -11.0270952 Eh     change       -0.3666964E-01 Eh
   gradient norm :     0.0751496 Eh/α   predicted    -0.5106489E-01 (  39.26%)
   displ. norm   :     0.1386822 α      lambda       -0.6243763E-02
   maximum displ.:     0.0859347 α      in ANC's #1, #6, #3, ...

........................................................................
.............................. CYCLE    5 ..............................
........................................................................
   1    -11.1775611 -0.111776E+02  0.152E+00    1.55       0.0  T
   2    -11.0442841  0.133277E+00  0.481E+00    1.25       1.0  T
   3    -11.1677773 -0.123493E+00  0.158E+00    1.57       1.0  T
   4    -11.1770355 -0.925817E-02  0.118E+00    1.55       1.0  T
   5    -11.1788643 -0.182888E-02  0.884E-01    1.53       1.0  T
   6    -11.1790260 -0.161694E-03  0.807E-01    1.53       1.0  T
   7    -11.1808452 -0.181915E-02  0.459E-01    1.52       1.0  T
   8    -11.1811058 -0.260610E-03  0.357E-01    1.52       1.0  T
   9    -11.1813905 -0.284733E-03  0.200E-01    1.52       1.0  T
  10    -11.1815103 -0.119776E-03  0.205E-02    1.51       2.2  T
  11    -11.1815090  0.128193E-05  0.286E-02    1.51       1.6  T
  12    -11.1815101 -0.105206E-05  0.224E-02    1.51       2.0  T
  13    -11.1815118 -0.172011E-05  0.754E-04    1.51      59.3  T
  14    -11.1815118 -0.165472E-08  0.121E-04    1.51     370.1  T
  15    -11.1815118 -0.275708E-10  0.107E-05    1.51    4197.0  T
     SCC iter.                  ...        0 min,  0.001 sec
     gradient                   ...        0 min,  0.001 sec
 * total energy  :   -11.0325042 Eh     change       -0.5409049E-02 Eh
   gradient norm :     0.0445322 Eh/α   predicted    -0.3181925E-02 ( -41.17%)
   displ. norm   :     0.7797592 α      lambda       -0.2352496E-01
   maximum displ.:     0.6240844 α      in ANC's #1, #4, #6, ...

........................................................................
.............................. CYCLE    6 ..............................
........................................................................
   1    -11.1601385 -0.111601E+02  0.449E+00    1.95       0.0  T
   2    -11.1133473  0.467912E-01  0.337E+00    1.53       1.0  T
   3    -11.1132082  0.139072E-03  0.346E+00    2.13       1.0  T
   4    -11.1764169 -0.632087E-01  0.849E-01    1.74       1.0  T
   5    -11.1806383 -0.422134E-02  0.255E-01    1.88       1.0  T
   6    -11.1806249  0.133631E-04  0.210E-01    1.88       1.0  T
   7    -11.1806820 -0.571120E-04  0.379E-02    1.88       1.2  T
   8    -11.1806846 -0.261678E-05  0.139E-02    1.88       3.2  T
   9    -11.1806847 -0.576566E-07  0.137E-03    1.88      32.5  T
  10    -11.1806847  0.203788E-08  0.856E-04    1.88      52.3  T
  11    -11.1806847 -0.155782E-08  0.578E-04    1.88      77.4  T
     SCC iter.                  ...        0 min,  0.001 sec
     gradient                   ...        0 min,  0.001 sec
 * total energy  :   -11.0272771 Eh     change        0.5227141E-02 Eh
   gradient norm :     0.1197250 Eh/α   predicted    -0.1891436E-01 (-461.85%)
   displ. norm   :     0.3148920 α      lambda       -0.2930714E-01
   maximum displ.:     0.2097281 α      in ANC's #4, #1, #6, ...

........................................................................
.............................. CYCLE    7 ..............................
........................................................................
   1    -11.1770202 -0.111770E+02  0.269E+00    1.51       0.0  T
   2    -11.1585681  0.184521E-01  0.212E+00    1.50       1.0  T
   3    -11.1669593 -0.839117E-02  0.198E+00    1.39       1.0  T
   4    -11.1843834 -0.174241E-01  0.101E+00    1.60       1.0  T
   5    -11.1892547 -0.487130E-02  0.141E-01    1.49       1.0  T
   6    -11.1893088 -0.541600E-04  0.816E-02    1.49       1.0  T
   7    -11.1893129 -0.404692E-05  0.166E-02    1.48       2.7  T
   8    -11.1893130 -0.966091E-07  0.572E-03    1.49       7.8  T
   9    -11.1893130 -0.308895E-07  0.116E-03    1.49      38.5  T
  10    -11.1893130 -0.667468E-08  0.339E-04    1.49     131.8  T
  11    -11.1893130  0.760814E-10  0.306E-04    1.49     146.0  T
     SCC iter.                  ...        0 min,  0.001 sec
     gradient                   ...        0 min,  0.001 sec
 * total energy  :   -11.0410526 Eh     change       -0.1377553E-01 Eh
   gradient norm :     0.0257630 Eh/α   predicted    -0.1610657E-01 (  16.92%)
   displ. norm   :     0.0721964 α      lambda       -0.1020426E-02
   maximum displ.:     0.0523462 α      in ANC's #1, #3, #4, ...

........................................................................
.............................. CYCLE    8 ..............................
........................................................................
   1    -11.1938919 -0.111939E+02  0.384E-01    1.45       0.0  T
   2    -11.1930928  0.799097E-03  0.430E-01    1.36       1.0  T
   3    -11.1941388 -0.104596E-02  0.200E-01    1.43       1.0  T
   4    -11.1942394 -0.100693E-03  0.131E-01    1.42       1.0  T
   5    -11.1943384 -0.989430E-04  0.143E-02    1.41       3.1  T
   6    -11.1943390 -0.589258E-06  0.685E-03    1.42       6.5  T
   7    -11.1943390 -0.613809E-07  0.640E-04    1.42      69.9  T
   8    -11.1943390 -0.142093E-09  0.333E-04    1.42     134.1  T
     SCC iter.                  ...        0 min,  0.001 sec
     gradient                   ...        0 min,  0.001 sec
 * total energy  :   -11.0416958 Eh     change       -0.6432101E-03 Eh
   gradient norm :     0.0163851 Eh/α   predicted    -0.5128743E-03 ( -20.26%)
   displ. norm   :     0.1528306 α      lambda       -0.1249365E-02
   maximum displ.:     0.1345771 α      in ANC's #1, #6, #3, ...

........................................................................
.............................. CYCLE    9 ..............................
........................................................................
   1    -11.1978103 -0.111978E+02  0.592E-01    1.42       0.0  T
   2    -11.1970803  0.730046E-03  0.476E-01    1.33       1.0  T
   3    -11.1969228  0.157527E-03  0.437E-01    1.43       1.0  T
   4    -11.1980529 -0.113011E-02  0.765E-02    1.38       1.0  T
   5    -11.1980810 -0.281153E-04  0.255E-02    1.37       1.8  T
   6    -11.1980812 -0.233154E-06  0.126E-02    1.37       3.6  T
   7    -11.1980817 -0.476012E-06  0.123E-03    1.37      36.2  T
   8    -11.1980817 -0.335270E-08  0.549E-04    1.37      81.5  T
   9    -11.1980817  0.266451E-08  0.643E-04    1.37      69.6  T
     SCC iter.                  ...        0 min,  0.001 sec
     gradient                   ...        0 min,  0.001 sec
 * total energy  :   -11.0425120 Eh     change       -0.8161821E-03 Eh
   gradient norm :     0.0201465 Eh/α   predicted    -0.6392730E-03 ( -21.68%)
   displ. norm   :     0.1029657 α      lambda       -0.4909700E-03
   maximum displ.:     0.0905201 α      in ANC's #1, #6, #3, ...

........................................................................
.............................. CYCLE   10 ..............................
........................................................................
   1    -11.1999810 -0.112000E+02  0.379E-01    1.37       0.0  T
   2    -11.1997679  0.213084E-03  0.283E-01    1.32       1.0  T
   3    -11.1995425  0.225468E-03  0.290E-01    1.39       1.0  T
   4    -11.2000687 -0.526226E-03  0.345E-02    1.35       1.3  T
   5    -11.2000723 -0.357977E-05  0.164E-02    1.35       2.7  T
   6    -11.2000728 -0.486386E-06  0.773E-03    1.35       5.8  T
   7    -11.2000729 -0.143492E-06  0.776E-04    1.35      57.6  T
   8    -11.2000729 -0.555575E-09  0.481E-04    1.35      93.0  T
     SCC iter.                  ...        0 min,  0.001 sec
     gradient                   ...        0 min,  0.001 sec
 * total energy  :   -11.0428873 Eh     change       -0.3752353E-03 Eh
   gradient norm :     0.0180010 Eh/α   predicted    -0.2480899E-03 ( -33.88%)
   displ. norm   :     0.1247074 α      lambda       -0.5051870E-03
   maximum displ.:     0.1091777 α      in ANC's #1, #6, #9, ...

........................................................................
.............................. CYCLE   11 ..............................
........................................................................
   1    -11.2011809 -0.112012E+02  0.437E-01    1.34       0.0  T
   2    -11.2010418  0.139111E-03  0.296E-01    1.28       1.0  T
   3    -11.2005070  0.534845E-03  0.340E-01    1.37       1.0  T
   4    -11.2012648 -0.757810E-03  0.443E-02    1.32       1.0  T
   5    -11.2012704 -0.560498E-05  0.208E-02    1.31       2.2  T
   6    -11.2012716 -0.122629E-05  0.999E-03    1.31       4.5  T
   7    -11.2012717 -0.132171E-06  0.176E-03    1.31      25.5  T
   8    -11.2012718 -0.135242E-07  0.102E-03    1.31      44.0  T
   9    -11.2012718 -0.445959E-08  0.264E-04    1.31     169.2  T
  10    -11.2012718 -0.142526E-09  0.226E-05    1.31    1981.1  T
     SCC iter.                  ...        0 min,  0.001 sec
     gradient                   ...        0 min,  0.001 sec
 * total energy  :   -11.0432269 Eh     change       -0.3396402E-03 Eh
   gradient norm :     0.0082417 Eh/α   predicted    -0.2565233E-03 ( -24.47%)
   displ. norm   :     0.0655834 α      lambda       -0.1323009E-03
   maximum displ.:     0.0562427 α      in ANC's #1, #6, #9, ...

........................................................................
.............................. CYCLE   12 ..............................
........................................................................
   1    -11.2020210 -0.112020E+02  0.229E-01    1.30       0.0  T
   2    -11.2020022  0.188070E-04  0.146E-01    1.27       1.0  T
   3    -11.2018447  0.157465E-03  0.171E-01    1.32       1.0  T
   4    -11.2020393 -0.194611E-03  0.271E-02    1.29       1.6  T
   5    -11.2020416 -0.224493E-05  0.120E-02    1.29       3.7  T
   6    -11.2020421 -0.524542E-06  0.551E-03    1.29       8.1  T
   7    -11.2020421 -0.332680E-07  0.515E-04    1.29      86.8  T
   8    -11.2020421 -0.277144E-09  0.175E-04    1.29     256.0  T
     SCC iter.                  ...        0 min,  0.001 sec
     gradient                   ...        0 min,  0.001 sec
 * total energy  :   -11.0433081 Eh     change       -0.8122055E-04 Eh
   gradient norm :     0.0010729 Eh/α   predicted    -0.6643634E-04 ( -18.20%)
   displ. norm   :     0.0611362 α      lambda       -0.1910466E-04
   maximum displ.:     0.0554530 α      in ANC's #1, #6, #9, ...

........................................................................
.............................. CYCLE   13 ..............................
........................................................................
   1    -11.2005228 -0.112005E+02  0.213E-01    1.28       0.0  T
   2    -11.2005084  0.143299E-04  0.135E-01    1.25       1.0  T
   3    -11.2003554  0.153076E-03  0.161E-01    1.29       1.0  T
   4    -11.2005388 -0.183439E-03  0.150E-02    1.27       3.0  T
   5    -11.2005391 -0.296542E-06  0.669E-03    1.26       6.7  T
   6    -11.2005390  0.910810E-07  0.422E-03    1.26      10.6  T
   7    -11.2005391 -0.943980E-07  0.142E-03    1.26      31.4  T
   8    -11.2005391 -0.140987E-07  0.310E-04    1.26     144.1  T
   9    -11.2005391 -0.169276E-09  0.441E-05    1.26    1014.1  T
     SCC iter.                  ...        0 min,  0.001 sec
     gradient                   ...        0 min,  0.002 sec
 * total energy  :   -11.0433109 Eh     change       -0.2732502E-05 Eh
   gradient norm :     0.0047672 Eh/α   predicted    -0.9567628E-05 ( 250.14%)
   displ. norm   :     0.0053770 α      lambda       -0.2042818E-04
   maximum displ.:     0.0033205 α      in ANC's #7, #3, #9, ...

........................................................................
.............................. CYCLE   14 ..............................
........................................................................
   1    -11.2021529 -0.112022E+02  0.327E-02    1.27       0.0  T
   2    -11.2021525  0.437084E-06  0.244E-02    1.26       1.8  T
   3    -11.2021544 -0.197991E-05  0.152E-02    1.27       2.9  T
   4    -11.2021542  0.240544E-06  0.118E-02    1.26       3.8  T
   5    -11.2021551 -0.929091E-06  0.147E-03    1.27      30.5  T
   6    -11.2021551  0.546283E-10  0.857E-04    1.27      52.2  T
   7    -11.2021551 -0.123515E-08  0.958E-05    1.27     466.9  T
     SCC iter.                  ...        0 min,  0.001 sec
     gradient                   ...        0 min,  0.001 sec
 * total energy  :   -11.0433209 Eh     change       -0.1002973E-04 Eh
   gradient norm :     0.0023990 Eh/α   predicted    -0.1021620E-04 (   1.86%)
   displ. norm   :     0.0056563 α      lambda       -0.4500846E-05
   maximum displ.:     0.0039233 α      in ANC's #1, #4, #9, ...

........................................................................
.............................. CYCLE   15 ..............................
........................................................................
   1    -11.2022542 -0.112023E+02  0.208E-02    1.27       0.0  T
   2    -11.2022542  0.554067E-09  0.128E-02    1.27       3.5  T
   3    -11.2022533  0.890102E-06  0.115E-02    1.27       3.9  T
   4    -11.2022543 -0.940394E-06  0.248E-03    1.27      18.0  T
   5    -11.2022543 -0.364717E-07  0.882E-04    1.27      50.7  T
   6    -11.2022543  0.371521E-08  0.892E-04    1.27      50.1  T
     SCC iter.                  ...        0 min,  0.001 sec
     gradient                   ...        0 min,  0.001 sec
 * total energy  :   -11.0433241 Eh     change       -0.3243766E-05 Eh
   gradient norm :     0.0011980 Eh/α   predicted    -0.2250625E-05 ( -30.62%)
   displ. norm   :     0.0064133 α      lambda       -0.3106788E-05
   maximum displ.:     0.0049753 α      in ANC's #1, #3, #7, ...

........................................................................
.............................. CYCLE   16 ..............................
........................................................................
   1    -11.2023938 -0.112024E+02  0.349E-02    1.27       0.0  T
   2    -11.2023919  0.195634E-05  0.275E-02    1.26       1.6  T
   3    -11.2023929 -0.102334E-05  0.210E-02    1.27       2.1  T
   4    -11.2023951 -0.220439E-05  0.297E-03    1.27      15.0  T
   5    -11.2023952 -0.338082E-07  0.138E-03    1.27      32.3  T
   6    -11.2023952 -0.685120E-09  0.889E-04    1.27      50.3  T
   7    -11.2023952  0.463176E-09  0.786E-04    1.27      56.9  T
     SCC iter.                  ...        0 min,  0.001 sec
     gradient                   ...        0 min,  0.001 sec
 * total energy  :   -11.0433266 Eh     change       -0.2445214E-05 Eh
   gradient norm :     0.0006833 Eh/α   predicted    -0.1553521E-05 ( -36.47%)
   displ. norm   :     0.0108661 α      lambda       -0.1108667E-05
   maximum displ.:     0.0101062 α      in ANC's #1, #9, #7, ...

   *** GEOMETRY OPTIMIZATION CONVERGED AFTER 16 ITERATIONS ***

------------------------------------------------------------------------
 total energy gain   :        -0.1211803 Eh      -76.0418 kcal/mol
 total RMSD          :         0.7356422 a0        0.3893 Å
 total power (kW/mol):       -19.8849299 (step)-5161.2438 (real)
------------------------------------------------------------------------

 ANCopt (total)                0 d,  0 h,  0 min,  0.062 sec
 optimizer setup                ...        0 min,  0.000 sec (  0.089%)
 model hessian                  ...        0 min,  0.000 sec (  0.140%)
 ANC generation                 ...        0 min,  0.000 sec (  0.099%)
 coordinate transformation      ...        0 min,  0.000 sec (  0.052%)
 single point calculation       ...        0 min,  0.060 sec ( 97.631%)
 optimization log               ...        0 min,  0.000 sec (  0.621%)
 hessian update                 ...        0 min,  0.000 sec (  0.055%)
 rational function              ...        0 min,  0.000 sec (  0.540%)

================
 final structure:
================
5
 xtb: 6.2.2 (9d81278992624c895f80dd42a50cac0aa55982e2)
C        -0.47241540100355    0.79546925164393    0.04732474214530
N         0.72940403200375   -0.02833478562144    0.01914552569228
C        -0.53369924808557   -0.75156752612682    0.09245040330478
C         1.93736721742921   -0.07982902564848   -0.10734075544843
C        -1.66065660034384    0.06426208575281   -0.05157891569393

 Bond Distances (Angstroems)
 ---------------------------
C1-N2=1.4573         C1-C3=1.5489         C1-C5=1.3987         N2-C1=1.4573         N2-C3=1.4574         N2-C4=1.2157         
C3-C1=1.5489         C3-N2=1.4574         C3-C5=1.3987         C4-N2=1.2157         C5-C1=1.3987         C5-C3=1.3987         
 C  C  Rav=1.4488 sigma=0.0708  Rmin=1.3987  Rmax=1.5489     3
 N  C  Rav=1.3768 sigma=0.1139  Rmin=1.2157  Rmax=1.4574     3

 selected bond angles (degree)
 --------------------
C3-C1-N2= 57.90                C5-C1-N2=113.81                C5-C1-C3= 56.38                C3-N2-C1= 64.20                
C4-N2-C1=147.72                C4-N2-C3=147.72                N2-C3-C1= 57.90                C5-C3-C1= 56.38                
C5-C3-N2=113.81                C3-C5-C1= 67.24                

 selected dihedral angles (degree)
 ---------------------------------
C3-N2-C1-C5=352.41            C4-N2-C1-C3=173.21            C4-N2-C1-C5=165.62            N2-C3-C1-C5=171.65            
C5-C3-C1-N2=188.35            C1-C3-N2-C4=186.79            C5-C3-N2-C1=  7.59            C5-C3-N2-C4=194.38            
C3-C5-C1-N2=  7.72            C1-C5-C3-N2=352.28            
           -------------------------------------------------
          |                Final Singlepoint                |
           -------------------------------------------------

          ...................................................
          :                      SETUP                      :
          :.................................................:
          :  # basis functions                  20          :
          :  # atomic orbitals                  20          :
          :  # shells                           10          :
          :  # electrons                        21          :
          :  max. iterations                   250          :
          :  Hamiltonian                  GFN2-xTB          :
          :  restarted?                      false          :
          :  GBSA solvation                  false          :
          :  PC potential                    false          :
          :  electronic temp.          300.0000000     K    :
          :  accuracy                    1.0000000          :
          :  -> integral cutoff          0.2500000E+02      :
          :  -> integral neglect         0.1000000E-07      :
          :  -> SCF convergence          0.1000000E-05 Eh   :
          :  -> wf. convergence          0.1000000E-03 e    :
          :  Broyden damping             0.4000000          :
          ...................................................

 iter      E             dE          RMSdq      gap      omega  full diag
   1    -11.2023952 -0.112024E+02  0.293E-04    1.27       0.0  T
   2    -11.2023952 -0.174083E-11  0.167E-04    1.27     267.6  T
   3    -11.2023952  0.154401E-10  0.561E-05    1.27     797.7  T

   *** convergence criteria satisfied after 3 iterations ***

         #    Occupation            Energy/Eh            Energy/eV
      -------------------------------------------------------------
         1        2.0000           -0.7666264             -20.8610
       ...           ...                  ...                  ...
         5        2.0000           -0.6066313             -16.5073
         6        2.0000           -0.5706958             -15.5294
         7        2.0000           -0.5006156             -13.6224
         8        2.0000           -0.4903792             -13.3439
         9        2.0000           -0.4700626             -12.7911
        10        2.0000           -0.4400006             -11.9730
        11        1.0000           -0.4069273             -11.0731 (HOMO)
        12                         -0.3604366              -9.8080 (LUMO)
        13                         -0.3196622              -8.6985
        14                         -0.2722915              -7.4094
        15                         -0.2286355              -6.2215
        16                         -0.0490869              -1.3357
       ...                                ...                  ...
        20                          0.6871206              18.6975
      -------------------------------------------------------------
                  HL-Gap            0.0464907 Eh            1.2651 eV
             Fermi-level           -0.4035730 Eh          -10.9818 eV

 SCC (total)                   0 d,  0 h,  0 min,  0.003 sec
 SCC setup                      ...        0 min,  0.000 sec (  2.088%)
 Dispersion                     ...        0 min,  0.000 sec (  0.266%)
 integral evaluation            ...        0 min,  0.001 sec ( 40.973%)
 zeroth order Hamiltonian       ...        0 min,  0.000 sec (  0.569%)
 iterations                     ...        0 min,  0.000 sec ( 10.596%)
 molecular gradient             ...        0 min,  0.001 sec ( 43.061%)
 printout                       ...        0 min,  0.000 sec (  2.210%)

         :::::::::::::::::::::::::::::::::::::::::::::::::::::
         ::                     SUMMARY                     ::
         :::::::::::::::::::::::::::::::::::::::::::::::::::::
         :: total energy             -11.043326573578 Eh    ::
         :: gradient norm              0.000688406883 Eh/a0 ::
         :: HOMO-LUMO gap              1.265076267458 eV    ::
         ::.................................................::
         :: SCC energy               -11.202395155698 Eh    ::
         :: -> isotropic ES           -0.016292709505 Eh    ::
         :: -> anisotropic ES          0.006067310112 Eh    ::
         :: -> anisotropic XC          0.008687082356 Eh    ::
         :: -> dispersion             -0.002875964617 Eh    ::
         :: repulsion energy           0.159068627079 Eh    ::
         :: add. restraining           0.000000000000 Eh    ::
         :::::::::::::::::::::::::::::::::::::::::::::::::::::

           ------------------------------------------------- 
          |                Numerical Hessian                |
           ------------------------------------------------- 
step length          :   0.00500
SCC accuracy         :   0.30000
Hessian scale factor :   1.00000
frozen atoms in %    :   0.00000    0
RMS gradient         :   0.00069
estimated CPU  time      0.00 min
estimated wall time      0.00 min

writing file <hessian>.

 projected vibrational frequencies (cm-1)
eigval :       -0.00    -0.00     0.00     0.00     0.00     0.00
eigval :     -179.94   106.49   307.28   453.05   677.38   791.05
eigval :     1031.40  1463.56  1751.40
           -------------------------------------------------
          |                Property Printout                |
           -------------------------------------------------

    * Orbital Energies and Occupations

         #    Occupation            Energy/Eh            Energy/eV
      -------------------------------------------------------------
         1        2.0000           -0.7666263             -20.8610
         2        2.0000           -0.7212752             -19.6269
         3        2.0000           -0.6666617             -18.1408
         4        2.0000           -0.6436418             -17.5144
         5        2.0000           -0.6066312             -16.5073
         6        2.0000           -0.5706959             -15.5294
         7        2.0000           -0.5006155             -13.6224
         8        2.0000           -0.4903793             -13.3439
         9        2.0000           -0.4700625             -12.7911
        10        2.0000           -0.4400009             -11.9730
        11        1.0000           -0.4069273             -11.0731 (HOMO)
        12                         -0.3604365              -9.8080 (LUMO)
        13                         -0.3196623              -8.6985
        14                         -0.2722915              -7.4094
        15                         -0.2286355              -6.2215
        16                         -0.0490868              -1.3357
        17                          0.0738806               2.0104
        18                          0.1718788               4.6771
        19                          0.3850745              10.4784
        20                          0.6871207              18.6975
      -------------------------------------------------------------
                  HL-Gap            0.0464908 Eh            1.2651 eV
             Fermi-level           -0.4035730 Eh          -10.9818 eV

     #   Z        covCN         q      C6AA      α(0)
     1   6 C      2.861     0.042    27.045     8.524
     2   7 N      2.731     0.146    18.780     6.436
     3   6 C      2.861     0.042    27.045     8.524
     4   6 C      0.913    -0.124    39.391    10.505
     5   6 C      1.967    -0.107    34.023     9.420

 Mol. C6AA /au·bohr⁶  :        719.377317
 Mol. C8AA /au·bohr⁸  :      19966.293800
 Mol. α(0) /au        :         43.408953


Wiberg/Mayer (AO) data.
largest (>0.10) Wiberg bond orders for each atom
          total WBO             WBO to atom ...
     1  C   3.132        C    5 1.233    C    3 1.018    N    2 0.814
     2  N   3.717        C    4 1.997    C    1 0.814    C    3 0.813
     3  C   3.132        C    5 1.233    C    1 1.018    N    2 0.813
     4  C   2.281        N    2 1.997    C    5 0.148
     5  C   2.707        C    3 1.233    C    1 1.233    C    4 0.148

MOs/occ written to file <molden.input>


molecular dipole:
                 x           y           z       tot (Debye)
 q only:        0.002       0.001       0.052
   full:        0.254      -0.007       0.106       0.700
molecular quadrupole (traceless):
                xx          xy          yy          xz          yz          zz
 q only:       -2.441       0.153       1.357       0.083      -0.011       1.084
  q+dip:       -6.560       0.363       2.408       0.258       0.040       4.152
   full:       -9.088       0.462       2.431       0.199       0.115       6.658

           -------------------------------------------------
          |                Geometry Summary                 |
           -------------------------------------------------

      molecular mass/u    :       62.0496468
   center of mass at/Å    :        0.0234629      -0.0009116       0.0006160
  moments of inertia/u·Å² :        0.1465145E+02   0.9214252E+02   0.1063062E+03
rotational constants/cm⁻¹ :        0.1150578E+01   0.1829517E+00   0.1585762E+00

 * 1 selected distances

     #   Z        #   Z                                     value/Å
     2   7 N      4   6 C                                 1.2156585 (max)

 * 1 distinct bonds (by element types)

   Z      Z             #   av. dist./Å        max./Å        min./Å
Molecule has the following symmetry elements: (sigma) 
It seems to be the Cs point group
   6 C    7 N           1     1.2156585     1.2156585     1.2156585

           -------------------------------------------------
          |               Frequency Printout                |
           -------------------------------------------------
 projected vibrational frequencies (cm-1)
eigval :       -0.00    -0.00     0.00     0.00     0.00     0.00
eigval :     -179.94   106.49   307.28   453.05   677.38   791.05
eigval :     1031.40  1463.56  1751.40
 reduced masses (amu)
   1: 12.52   2: 12.05   3: 12.40   4: 12.23   5: 12.49   6: 12.03   7: 13.02   8: 12.21
   9: 12.39  10: 13.22  11: 12.46  12: 12.03  13: 12.12  14: 12.02  15: 12.98
 IR intensities (amu)
   1:  0.07   2:  0.05   3:  0.05   4:  0.05   5:  0.03   6:  0.06   7:  1.35   8:  0.46
   9:  0.07  10:  0.20  11:  0.18  12:  1.04  13:  0.20  14:  0.25  15:  0.30
 Raman intensities (amu)
   1:  0.00   2:  0.00   3:  0.00   4:  0.00   5:  0.00   6:  0.00   7:  0.00   8:  0.00
   9:  0.00  10:  0.00  11:  0.00  12:  0.00  13:  0.00  14:  0.00  15:  0.00
 output can be read by thermo (or use thermo option).
 writing <g98.out> molden fake output.
 recommended (thermochemical) frequency scaling factor: 1.0
           -------------------------------------------------
          |             Thermodynamic Functions             |
           -------------------------------------------------

cs  symmetry found (for desy threshold:  0.10E+00) used in thermo

          ...................................................
          :                      SETUP                      :
          :.................................................:
          :  # frequencies                           8      :
          :  # imaginary freq.                       1      :
          :  linear?                             false      :
          :  only rotor calc.                    false      :
          :  symmetry                               cs      :
          :  rotational number                       1      :
          :  scaling factor                  1.0000000      :
          :  rotor cutoff                   50.0000000 cm⁻¹ :
          :  imag. cutoff                  -20.0000000 cm⁻¹ :
          :.................................................:

    mode    ω/cm⁻¹     T·S(HO)/kcal·mol⁻¹    T·S(FR)/kcal·mol⁻¹   T·S(vib)
   ------------------------------------------------------------------------
       1    106.49    -0.00000 ( 95.37%)     0.00583 (  4.63%)     0.00027
   ------------------------------------------------------------------------

   temp. (K)  partition function   enthalpy   heat capacity  entropy
                                   cal/mol     cal/K/mol   cal/K/mol   J/K/mol
 298.15  VIB   3.89                 1027.751      6.956      6.120
         ROT  0.289E+05              888.752      2.981     23.396
         INT  0.112E+06             1916.503      9.937     29.516
         TR   0.473E+27             1481.254      4.968     38.278
         TOT                        3397.7568    14.9055    67.7938   283.6493

   temp. (K)  partition function   enthalpy   heat capacity  entropy
                                   cal/mol     cal/K/mol   cal/K/mol   J/K/mol
 120.00  VIB   1.43                  146.868      2.763      1.946
         ROT  0.739E+04              357.707      2.981     20.683
         INT  0.106E+05              504.575      5.744     22.629
         TR   0.121E+27              596.178      4.968     33.759
         TOT                        1100.7532    10.7125    56.3879   235.9268

   temp. (K)  partition function   enthalpy   heat capacity  entropy
                                   cal/mol     cal/K/mol   cal/K/mol   J/K/mol
 100.00  VIB   1.29                   96.668      2.258      1.496
         ROT  0.562E+04              298.089      2.981     20.140
         INT  0.727E+04              394.757      5.239     21.635
         TR   0.919E+26              496.815      4.968     32.853
         TOT                         891.5715    10.2068    54.4886   227.9803

   temp. (K)  partition function   enthalpy   heat capacity  entropy
                                   cal/mol     cal/K/mol   cal/K/mol   J/K/mol
  80.00  VIB   1.18                   56.501      1.760      1.055
         ROT  0.402E+04              238.471      2.981     19.474
         INT  0.474E+04              294.972      4.741     20.530
         TR   0.657E+26              397.452      4.968     31.745
         TOT                         692.4242     9.7094    52.2750   218.7187

   temp. (K)  partition function   enthalpy   heat capacity  entropy
                                   cal/mol     cal/K/mol   cal/K/mol   J/K/mol
  60.00  VIB   1.09                   26.268      1.258      0.628
         ROT  0.261E+04              178.853      2.981     18.617
         INT  0.283E+04              205.121      4.239     19.245
         TR   0.427E+26              298.089      4.968     30.317
         TOT                         503.2099     9.2072    49.5619   207.3668

   temp. (K)  partition function   enthalpy   heat capacity  entropy
                                   cal/mol     cal/K/mol   cal/K/mol   J/K/mol
  40.00  VIB   1.02                    6.768      0.665      0.239
         ROT  0.142E+04              119.236      2.981     17.408
         INT  0.145E+04              126.004      3.646     17.648
         TR   0.232E+26              198.726      4.968     28.303
         TOT                         324.7299     8.6141    45.9510   192.2590

   temp. (K)  partition function   enthalpy   heat capacity  entropy
                                   cal/mol     cal/K/mol   cal/K/mol   J/K/mol
  20.00  VIB   1.00                    0.143      0.055      0.012
         ROT   503.                   59.618      2.981     15.342
         INT   503.                   59.761      3.036     15.354
         TR   0.822E+25               99.363      4.968     24.861
         TOT                         159.1243     8.0040    40.2150   168.2597

   temp. (K)  partition function   enthalpy   heat capacity  entropy
                                   cal/mol     cal/K/mol   cal/K/mol   J/K/mol
  10.00  VIB   1.00                    0.000      0.000     -0.029
         ROT   178.                   29.809      2.981     13.276
         INT   178.                   29.809      2.981     13.247
         TR   0.290E+25               49.681      4.968     21.419
         TOT                          79.4905     7.9491    34.6666   145.0450

       T/K    H(0)-H(T)+PV         H(T)/Eh          T*S/Eh         G(T)/Eh
   ------------------------------------------------------------------------
    298.15    0.541467E-02    0.204087E-01    0.322110E-01   -0.118023E-01
    120.00    0.175416E-02    0.167482E-01    0.107832E-01    0.596502E-02
    100.00    0.142081E-02    0.164148E-01    0.868331E-02    0.773153E-02
     80.00    0.110345E-02    0.160975E-01    0.666444E-02    0.943303E-02
     60.00    0.801916E-03    0.157959E-01    0.473891E-02    0.110570E-01
     40.00    0.517490E-03    0.155115E-01    0.292910E-02    0.125824E-01
     20.00    0.253581E-03    0.152476E-01    0.128173E-02    0.139659E-01
     10.00    0.126676E-03    0.151207E-01    0.552447E-03    0.145683E-01 (used)
   ------------------------------------------------------------------------

         :::::::::::::::::::::::::::::::::::::::::::::::::::::
         ::                  THERMODYNAMIC                  ::
         :::::::::::::::::::::::::::::::::::::::::::::::::::::
         :: total free energy         -11.028758314835 Eh   ::
         ::.................................................::
         :: total energy              -11.043326573571 Eh   ::
         :: zero point energy           0.014994029924 Eh   ::
         :: G(RRHO) w/o ZPVE           -0.000425771189 Eh   ::
         :: G(RRHO) contrib.            0.014568258735 Eh   ::
         :::::::::::::::::::::::::::::::::::::::::::::::::::::
imag cut-off (cm-1) :    5.00
 found            1  significant imaginary frequency
 writing imag mode distorted coords to xtbhess.xyz
 for further optimization.

optimized geometry written to: xtbopt.xyz


           -------------------------------------------------
          | TOTAL ENERGY              -11.043326573571 Eh   |
          | TOTAL ENTHALPY            -11.028205867523 Eh   |
          | TOTAL FREE ENERGY         -11.028758314835 Eh   |
          | GRADIENT NORM               0.000688348392 Eh/α |
          | HOMO-LUMO GAP               1.265078364116 eV   |
           -------------------------------------------------

------------------------------------------------------------------------
 * finished run on 2020/05/12 at 11:44:04.988     
------------------------------------------------------------------------
 total:
 * wall-time:     0 d,  0 h,  0 min,  0.188 sec
 *  cpu-time:     0 d,  0 h,  0 min,  0.187 sec
 * ratio c/w:     0.999 speedup
 SCF:
 * wall-time:     0 d,  0 h,  0 min,  0.006 sec
 *  cpu-time:     0 d,  0 h,  0 min,  0.006 sec
 * ratio c/w:     1.000 speedup
 ANC optimizer:
 * wall-time:     0 d,  0 h,  0 min,  0.066 sec
 *  cpu-time:     0 d,  0 h,  0 min,  0.065 sec
 * ratio c/w:     0.999 speedup
 numerical hessian:
 * wall-time:     0 d,  0 h,  0 min,  0.102 sec
 *  cpu-time:     0 d,  0 h,  0 min,  0.101 sec
 * ratio c/w:     0.999 speedup

