3
 energy: -10.813974581591 gnorm: 0.318916512818 xtb: 6.2.2 (9d81278992624c895f80dd42a50cac0aa55982e2)
N        -0.00257300000000    0.53852400000000    0.00000000000000
O        -1.08441900000000   -0.27445000000000    0.00000000000000
O         1.08699200000000   -0.26407400000000    0.00000000000000
3
 energy: -10.884487824222 gnorm: 0.186604301978 xtb: 6.2.2 (9d81278992624c895f80dd42a50cac0aa55982e2)
N        -0.00186775483328    0.39091721675158    0.00000000000000
O        -1.11442263529962   -0.20078829398954    0.00000000000000
O         1.11629039013290   -0.19012892276204    0.00000000000000
3
 energy: -10.891899957841 gnorm: 0.209595419936 xtb: 6.2.2 (9d81278992624c895f80dd42a50cac0aa55982e2)
N        -0.00131172442519    0.27486535119319    0.00000000000000
O        -1.04249946425143   -0.14241792705926    0.00000000000000
O         1.04381118867663   -0.13244742413393    0.00000000000000
3
 energy: -10.905594951410 gnorm: 0.033910562282 xtb: 6.2.2 (9d81278992624c895f80dd42a50cac0aa55982e2)
N        -0.00138695021021    0.29021320796662    0.00000000000000
O        -1.11010378424308   -0.15041437449596    0.00000000000000
O         1.11149073445329   -0.13979883347066    0.00000000000000
3
 energy: -10.906079600039 gnorm: 0.007215610593 xtb: 6.2.2 (9d81278992624c895f80dd42a50cac0aa55982e2)
N        -0.00136113863364    0.28480380296560    0.00000000000000
O        -1.10270148376576   -0.14767422612701    0.00000000000000
O         1.10406262239940   -0.13712957683859    0.00000000000000
3
 energy: -10.906101673239 gnorm: 0.000318683776 xtb: 6.2.2 (9d81278992624c895f80dd42a50cac0aa55982e2)
N        -0.00135184996877    0.28294269178205    0.00000000000000
O        -1.10094996178209   -0.14673542627062    0.00000000000000
O         1.10230181175086   -0.13620726551142    0.00000000000000
3
 energy: -10.906101729577 gnorm: 0.000147823571 xtb: 6.2.2 (9d81278992624c895f80dd42a50cac0aa55982e2)
N        -0.00135209439285    0.28282962745397    0.00000000000000
O        -1.10118521383070   -0.14667972694256    0.00000000000000
O         1.10253730822355   -0.13614990051140    0.00000000000000
