$hessian                                                                        
        1.3144647669   0.0042099312  -0.0000045957  -0.6548036066  -0.2551483262
        0.0000027310  -0.6596611603   0.2509383951   0.0000018647
        0.0042099312   0.3672976068  -0.0000006557  -0.2601668950  -0.1860286516
        0.0000012328   0.2559569639  -0.1812689552  -0.0000005771
       -0.0000045957  -0.0000006557   0.0000000000   0.0000027398   0.0000012153
       -0.0000000000   0.0000018559  -0.0000005596  -0.0000000000
       -0.6548036066  -0.2601668950   0.0000027398   0.7705640301   0.2584957918
       -0.0000031409  -0.1157604234   0.0016711032   0.0000004012
       -0.2551483262  -0.1860286516   0.0000012153   0.2584957918   0.1429295073
       -0.0000011518  -0.0033474656   0.0430991443  -0.0000000635
        0.0000027310   0.0000012328  -0.0000000000  -0.0000031409  -0.0000011518
        0.0000000000   0.0000004099  -0.0000000811  -0.0000000000
       -0.6596611603   0.2559569639   0.0000018559  -0.1157604234  -0.0033474656
        0.0000004099   0.7754215838  -0.2526094983  -0.0000022659
        0.2509383951  -0.1812689552  -0.0000005596   0.0016711032   0.0430991443
       -0.0000000811  -0.2526094983   0.1381698108   0.0000006406
        0.0000018647  -0.0000005771  -0.0000000000   0.0000004012  -0.0000000635
       -0.0000000000  -0.0000022659   0.0000006406   0.0000000000
