[Molden Format]
[Title]
[Atoms] AU
N      1     7 -0.25522893823465E-02  0.53447049960010E+00 -0.92390803477125E-06
O      2     8 -0.20809397248500E+01 -0.27717359046765E+00  0.77476230728860E-05
O      3     8  0.20834920142323E+01 -0.25729690913245E+00 -0.68237150381148E-05
[GTO]
           1 0
 s           4   1.0000000000000000     
   63.594024466941008      -0.19234388414721629     
   10.951417231523665      -0.23478107924953728     
  0.87999310257376984       0.37593753901700888     
  0.33538715296521110       0.14982889271862770     
 p           4   1.0000000000000000     
   7.2965040481495080       0.97658666315667420     
   1.8918745450712575       0.90372226730345739     
  0.66694432110824120       0.47404958461536373     
  0.26552202674130870        7.1516067715011844E-002

           2 0
 s           4   1.0000000000000000     
   69.137961906196551      -0.20478756370077797     
   11.906129132707308      -0.24997023136827334     
  0.95670827744340703       0.40025880240639616     
  0.36462520496073686       0.15952206667693555     
 p           4   1.0000000000000000     
   8.2124193257781641        1.1321556799186829     
   2.1293576997098116        1.0476840782254817     
  0.75066448202360914       0.54956508217158984     
  0.29885246543283073        8.2908486592766617E-002

           3 0
 s           4   1.0000000000000000     
   69.137961906196551      -0.20478756370077797     
   11.906129132707308      -0.24997023136827334     
  0.95670827744340703       0.40025880240639616     
  0.36462520496073686       0.15952206667693555     
 p           4   1.0000000000000000     
   8.2124193257781641        1.1321556799186829     
   2.1293576997098116        1.0476840782254817     
  0.75066448202360914       0.54956508217158984     
  0.29885246543283073        8.2908486592766617E-002

[MO]
Sym=     1a
Ene=  -0.82318806883093754     
Spin= Alpha
Occup=     2.00000000
           1 -0.50436654459326113     
           2  -7.7625678800293950E-004
           3  0.16395310347853737     
           4  -2.8618744787653436E-007
           5 -0.32374113914609487     
           6 -0.22660714543307303     
           7  -4.4392045129507174E-002
           8   8.8655185020825136E-007
           9 -0.32372733196474668     
          10  0.22701631776640765     
          11  -4.2224214969902620E-002
          12  -7.3689729564309941E-007
Sym=     2a
Ene=  -0.80064802236962984     
Spin= Alpha
Occup=     2.00000000
           1   7.9330023165526793E-006
           2  0.42125042564369997     
           3   2.0079872377811218E-003
           4  -1.4332469713146896E-006
           5 -0.46953225680996696     
           6 -0.11573546129009100     
           7  -9.2323917930325280E-002
           8   6.0350202105399988E-007
           9  0.46954093720664913     
          10 -0.11661964248278847     
          11   9.1215779094285437E-002
          12   2.8569132221977444E-007
Sym=     3a
Ene=  -0.68685448128386539     
Spin= Alpha
Occup=     2.00000000
           1 -0.38276252694461194     
           2   1.3724990801498426E-003
           3 -0.28724960878059014     
           4   1.9779156899874430E-007
           5  0.49162163317953478     
           6 -0.23271377279454691     
           7 -0.26371175904069144     
           8   1.0479271612034936E-006
           9  0.49161832856060833     
          10  0.23521640580063030     
          11 -0.26147417372165682     
          12  -5.2289352463362672E-007
Sym=     4a
Ene=  -0.68439869525509156     
Spin= Alpha
Occup=     2.00000000
           1   1.7002231392771531E-007
           2  -2.2086615427393752E-006
           3  -1.0195559392167622E-006
           4 -0.64587926754856373     
           5  -2.5425583039866105E-007
           6  -1.3775862895649954E-006
           7  -6.4521001955262696E-007
           8 -0.42262121434738886     
           9  -2.1876154990172681E-007
          10  -1.6179063794794867E-006
          11  -6.0765372927914118E-007
          12 -0.42261707601281184     
Sym=     5a
Ene=  -0.65948951227623076     
Spin= Alpha
Occup=     2.00000000
           1   9.2095105185681300E-002
           2  -2.4254771695306908E-003
           3  0.50816343367983241     
           4  -8.9974265045369897E-007
           5  0.31828907433078268     
           6 -0.31458042584108525     
           7  0.32073305802162805     
           8   4.9312590129248749E-007
           9  0.31829120292470969     
          10  0.31150229583990635     
          11  0.32371799098999848     
          12  -1.6450520333207247E-006
Sym=     6a
Ene=  -0.63082959624800405     
Spin= Alpha
Occup=     2.00000000
           1   2.6199313367375271E-006
           2  0.31378424943100658     
           3   1.4997205111373609E-003
           4  -1.0572471166885603E-006
           5  0.43666392468291759     
           6 -0.41119454637675318     
           7 -0.29652094012851660     
           8   1.9537498691707843E-006
           9 -0.43666796650740247     
          10 -0.41400792427692468     
          11  0.29258513810523423     
          12   9.4232457590181868E-007
Sym=     7a
Ene=  -0.53431003892278872     
Spin= Alpha
Occup=     2.00000000
           1   1.8822257520734369E-009
           2   6.4365138498815135E-009
           3  -4.9837321185527775E-010
           4  -1.8704994378832803E-006
           5   4.5006834670958343E-008
           6   2.4300679039349295E-006
           7   1.2867493097730983E-006
           8  0.71129794690930914     
           9   3.8115324508163062E-008
          10  -2.4973923445931736E-006
          11  -1.2866583767155843E-006
          12 -0.71130112307445104     
Sym=     8a
Ene=  -0.52476128907909880     
Spin= Alpha
Occup=     2.00000000
           1  -4.9528310347903224E-007
           2   5.6690196260007569E-002
           3   2.6894097120984698E-004
           4  -1.9812752305107162E-007
           5   1.0199423659998264E-002
           6 -0.40376812400548812     
           7  0.59204600935943086     
           8   3.1620839977467708E-007
           9  -1.0200036197984557E-002
          10 -0.39810006678089122     
          11 -0.59587587326144431     
          12   2.4834797930253673E-006
Sym=     9a
Ene=  -0.37875320779510241     
Spin= Alpha
Occup=     1.00000000
           1  0.40747524062681095     
           2  -3.2431786446128000E-003
           3  0.67953637276657775     
           4  -1.1667106081149827E-006
           5  -9.5460365544246233E-003
           6  -9.3028905708647334E-003
           7 -0.59259779523875256     
           8   1.0547038942134491E-006
           9  -9.5464100554150128E-003
          10   1.4960506804824197E-002
          11 -0.59248184383225422     
          12   9.7043049543802047E-007
Sym=    10a
Ene=  -0.33056745002350796     
Spin= Alpha
Occup=     0.00000000
           1   7.5861772009172617E-009
           2  -2.8594486146078868E-006
           3  -1.4166011657379607E-006
           4 -0.81935087815406582     
           5   1.3065463597331360E-008
           6   2.0839790624193549E-006
           7   1.0370827728355078E-006
           8  0.59943206166840157     
           9  -1.2331850019047246E-008
          10   2.0835448297412804E-006
          11   1.0442055703748612E-006
          12  0.59943089465107846     
Sym=    11a
Ene=   0.14301912547203832     
Spin= Alpha
Occup=     0.00000000
           1   1.0153366730705176     
           2   2.8626479298630358E-003
           3 -0.59823928113636737     
           4   1.0332351400895131E-006
           5 -0.42108084277478375     
           6 -0.68143693464832478     
           7  -7.9138063544901785E-002
           8   2.5147430505882550E-006
           9 -0.42108627497603329     
          10  0.68216763579260320     
          11  -7.2634019858133406E-002
          12  -2.2518109603672986E-006
Sym=    12a
Ene=   0.56540931857853527     
Spin= Alpha
Occup=     0.00000000
           1  -8.5606196127721834E-006
           2   1.2701142084651782     
           3   6.0663510659911624E-003
           4  -4.4436510061702204E-006
           5  0.58884664113225238     
           6  0.59548021408030416     
           7  0.34916770591541912     
           8  -2.6871559054056482E-006
           9 -0.58883892788987557     
          10  0.59877738160295391     
          11 -0.34346510574470651     
          12  -1.4884719034192884E-006
