[Molden Format]
[Title]
[Atoms] AU
H      1     1  0.00000000000000E+00  0.00000000000000E+00  0.00000000000000E+00
[GTO]
           1 0
 s           3   1.0000000000000000     
   3.3702276975336001       0.27359110588908298     
  0.61389118221497996       0.26460540653860526     
  0.16614291148415999        8.2465947534082318E-002

[MO]
Sym=     1a
Ene=  -0.39348276391008219     
Spin= Alpha
Occup=     1.00000000
           1  0.99999999996710121     
