5
 energy: -9.537905687177 gnorm: 0.000144638320 xtb: 6.2.2 (9d81278992624c895f80dd42a50cac0aa55982e2)
C         0.70577588473967   -0.84476720099862    0.24011545425669
N         0.28735747654640    0.39748309953122   -0.24230009151785
C        -0.62728268547330   -0.71479863237555    0.64773353355883
C        -0.92799423138740   -0.18322777569122   -0.61202103314785
H         0.56214355558335    1.34531150953591   -0.03352686315156
