      -----------------------------------------------------------      
     |                   =====================                   |     
     |                           x T B                           |     
     |                   =====================                   |     
     |                         S. Grimme                         |     
     |          Mulliken Center for Theoretical Chemistry        |     
     |                    University of Bonn                     |     
      -----------------------------------------------------------      

   * xtb version 6.2.2 (9d81278992624c895f80dd42a50cac0aa55982e2) compiled by '@Darwin' on 04/03/2020

   xtb is free software: you can redistribute it and/or modify it under
   the terms of the GNU Lesser General Public License as published by
   the Free Software Foundation, either version 3 of the License, or
   (at your option) any later version.
   
   xtb is distributed in the hope that it will be useful,
   but WITHOUT ANY WARRANTY; without even the implied warranty of
   MERCHANTABILITY or FITNESS FOR A PARTICULAR PURPOSE.  See the
   GNU Lesser General Public License for more details.
   
   Cite this work as:
   * S. Grimme, C. Bannwarth, P. Shushkov, J. Chem. Theory Comput., 2017,
     13, 1989-2009. DOI: 10.1021/acs.jctc.7b00118
   * C. Bannwarth, S. Ehlert and S. Grimme., J. Chem. Theory Comput., 2019,
     15, 1652-1671. DOI: 10.1021/acs.jctc.8b01176
   * P. Pracht, E. Caldeweyher, S. Ehlert, S. Grimme, ChemRxiv, 2019, preprint.
     DOI: 10.26434/chemrxiv.8326202.v1
   
   for DFT-D4:
   * E. Caldeweyher, C. Bannwarth and S. Grimme, J. Chem. Phys., 2017,
     147, 034112. DOI: 10.1063/1.4993215
   * E. Caldeweyher, S. Ehlert, A. Hansen, H. Neugebauer, S. Spicher,
     C. Bannwarth and S. Grimme, J. Chem. Phys., 2019, 150, 154122.
     DOI: 10.1063/1.5090222
   
   for sTDA-xTB:
   * S. Grimme and C. Bannwarth, J. Chem. Phys., 2016, 145, 054103.
     DOI: 10.1063/1.4959605
   
   in the mass-spec context:
   * V. Asgeirsson, C. Bauer and S. Grimme, Chem. Sci., 2017, 8, 4879.
     DOI: 10.1039/c7sc00601b
   
   for metadynamics refer to:
   * S. Grimme, J. Chem. Theory Comput., 2019, 155, 2847-2862
     DOI: 10.1021/acs.jctc.9b00143
   
   with help from (in alphabetical order)
   C. Bannwarth, F. Bohle, G. Brandenburg, E. Caldeweyher, M. Checinski,
   S. Dohm, S. Ehlert, S. Ehrlich, F. März, H. Neugebauer, J. Pisarek,
   P. Pracht, P. Shushkov, and S. Spicher.
   
 * started run on 2020/05/12 at 11:44:57.240     

           -------------------------------------------------
          |                Calculation Setup                |
           -------------------------------------------------

          program call               : xtb --input H1C3N1_18_S_0.input H1C3N1_18_S_0.xyz --ohess --molden --namespace H1C3N1_18_S_0 output.out
          calculation namespace      : H1C3N1_18_S_0
          coordinate file            : H1C3N1_18_S_0.xyz
          number of atoms            :                     5
          number of electrons        :                    18
          charge                     :                     0
          spin                       :                   0.0
          first test random number   :      0.12006089554473

   ID    Z sym.   atoms
    1    6 C      1, 3, 4
    2    7 N      2
    3    1 H      5

           -------------------------------------------------
          |                 G F N 2 - x T B                 |
           -------------------------------------------------

        Reference                      10.1021/acs.jctc.8b01176
      * Hamiltonian:
        H0-scaling (s, p, d)           1.850000    2.230000    2.230000
        zeta-weighting                 0.500000
      * Dispersion:
        s8                             2.700000
        a1                             0.520000
        a2                             5.000000
        s9                             5.000000
      * Repulsion:
        kExp                           1.500000    1.000000
        rExp                           1.000000
      * Coulomb:
        alpha                          2.000000
        third order                    shell-resolved
        anisotropic                    true
        a3                             3.000000
        a5                             4.000000
        cn-shift                       1.200000
        cn-exp                         4.000000
        max-rad                        5.000000


          ...................................................
          :                      SETUP                      :
          :.................................................:
          :  # basis functions                  17          :
          :  # atomic orbitals                  17          :
          :  # shells                            9          :
          :  # electrons                        18          :
          :  max. iterations                   250          :
          :  Hamiltonian                  GFN2-xTB          :
          :  restarted?                      false          :
          :  GBSA solvation                  false          :
          :  PC potential                    false          :
          :  electronic temp.          300.0000000     K    :
          :  accuracy                    1.0000000          :
          :  -> integral cutoff          0.2500000E+02      :
          :  -> integral neglect         0.1000000E-07      :
          :  -> SCF convergence          0.1000000E-05 Eh   :
          :  -> wf. convergence          0.1000000E-03 e    :
          :  Broyden damping             0.4000000          :
          ...................................................

 iter      E             dE          RMSdq      gap      omega  full diag
   1     -9.0496372 -0.904964E+01  0.121E+01    1.81       0.0  T
   2     -6.4987488  0.255089E+01  0.190E+01    0.99       1.0  T
   3     -8.9034784 -0.240473E+01  0.948E+00    2.36       1.0  T
   4     -9.3377263 -0.434248E+00  0.443E+00    0.82       1.0  T
   5     -9.4428190 -0.105093E+00  0.280E+00    0.40       1.0  T
   6     -9.3946393  0.481797E-01  0.427E+00    0.26       1.0  T
   7     -8.8289333  0.565706E+00  0.832E+00    0.00       1.0  T
   8     -9.3957254 -0.566792E+00  0.233E+00    0.65       1.0  T
   9     -9.4447845 -0.490591E-01  0.907E-01    0.42       1.0  T
  10     -9.4433473  0.143720E-02  0.850E-01    0.44       1.0  T
  11     -9.4450103 -0.166301E-02  0.635E-01    0.41       1.0  T
  12     -9.4455692 -0.558854E-03  0.466E-01    0.39       1.0  T
  13     -9.4458437 -0.274513E-03  0.402E-01    0.39       1.0  T
  14     -9.4464066 -0.562910E-03  0.227E-01    0.36       1.0  T
  15     -9.4465376 -0.130982E-03  0.590E-02    0.33       1.0  T
  16     -9.4465299  0.765777E-05  0.741E-02    0.33       1.0  T
  17     -9.4465554 -0.254810E-04  0.491E-02    0.33       1.0  T
  18     -9.4465678 -0.123565E-04  0.219E-02    0.33       2.0  T
  19     -9.4465704 -0.264915E-05  0.869E-03    0.34       5.1  T
  20     -9.4465709 -0.434838E-06  0.316E-03    0.34      14.1  T
  21     -9.4465709 -0.434040E-07  0.138E-03    0.34      32.5  T
  22     -9.4465709 -0.894090E-08  0.129E-04    0.34     347.7  T
  23     -9.4465709 -0.172236E-10  0.296E-05    0.34    1511.5  T

   *** convergence criteria satisfied after 23 iterations ***

         #    Occupation            Energy/Eh            Energy/eV
      -------------------------------------------------------------
         1        2.0000           -0.7431279             -20.2215
       ...           ...                  ...                  ...
         3        2.0000           -0.6570600             -17.8795
         4        2.0000           -0.6233299             -16.9617
         5        2.0000           -0.5453169             -14.8388
         6        2.0000           -0.5117680             -13.9259
         7        2.0000           -0.4738614             -12.8944
         8        2.0000           -0.4214408             -11.4680
         9        1.9970           -0.4062801             -11.0554 (HOMO)
        10        0.0029           -0.3939076             -10.7188 (LUMO)
        11        0.0001           -0.3908358             -10.6352
        12                         -0.2825968              -7.6898
        13                         -0.1161486              -3.1606
        14                         -0.1004404              -2.7331
       ...                                ...                  ...
        17                          0.2146904               5.8420
      -------------------------------------------------------------
                  HL-Gap            0.0123725 Eh            0.3367 eV
             Fermi-level           -0.4001123 Eh          -10.8876 eV

 SCC (total)                   0 d,  0 h,  0 min,  0.004 sec
 SCC setup                      ...        0 min,  0.000 sec (  1.827%)
 Dispersion                     ...        0 min,  0.000 sec (  0.377%)
 integral evaluation            ...        0 min,  0.001 sec ( 21.999%)
 zeroth order Hamiltonian       ...        0 min,  0.000 sec (  0.489%)
 iterations                     ...        0 min,  0.002 sec ( 49.233%)
 molecular gradient             ...        0 min,  0.001 sec ( 23.055%)
 printout                       ...        0 min,  0.000 sec (  2.804%)

         :::::::::::::::::::::::::::::::::::::::::::::::::::::
         ::                     SUMMARY                     ::
         :::::::::::::::::::::::::::::::::::::::::::::::::::::
         :: total energy              -9.380984349419 Eh    ::
         :: gradient norm              0.162784423276 Eh/a0 ::
         :: HOMO-LUMO gap              0.336674044320 eV    ::
         ::.................................................::
         :: SCC energy                -9.446570915495 Eh    ::
         :: -> isotropic ES           -0.027794389575 Eh    ::
         :: -> anisotropic ES          0.004189590034 Eh    ::
         :: -> anisotropic XC          0.007061492500 Eh    ::
         :: -> dispersion             -0.002272981882 Eh    ::
         :: repulsion energy           0.065586505975 Eh    ::
         :: add. restraining           0.000000000000 Eh    ::
         :::::::::::::::::::::::::::::::::::::::::::::::::::::

      ----------------------------------------------------------- 
     |                   =====================                   |
     |                        A N C O P T                        |
     |                   =====================                   |
     |               Approximate Normal Coordinate               |
     |                Rational Function Optimizer                |
      ----------------------------------------------------------- 

          ...................................................
          :                      SETUP                      :
          :.................................................:
          :   optimization level            normal          :
          :   max. optcycles                   200          :
          :   ANC micro-cycles                  20          :
          :   degrees of freedom                 9          :
          :.................................................:
          :   RF solver                   davidson          :
          :   write xtbopt.log                true          :
          :   linear?                        false          :
          :   energy convergence         0.5000000E-05 Eh   :
          :   grad. convergence          0.1000000E-02 Eh/α :
          :   maximium RF displ.         1.0000000          :
          :   Hlow (freq-cutoff)         0.1000000E-01      :
          :   Hmax (freq-cutoff)         5.0000000          :
          :   S6 in model hess.         20.0000000          :
          ...................................................

generating ANC from model Hessian ...
Using Lindh-Hessian (1995)
 Shifting diagonal of input Hessian by    0.0000000000000000     
 Lowest  eigenvalues of input Hessian
   -0.000000   -0.000000    0.000000    0.000000    0.000000    0.000000
    0.078504    0.105113    0.149330    0.202755    0.459834    0.848321
    0.968184    1.408979    1.645750
 Highest eigenvalues
    0.202755    0.459834    0.848321    0.968184    1.408979    1.645750


........................................................................
.............................. CYCLE    1 ..............................
........................................................................
   1     -9.4465709 -0.944657E+01  0.115E-05    0.34       0.0  T
   2     -9.4465709  0.526690E-11  0.283E-05    0.34    1580.5  T
   3     -9.4465709 -0.116884E-11  0.255E-05    0.34    1753.1  T
     SCC iter.                  ...        0 min,  0.000 sec
     gradient                   ...        0 min,  0.001 sec
 * total energy  :    -9.3809843 Eh     change       -0.1438671E-09 Eh
   gradient norm :     0.1627848 Eh/α   predicted     0.0000000E+00 (-100.00%)
   displ. norm   :     0.3379859 α      lambda       -0.4106596E-01
   maximum displ.:     0.2175291 α      in ANC's #3, #4, #7, ...

........................................................................
.............................. CYCLE    2 ..............................
........................................................................
   1     -9.5014053 -0.950141E+01  0.174E+00    0.52       0.0  T
   2     -9.5012685  0.136747E-03  0.102E+00    0.54       1.0  T
   3     -9.3460653  0.155203E+00  0.411E+00    0.08       1.0  T
   4     -9.5014964 -0.155431E+00  0.293E-01    0.55       1.0  T
   5     -9.5020489 -0.552571E-03  0.122E-01    0.50       1.0  T
   6     -9.5020391  0.989649E-05  0.995E-02    0.50       1.0  T
   7     -9.5020536 -0.145789E-04  0.291E-02    0.49       1.5  T
   8     -9.5020557 -0.203966E-05  0.175E-02    0.49       2.6  T
   9     -9.5020562 -0.518644E-06  0.138E-02    0.49       3.2  T
  10     -9.5020566 -0.448877E-06  0.946E-03    0.49       4.7  T
  11     -9.5020570 -0.346560E-06  0.489E-03    0.49       9.1  T
  12     -9.5020571 -0.126793E-06  0.813E-04    0.49      55.0  T
  13     -9.5020571 -0.225356E-08  0.466E-04    0.49      96.0  T
     SCC iter.                  ...        0 min,  0.001 sec
     gradient                   ...        0 min,  0.001 sec
 * total energy  :    -9.4179766 Eh     change       -0.3699225E-01 Eh
   gradient norm :     0.1225207 Eh/α   predicted    -0.2287856E-01 ( -38.15%)
   displ. norm   :     0.6873060 α      lambda       -0.6566150E-01
   maximum displ.:     0.4873989 α      in ANC's #3, #4, #7, ...

........................................................................
.............................. CYCLE    3 ..............................
........................................................................
   1     -9.5961781 -0.959618E+01  0.339E+00    0.96       0.0  T
   2     -9.5971765 -0.998370E-03  0.186E+00    1.01       1.0  T
   3     -9.5949629  0.221361E-02  0.713E-01    0.74       1.0  T
   4     -9.5977362 -0.277334E-02  0.177E-01    0.92       1.0  T
   5     -9.5977448 -0.859717E-05  0.507E-02    0.92       1.0  T
   6     -9.5977491 -0.428619E-05  0.183E-02    0.92       2.4  T
   7     -9.5977492 -0.127678E-06  0.435E-03    0.92      10.3  T
   8     -9.5977493 -0.273089E-07  0.147E-03    0.92      30.4  T
   9     -9.5977493 -0.534824E-09  0.220E-04    0.92     203.4  T
  10     -9.5977493  0.377298E-11  0.154E-04    0.92     290.6  T
     SCC iter.                  ...        0 min,  0.001 sec
     gradient                   ...        0 min,  0.001 sec
 * total energy  :    -9.4532939 Eh     change       -0.3531734E-01 Eh
   gradient norm :     0.1390424 Eh/α   predicted    -0.4833964E-01 (  36.87%)
   displ. norm   :     0.3960196 α      lambda       -0.2561573E-01
   maximum displ.:     0.3804762 α      in ANC's #3, #4, #9, ...

........................................................................
.............................. CYCLE    4 ..............................
........................................................................
   1     -9.5639968 -0.956400E+01  0.339E+00    0.21       0.0  T
   2     -9.5733356 -0.933888E-02  0.150E+00    0.37       1.0  T
   3     -9.5751980 -0.186241E-02  0.958E-01    0.38       1.0  T
   4     -9.5747433  0.454777E-03  0.489E-01    0.20       1.0  T
   5     -9.5764698 -0.172650E-02  0.808E-02    0.35       1.0  T
   6     -9.5764828 -0.130775E-04  0.323E-02    0.33       1.4  T
   7     -9.5764844 -0.156098E-05  0.784E-03    0.33       5.7  T
   8     -9.5764844 -0.297477E-07  0.613E-03    0.33       7.3  T
   9     -9.5764846 -0.151977E-06  0.264E-03    0.33      16.9  T
  10     -9.5764846 -0.220507E-07  0.378E-04    0.33     118.3  T
  11     -9.5764846 -0.640501E-10  0.831E-05    0.33     538.0  T
     SCC iter.                  ...        0 min,  0.001 sec
     gradient                   ...        0 min,  0.001 sec
 * total energy  :    -9.4649520 Eh     change       -0.1165802E-01 Eh
   gradient norm :     0.0616342 Eh/α   predicted    -0.1481655E-01 (  27.09%)
   displ. norm   :     0.0712624 α      lambda       -0.3804896E-02
   maximum displ.:     0.0524812 α      in ANC's #7, #3, #5, ...

........................................................................
.............................. CYCLE    5 ..............................
........................................................................
   1     -9.5714097 -0.957141E+01  0.569E-01    0.47       0.0  T
   2     -9.5715150 -0.105351E-03  0.333E-01    0.54       1.0  T
   3     -9.5716259 -0.110873E-03  0.243E-01    0.46       1.0  T
   4     -9.5717454 -0.119480E-03  0.529E-02    0.52       1.0  T
   5     -9.5717580 -0.126241E-04  0.201E-02    0.50       2.2  T
   6     -9.5717576  0.470719E-06  0.114E-02    0.50       3.9  T
   7     -9.5717582 -0.670791E-06  0.335E-03    0.50      13.3  T
   8     -9.5717582 -0.895061E-08  0.812E-04    0.50      55.1  T
   9     -9.5717582 -0.437339E-09  0.189E-04    0.50     236.3  T
     SCC iter.                  ...        0 min,  0.001 sec
     gradient                   ...        0 min,  0.001 sec
 * total energy  :    -9.4668513 Eh     change       -0.1899382E-02 Eh
   gradient norm :     0.0072824 Eh/α   predicted    -0.1912111E-02 (   0.67%)
   displ. norm   :     0.0262739 α      lambda       -0.1166589E-03
   maximum displ.:     0.0217773 α      in ANC's #4, #5, #3, ...

........................................................................
.............................. CYCLE    6 ..............................
........................................................................
   1     -9.5731519 -0.957315E+01  0.194E-01    0.50       0.0  T
   2     -9.5731543 -0.246041E-05  0.102E-01    0.53       1.0  T
   3     -9.5731240  0.303449E-04  0.957E-02    0.50       1.0  T
   4     -9.5731645 -0.405174E-04  0.210E-02    0.51       2.1  T
   5     -9.5731661 -0.158465E-05  0.894E-03    0.51       5.0  T
   6     -9.5731663 -0.182939E-06  0.510E-03    0.51       8.8  T
   7     -9.5731663 -0.401861E-07  0.769E-04    0.51      58.1  T
   8     -9.5731663 -0.135095E-09  0.131E-04    0.51     341.9  T
     SCC iter.                  ...        0 min,  0.001 sec
     gradient                   ...        0 min,  0.001 sec
 * total energy  :    -9.4669387 Eh     change       -0.8736937E-04 Eh
   gradient norm :     0.0090306 Eh/α   predicted    -0.5836843E-04 ( -33.19%)
   displ. norm   :     0.4248432 α      lambda       -0.1736324E-02
   maximum displ.:     0.3153783 α      in ANC's #4, #1, #5, ...

........................................................................
.............................. CYCLE    7 ..............................
........................................................................
   1     -9.5598046 -0.955980E+01  0.486E+00    1.13       0.0  T
   2     -9.5436416  0.161629E-01  0.302E+00    1.67       1.0  T
   3     -9.5808215 -0.371798E-01  0.235E+00    1.23       1.0  T
   4     -9.5916278 -0.108063E-01  0.105E+00    1.25       1.0  T
   5     -9.5979724 -0.634466E-02  0.212E-01    1.35       1.0  T
   6     -9.5979801 -0.769962E-05  0.103E-01    1.35       1.0  T
   7     -9.5979850 -0.491666E-05  0.292E-02    1.35       1.5  T
   8     -9.5979866 -0.154862E-05  0.112E-02    1.35       4.0  T
   9     -9.5979866 -0.445724E-07  0.607E-03    1.35       7.4  T
  10     -9.5979868 -0.127328E-06  0.931E-04    1.35      48.0  T
  11     -9.5979868 -0.195073E-08  0.132E-04    1.35     339.0  T
     SCC iter.                  ...        0 min,  0.001 sec
     gradient                   ...        0 min,  0.001 sec
 * total energy  :    -9.4714511 Eh     change       -0.4512371E-02 Eh
   gradient norm :     0.1727801 Eh/α   predicted    -0.1024861E-02 ( -77.29%)
   displ. norm   :     0.6930285 α      lambda       -0.4408301E-02
   maximum displ.:     0.4946511 α      in ANC's #4, #1, #5, ...

........................................................................
.............................. CYCLE    8 ..............................
........................................................................
   1     -9.5937202 -0.959372E+01  0.510E+00    1.96       0.0  T
   2     -9.5752793  0.184409E-01  0.353E+00    1.66       1.0  T
   3     -9.5900449 -0.147657E-01  0.292E+00    1.98       1.0  T
   4     -9.6036601 -0.136152E-01  0.172E+00    1.88       1.0  T
   5     -9.6218846 -0.182244E-01  0.183E-01    1.86       1.0  T
   6     -9.6218882 -0.364701E-05  0.918E-02    1.85       1.0  T
   7     -9.6218891 -0.886570E-06  0.337E-02    1.85       1.3  T
   8     -9.6218922 -0.306674E-05  0.760E-03    1.85       5.9  T
   9     -9.6218923 -0.112062E-06  0.152E-03    1.85      29.4  T
  10     -9.6218923 -0.270145E-08  0.523E-04    1.85      85.5  T
  11     -9.6218923 -0.151434E-10  0.149E-04    1.85     299.4  T
     SCC iter.                  ...        0 min,  0.001 sec
     gradient                   ...        0 min,  0.001 sec
 * total energy  :    -9.4248578 Eh     change        0.4659326E-01 Eh
   gradient norm :     0.4592971 Eh/α   predicted    -0.3262838E-02 (-107.00%)
   displ. norm   :     0.3836156 α      lambda       -0.1078758E+00
   maximum displ.:     0.2310574 α      in ANC's #3, #4, #1, ...

........................................................................
.............................. CYCLE    9 ..............................
........................................................................
   1     -9.5936273 -0.959363E+01  0.343E+00    2.25       0.0  T
   2     -9.5742847  0.193426E-01  0.287E+00    2.28       1.0  T
   3     -9.6019729 -0.276882E-01  0.171E+00    2.23       1.0  T
   4     -9.6108471 -0.887416E-02  0.447E-01    2.30       1.0  T
   5     -9.6115445 -0.697448E-03  0.180E-01    2.27       1.0  T
   6     -9.6117186 -0.174095E-03  0.729E-02    2.28       1.0  T
   7     -9.6117221 -0.348194E-05  0.152E-02    2.28       2.9  T
   8     -9.6117228 -0.666613E-06  0.589E-03    2.28       7.6  T
   9     -9.6117228 -0.129746E-07  0.101E-03    2.28      44.2  T
  10     -9.6117228 -0.102152E-08  0.214E-04    2.28     209.5  T
  11     -9.6117228 -0.101018E-09  0.104E-04    2.28     431.6  T
     SCC iter.                  ...        0 min,  0.001 sec
     gradient                   ...        0 min,  0.001 sec
 * total energy  :    -9.4784358 Eh     change       -0.5357800E-01 Eh
   gradient norm :     0.2371707 Eh/α   predicted    -0.6187544E-01 (  15.49%)
   displ. norm   :     0.2670840 α      lambda       -0.2137836E-01
   maximum displ.:     0.2360074 α      in ANC's #4, #1, #3, ...

........................................................................
.............................. CYCLE   10 ..............................
........................................................................
   1     -9.6120551 -0.961206E+01  0.117E+00    1.85       0.0  T
   2     -9.6122743 -0.219212E-03  0.661E-01    1.90       1.0  T
   3     -9.6113478  0.926489E-03  0.551E-01    1.82       1.0  T
   4     -9.6125193 -0.117146E-02  0.229E-01    1.89       1.0  T
   5     -9.6127559 -0.236579E-03  0.643E-02    1.88       1.0  T
   6     -9.6127611 -0.524943E-05  0.215E-02    1.87       2.1  T
   7     -9.6127638 -0.265113E-05  0.567E-03    1.87       7.9  T
   8     -9.6127639 -0.861188E-07  0.295E-03    1.87      15.2  T
   9     -9.6127639 -0.972734E-08  0.328E-04    1.87     136.2  T
  10     -9.6127639 -0.101609E-09  0.903E-05    1.87     495.5  T
     SCC iter.                  ...        0 min,  0.001 sec
     gradient                   ...        0 min,  0.001 sec
 * total energy  :    -9.4913508 Eh     change       -0.1291498E-01 Eh
   gradient norm :     0.1330422 Eh/α   predicted    -0.1145168E-01 ( -11.33%)
   displ. norm   :     0.2530916 α      lambda       -0.2460789E-01
   maximum displ.:     0.1473286 α      in ANC's #1, #4, #3, ...

........................................................................
.............................. CYCLE   11 ..............................
........................................................................
   1     -9.6283409 -0.962834E+01  0.151E+00    2.36       0.0  T
   2     -9.6269628  0.137813E-02  0.103E+00    2.42       1.0  T
   3     -9.6274701 -0.507357E-03  0.836E-01    2.31       1.0  T
   4     -9.6304662 -0.299606E-02  0.262E-01    2.39       1.0  T
   5     -9.6307455 -0.279323E-03  0.114E-01    2.36       1.0  T
   6     -9.6308292 -0.836595E-04  0.462E-02    2.37       1.0  T
   7     -9.6308342 -0.508145E-05  0.665E-03    2.36       6.7  T
   8     -9.6308343 -0.563785E-07  0.354E-03    2.36      12.6  T
   9     -9.6308343 -0.236698E-07  0.502E-04    2.36      89.0  T
  10     -9.6308343 -0.171596E-09  0.763E-05    2.36     586.0  T
     SCC iter.                  ...        0 min,  0.001 sec
     gradient                   ...        0 min,  0.001 sec
 * total energy  :    -9.5109710 Eh     change       -0.1962020E-01 Eh
   gradient norm :     0.1008877 Eh/α   predicted    -0.1309209E-01 ( -33.27%)
   displ. norm   :     0.3825275 α      lambda       -0.3136079E-01
   maximum displ.:     0.3144284 α      in ANC's #1, #4, #9, ...

........................................................................
.............................. CYCLE   12 ..............................
........................................................................
   1     -9.6392117 -0.963921E+01  0.271E+00    3.17       0.0  T
   2     -9.6307384  0.847330E-02  0.182E+00    3.33       1.0  T
   3     -9.6193956  0.113428E-01  0.201E+00    2.99       1.0  T
   4     -9.6430667 -0.236710E-01  0.440E-01    3.25       1.0  T
   5     -9.6441437 -0.107702E-02  0.127E-01    3.24       1.0  T
   6     -9.6441870 -0.432817E-04  0.821E-02    3.24       1.0  T
   7     -9.6442035 -0.164864E-04  0.953E-03    3.23       4.7  T
   8     -9.6442035 -0.385064E-08  0.688E-03    3.23       6.5  T
   9     -9.6442036 -0.121974E-06  0.924E-04    3.23      48.4  T
  10     -9.6442036 -0.721457E-09  0.151E-04    3.23     295.9  T
     SCC iter.                  ...        0 min,  0.001 sec
     gradient                   ...        0 min,  0.001 sec
 * total energy  :    -9.5274584 Eh     change       -0.1648743E-01 Eh
   gradient norm :     0.0847105 Eh/α   predicted    -0.1797487E-01 (   9.02%)
   displ. norm   :     0.1154832 α      lambda       -0.8587675E-02
   maximum displ.:     0.0760352 α      in ANC's #3, #1, #9, ...

........................................................................
.............................. CYCLE   13 ..............................
........................................................................
   1     -9.6473368 -0.964734E+01  0.836E-01    3.34       0.0  T
   2     -9.6472709  0.658579E-04  0.616E-01    3.33       1.0  T
   3     -9.6482977 -0.102677E-02  0.332E-01    3.36       1.0  T
   4     -9.6484794 -0.181687E-03  0.208E-01    3.34       1.0  T
   5     -9.6486002 -0.120817E-03  0.108E-01    3.36       1.0  T
   6     -9.6486898 -0.896025E-04  0.238E-02    3.35       1.9  T
   7     -9.6486910 -0.117392E-05  0.399E-03    3.35      11.2  T
   8     -9.6486910 -0.316400E-07  0.188E-03    3.35      23.8  T
   9     -9.6486910 -0.687029E-08  0.222E-04    3.35     201.8  T
  10     -9.6486910 -0.416005E-10  0.438E-05    3.35    1021.1  T
     SCC iter.                  ...        0 min,  0.001 sec
     gradient                   ...        0 min,  0.001 sec
 * total energy  :    -9.5339597 Eh     change       -0.6501239E-02 Eh
   gradient norm :     0.0425684 Eh/α   predicted    -0.4351102E-02 ( -33.07%)
   displ. norm   :     0.1886552 α      lambda       -0.6250949E-02
   maximum displ.:     0.1035610 α      in ANC's #3, #4, #1, ...

........................................................................
.............................. CYCLE   14 ..............................
........................................................................
   1     -9.6550391 -0.965504E+01  0.953E-01    3.31       0.0  T
   2     -9.6545854  0.453723E-03  0.739E-01    3.37       1.0  T
   3     -9.6557167 -0.113127E-02  0.424E-01    3.31       1.0  T
   4     -9.6558592 -0.142489E-03  0.314E-01    3.37       1.0  T
   5     -9.6564350 -0.575865E-03  0.920E-02    3.33       1.0  T
   6     -9.6564818 -0.467570E-04  0.258E-02    3.34       1.7  T
   7     -9.6564823 -0.472577E-06  0.301E-03    3.34      14.9  T
   8     -9.6564823 -0.426792E-08  0.156E-03    3.34      28.7  T
   9     -9.6564823 -0.328548E-08  0.286E-04    3.34     156.6  T
  10     -9.6564823 -0.794920E-10  0.490E-05    3.34     912.3  T
     SCC iter.                  ...        0 min,  0.001 sec
     gradient                   ...        0 min,  0.001 sec
 * total energy  :    -9.5372054 Eh     change       -0.3245684E-02 Eh
   gradient norm :     0.0207743 Eh/α   predicted    -0.3236709E-02 (  -0.28%)
   displ. norm   :     0.0557973 α      lambda       -0.6924396E-03
   maximum displ.:     0.0419570 α      in ANC's #4, #5, #8, ...

........................................................................
.............................. CYCLE   15 ..............................
........................................................................
   1     -9.6558750 -0.965588E+01  0.329E-01    3.35       0.0  T
   2     -9.6556786  0.196469E-03  0.221E-01    3.36       1.0  T
   3     -9.6556019  0.766768E-04  0.262E-01    3.34       1.0  T
   4     -9.6559680 -0.366059E-03  0.213E-02    3.36       2.1  T
   5     -9.6559689 -0.904744E-06  0.114E-02    3.36       3.9  T
   6     -9.6559691 -0.274030E-06  0.820E-03    3.36       5.5  T
   7     -9.6559693 -0.187963E-06  0.100E-03    3.36      44.5  T
   8     -9.6559693 -0.675341E-09  0.398E-04    3.36     112.3  T
   9     -9.6559693 -0.673843E-10  0.768E-05    3.36     582.6  T
     SCC iter.                  ...        0 min,  0.001 sec
     gradient                   ...        0 min,  0.001 sec
 * total energy  :    -9.5376827 Eh     change       -0.4772975E-03 Eh
   gradient norm :     0.0103730 Eh/α   predicted    -0.3472987E-03 ( -27.24%)
   displ. norm   :     0.0419758 α      lambda       -0.2758169E-03
   maximum displ.:     0.0320907 α      in ANC's #4, #7, #5, ...

........................................................................
.............................. CYCLE   16 ..............................
........................................................................
   1     -9.6558655 -0.965587E+01  0.242E-01    3.30       0.0  T
   2     -9.6557594  0.106140E-03  0.162E-01    3.29       1.0  T
   3     -9.6557201  0.393075E-04  0.192E-01    3.30       1.0  T
   4     -9.6559118 -0.191700E-03  0.287E-02    3.30       1.6  T
   5     -9.6559162 -0.440650E-05  0.864E-03    3.30       5.2  T
   6     -9.6559163 -0.111848E-06  0.138E-03    3.30      32.5  T
   7     -9.6559163 -0.222484E-08  0.646E-04    3.30      69.2  T
   8     -9.6559163 -0.360815E-09  0.252E-04    3.30     177.5  T
     SCC iter.                  ...        0 min,  0.001 sec
     gradient                   ...        0 min,  0.001 sec
 * total energy  :    -9.5378415 Eh     change       -0.1588837E-03 Eh
   gradient norm :     0.0050937 Eh/α   predicted    -0.1381496E-03 ( -13.05%)
   displ. norm   :     0.0121927 α      lambda       -0.4569319E-04
   maximum displ.:     0.0076680 α      in ANC's #3, #1, #7, ...

........................................................................
.............................. CYCLE   17 ..............................
........................................................................
   1     -9.6558517 -0.965585E+01  0.841E-02    3.26       0.0  T
   2     -9.6558491  0.254587E-05  0.475E-02    3.26       1.0  T
   3     -9.6558216  0.275534E-04  0.671E-02    3.26       1.0  T
   4     -9.6558531 -0.315450E-04  0.286E-03    3.26      15.7  T
   5     -9.6558531  0.777335E-08  0.215E-03    3.26      20.8  T
   6     -9.6558531 -0.189698E-07  0.634E-04    3.26      70.5  T
   7     -9.6558531 -0.136857E-08  0.165E-04    3.26     270.7  T
     SCC iter.                  ...        0 min,  0.001 sec
     gradient                   ...        0 min,  0.001 sec
 * total energy  :    -9.5378752 Eh     change       -0.3361965E-04 Eh
   gradient norm :     0.0035863 Eh/α   predicted    -0.2284944E-04 ( -32.04%)
   displ. norm   :     0.0129005 α      lambda       -0.3104677E-04
   maximum displ.:     0.0067078 α      in ANC's #3, #1, #4, ...

........................................................................
.............................. CYCLE   18 ..............................
........................................................................
   1     -9.6558609 -0.965586E+01  0.820E-02    3.23       0.0  T
   2     -9.6558600  0.882049E-06  0.472E-02    3.23       1.0  T
   3     -9.6558446  0.154660E-04  0.510E-02    3.23       1.0  T
   4     -9.6558614 -0.167920E-04  0.122E-02    3.23       3.7  T
   5     -9.6558623 -0.973836E-06  0.260E-03    3.23      17.2  T
   6     -9.6558623 -0.195406E-08  0.143E-03    3.23      31.2  T
   7     -9.6558623 -0.498710E-08  0.303E-04    3.23     147.7  T
   8     -9.6558623 -0.158501E-09  0.808E-05    3.23     553.6  T
     SCC iter.                  ...        0 min,  0.001 sec
     gradient                   ...        0 min,  0.001 sec
 * total energy  :    -9.5378939 Eh     change       -0.1873247E-04 Eh
   gradient norm :     0.0020535 Eh/α   predicted    -0.1552646E-04 ( -17.11%)
   displ. norm   :     0.0046377 α      lambda       -0.6907015E-05
   maximum displ.:     0.0025482 α      in ANC's #2, #6, #9, ...

........................................................................
.............................. CYCLE   19 ..............................
........................................................................
   1     -9.6559045 -0.965590E+01  0.287E-02    3.23       0.0  T
   2     -9.6559045  0.548666E-07  0.168E-02    3.23       2.7  T
   3     -9.6559033  0.116356E-05  0.163E-02    3.23       2.7  T
   4     -9.6559047 -0.135642E-05  0.505E-03    3.23       8.9  T
   5     -9.6559048 -0.161831E-06  0.129E-03    3.23      34.8  T
   6     -9.6559048 -0.695134E-08  0.869E-04    3.23      51.4  T
   7     -9.6559048 -0.181938E-08  0.101E-04    3.23     440.9  T
     SCC iter.                  ...        0 min,  0.001 sec
     gradient                   ...        0 min,  0.001 sec
 * total energy  :    -9.5378993 Eh     change       -0.5382931E-05 Eh
   gradient norm :     0.0013898 Eh/α   predicted    -0.3453718E-05 ( -35.84%)
   displ. norm   :     0.0126385 α      lambda       -0.8860625E-05
   maximum displ.:     0.0078772 α      in ANC's #2, #6, #9, ...

........................................................................
.............................. CYCLE   20 ..............................
........................................................................
   1     -9.6559788 -0.965598E+01  0.615E-02    3.24       0.0  T
   2     -9.6559792 -0.401118E-06  0.346E-02    3.24       1.3  T
   3     -9.6559752  0.397985E-05  0.280E-02    3.24       1.6  T
   4     -9.6559792 -0.399601E-05  0.100E-02    3.24       4.5  T
   5     -9.6559798 -0.564355E-06  0.393E-03    3.24      11.4  T
   6     -9.6559799 -0.102903E-06  0.159E-03    3.24      28.1  T
   7     -9.6559799 -0.454045E-08  0.188E-04    3.24     238.5  T
   8     -9.6559799 -0.365805E-10  0.366E-05    3.24    1222.8  T
     SCC iter.                  ...        0 min,  0.001 sec
     gradient                   ...        0 min,  0.001 sec
 * total energy  :    -9.5379048 Eh     change       -0.5479588E-05 Eh
   gradient norm :     0.0006783 Eh/α   predicted    -0.4429212E-05 ( -19.17%)
   displ. norm   :     0.0031160 α      lambda       -0.1143997E-05
   maximum displ.:     0.0022587 α      in ANC's #4, #6, #9, ...
 * RMSD in coord.:     0.7843941 α      energy gain  -0.1569204E+00 Eh

generating ANC from model Hessian ...
Using Lindh-Hessian (1995)
 Shifting diagonal of input Hessian by    0.0000000000000000     
 Lowest  eigenvalues of input Hessian
   -0.000000   -0.000000    0.000000    0.000000    0.000000    0.000000
    0.130174    0.260906    0.284248    0.544691    0.727648    1.099399
    1.349507    1.545795    1.921983
 Highest eigenvalues
    0.544691    0.727648    1.099399    1.349507    1.545795    1.921983


........................................................................
.............................. CYCLE   21 ..............................
........................................................................
   1     -9.6559452 -0.965595E+01  0.193E-02    3.24       0.0  T
   2     -9.6559452  0.926544E-07  0.120E-02    3.24       3.7  T
   3     -9.6559449  0.233015E-06  0.109E-02    3.24       4.1  T
   4     -9.6559454 -0.453621E-06  0.391E-03    3.24      11.4  T
   5     -9.6559455 -0.104863E-06  0.688E-04    3.24      65.0  T
   6     -9.6559455  0.800860E-09  0.609E-04    3.24      73.5  T
     SCC iter.                  ...        0 min,  0.000 sec
     gradient                   ...        0 min,  0.001 sec
 * total energy  :    -9.5379057 Eh     change       -0.9335258E-06 Eh
   gradient norm :     0.0001430 Eh/α   predicted     0.0000000E+00 (-100.00%)
   displ. norm   :     0.0006246 α      lambda       -0.4463637E-07
   maximum displ.:     0.0005164 α      in ANC's #1, #2, #4, ...

   *** GEOMETRY OPTIMIZATION CONVERGED AFTER 21 ITERATIONS ***

------------------------------------------------------------------------
 total energy gain   :        -0.1569213 Eh      -98.4696 kcal/mol
 total RMSD          :         0.7843941 a0        0.4151 Å
 total power (kW/mol):       -19.6189006 (step)-6778.3830 (real)
------------------------------------------------------------------------

 ANCopt (total)                0 d,  0 h,  0 min,  0.061 sec
 optimizer setup                ...        0 min,  0.000 sec (  0.118%)
 model hessian                  ...        0 min,  0.000 sec (  0.255%)
 ANC generation                 ...        0 min,  0.000 sec (  0.187%)
 coordinate transformation      ...        0 min,  0.000 sec (  0.075%)
 single point calculation       ...        0 min,  0.059 sec ( 96.813%)
 optimization log               ...        0 min,  0.001 sec (  0.832%)
 hessian update                 ...        0 min,  0.000 sec (  0.075%)
 rational function              ...        0 min,  0.000 sec (  0.766%)

================
 final structure:
================
5
 xtb: 6.2.2 (9d81278992624c895f80dd42a50cac0aa55982e2)
C         0.70577946975536   -0.84476392463669    0.24011644350244
N         0.28735624111094    0.39748502701709   -0.24229839471494
C        -0.62728120380056   -0.71480304731359    0.64773009637263
C        -0.92799113563421   -0.18323156647100   -0.61202459225208
H         0.56213662856846    1.34531451140419   -0.03352255290805

 Bond Distances (Angstroems)
 ---------------------------
C1-N2=1.3968         C1-C3=1.4000         N2-C1=1.3968         N2-C3=1.6929         N2-C4=1.3968         N2-H5=1.0087         
C3-C1=1.4000         C3-N2=1.6929         C3-C4=1.4000         C4-N2=1.3968         C4-C3=1.4000         H5-N2=1.0087         
 C  C  Rav=1.4000 sigma=0.0000  Rmin=1.4000  Rmax=1.4000     2
 N  H  Rav=1.0087 sigma=0.0000  Rmin=1.0087  Rmax=1.0087     1
 N  C  Rav=1.4955 sigma=0.1396  Rmin=1.3968  Rmax=1.6929     3

 selected bond angles (degree)
 --------------------
C3-C1-N2= 74.50                C3-N2-C1= 52.84                C4-N2-C1= 88.99                C4-N2-C3= 52.84                
H5-N2-C1=133.05                H5-N2-C3=130.98                H5-N2-C4=133.04                N2-C3-C1= 52.66                
C4-C3-C1= 88.73                C4-C3-N2= 52.66                C3-C4-N2= 74.50                

 selected dihedral angles (degree)
 ---------------------------------
C4-N2-C1-C3=318.14            H5-N2-C1-C3=114.70            C4-C3-C1-N2= 41.75            C1-C3-N2-C4=123.15            
C1-C3-N2-H5=241.56            C4-C3-N2-C1=236.85            C4-C3-N2-H5=118.42            C3-C4-N2-C1= 41.86            
C3-C4-N2-H5=245.29            N2-C4-C3-C1=318.25            
           -------------------------------------------------
          |                Final Singlepoint                |
           -------------------------------------------------

          ...................................................
          :                      SETUP                      :
          :.................................................:
          :  # basis functions                  17          :
          :  # atomic orbitals                  17          :
          :  # shells                            9          :
          :  # electrons                        18          :
          :  max. iterations                   250          :
          :  Hamiltonian                  GFN2-xTB          :
          :  restarted?                      false          :
          :  GBSA solvation                  false          :
          :  PC potential                    false          :
          :  electronic temp.          300.0000000     K    :
          :  accuracy                    1.0000000          :
          :  -> integral cutoff          0.2500000E+02      :
          :  -> integral neglect         0.1000000E-07      :
          :  -> SCF convergence          0.1000000E-05 Eh   :
          :  -> wf. convergence          0.1000000E-03 e    :
          :  Broyden damping             0.4000000          :
          ...................................................

 iter      E             dE          RMSdq      gap      omega  full diag
   1     -9.6559455 -0.965595E+01  0.148E-04    3.24       0.0  T
   2     -9.6559455  0.310152E-11  0.997E-05    3.24     448.5  T
   3     -9.6559455  0.656026E-10  0.961E-05    3.24     465.3  T

   *** convergence criteria satisfied after 3 iterations ***

         #    Occupation            Energy/Eh            Energy/eV
      -------------------------------------------------------------
         1        2.0000           -0.7417368             -20.1837
       ...           ...                  ...                  ...
         3        2.0000           -0.6430816             -17.4991
         4        2.0000           -0.5943507             -16.1731
         5        2.0000           -0.5309082             -14.4467
         6        2.0000           -0.5197103             -14.1420
         7        2.0000           -0.4600246             -12.5179
         8        2.0000           -0.4275893             -11.6353
         9        2.0000           -0.4115310             -11.1983 (HOMO)
        10                         -0.2923088              -7.9541 (LUMO)
        11                         -0.2865700              -7.7980
        12                         -0.2535831              -6.9003
        13                         -0.0489373              -1.3317
        14                          0.0448564               1.2206
       ...                                ...                  ...
        17                          0.5080259              13.8241
      -------------------------------------------------------------
                  HL-Gap            0.1192222 Eh            3.2442 eV
             Fermi-level           -0.3519199 Eh           -9.5762 eV

 SCC (total)                   0 d,  0 h,  0 min,  0.003 sec
 SCC setup                      ...        0 min,  0.000 sec (  1.704%)
 Dispersion                     ...        0 min,  0.000 sec (  0.322%)
 integral evaluation            ...        0 min,  0.001 sec ( 37.908%)
 zeroth order Hamiltonian       ...        0 min,  0.000 sec (  0.473%)
 iterations                     ...        0 min,  0.000 sec ( 17.425%)
 molecular gradient             ...        0 min,  0.001 sec ( 40.133%)
 printout                       ...        0 min,  0.000 sec (  1.817%)

         :::::::::::::::::::::::::::::::::::::::::::::::::::::
         ::                     SUMMARY                     ::
         :::::::::::::::::::::::::::::::::::::::::::::::::::::
         :: total energy              -9.537905687177 Eh    ::
         :: gradient norm              0.000144638320 Eh/a0 ::
         :: HOMO-LUMO gap              3.244202192143 eV    ::
         ::.................................................::
         :: SCC energy                -9.655945481111 Eh    ::
         :: -> isotropic ES           -0.011611089216 Eh    ::
         :: -> anisotropic ES          0.004501276825 Eh    ::
         :: -> anisotropic XC          0.006916700212 Eh    ::
         :: -> dispersion             -0.002054538309 Eh    ::
         :: repulsion energy           0.118039768479 Eh    ::
         :: add. restraining           0.000000000000 Eh    ::
         :::::::::::::::::::::::::::::::::::::::::::::::::::::

           ------------------------------------------------- 
          |                Numerical Hessian                |
           ------------------------------------------------- 
step length          :   0.00500
SCC accuracy         :   0.30000
Hessian scale factor :   1.00000
frozen atoms in %    :   0.00000    0
RMS gradient         :   0.00014
estimated CPU  time      0.00 min
estimated wall time      0.00 min

writing file <hessian>.

 projected vibrational frequencies (cm-1)
eigval :       -0.00    -0.00     0.00     0.00     0.00     0.00
eigval :      536.69   581.24   730.89   851.47   984.55  1081.91
eigval :     1318.68  1432.16  3406.82
           -------------------------------------------------
          |                Property Printout                |
           -------------------------------------------------

    * Orbital Energies and Occupations

         #    Occupation            Energy/Eh            Energy/eV
      -------------------------------------------------------------
         1        2.0000           -0.7417368             -20.1837
         2        2.0000           -0.6528702             -17.7655
         3        2.0000           -0.6430817             -17.4991
         4        2.0000           -0.5943507             -16.1731
         5        2.0000           -0.5309081             -14.4467
         6        2.0000           -0.5197103             -14.1420
         7        2.0000           -0.4600246             -12.5179
         8        2.0000           -0.4275891             -11.6353
         9        2.0000           -0.4115311             -11.1983 (HOMO)
        10                         -0.2923089              -7.9541 (LUMO)
        11                         -0.2865700              -7.7980
        12                         -0.2535829              -6.9003
        13                         -0.0489374              -1.3317
        14                          0.0448563               1.2206
        15                          0.1994590               5.4276
        16                          0.2387248               6.4960
        17                          0.5080260              13.8241
      -------------------------------------------------------------
                  HL-Gap            0.1192222 Eh            3.2442 eV
             Fermi-level           -0.3519200 Eh           -9.5762 eV

     #   Z        covCN         q      C6AA      α(0)
     1   6 C      2.467    -0.089    30.544     9.022
     2   7 N      3.513     0.029    20.727     6.762
     3   6 C      2.795    -0.020    28.482     8.742
     4   6 C      2.467    -0.089    30.545     9.022
     5   1 H      0.860     0.169     1.282     1.773

 Mol. C6AA /au·bohr⁶  :        486.527272
 Mol. C8AA /au·bohr⁸  :      12855.459940
 Mol. α(0) /au        :         35.321069


Wiberg/Mayer (AO) data.
largest (>0.10) Wiberg bond orders for each atom
          total WBO             WBO to atom ...
     1  C   2.889        C    3 1.277    N    2 1.054    C    4 0.551
     2  N   3.629        C    1 1.054    C    4 1.054    H    5 0.933    C    3 0.588
     3  C   3.167        C    4 1.277    C    1 1.277    N    2 0.588
     4  C   2.889        C    3 1.277    N    2 1.054    C    1 0.551
     5  H   0.972        N    2 0.933

MOs/occ written to file <molden.input>


molecular dipole:
                 x           y           z       tot (Debye)
 q only:        0.256       0.650       0.014
Molecule has the following symmetry elements: (sigma) 
It seems to be the Cs point group
   full:        0.436       1.261       0.143       3.411
molecular quadrupole (traceless):
                xx          xy          yy          xz          yz          zz
 q only:       -0.597       0.857       1.043      -0.337       0.036      -0.445
  q+dip:       -1.858       1.678       2.088      -1.180       0.851      -0.230
   full:       -2.278       1.906       2.637      -1.229       1.258      -0.359

           -------------------------------------------------
          |                Geometry Summary                 |
           -------------------------------------------------

      molecular mass/u    :       51.0468517
   center of mass at/Å    :       -0.1099303      -0.2744305      -0.0022474
  moments of inertia/u·Å² :        0.2524963E+02   0.2732743E+02   0.4395906E+02
rotational constants/cm⁻¹ :        0.6676388E+00   0.6168760E+00   0.3834848E+00

 * 5 selected distances

     #   Z        #   Z                                     value/Å
     1   6 C      2   7 N                                 1.3967765
     1   6 C      3   6 C                                 1.4000320 (max)
     2   7 N      4   6 C                                 1.3967815
     3   6 C      4   6 C                                 1.3999916
     2   7 N      5   1 H                                 1.0086983 (min)

 * 3 distinct bonds (by element types)

   Z      Z             #   av. dist./Å        max./Å        min./Å
   6 C    6 C           2     1.4000118     1.4000320     1.3999916
   1 H    7 N           1     1.0086983     1.0086983     1.0086983
   6 C    7 N           2     1.3967790     1.3967815     1.3967765

           -------------------------------------------------
          |               Frequency Printout                |
           -------------------------------------------------
 projected vibrational frequencies (cm-1)
eigval :       -0.00    -0.00     0.00     0.00     0.00     0.00
eigval :      536.69   581.24   730.89   851.47   984.55  1081.91
eigval :     1318.68  1432.16  3406.82
 reduced masses (amu)
   1: 11.66   2: 12.23   3: 12.08   4: 12.28   5: 11.74   6: 12.00   7: 10.65   8:  8.28
   9:  9.68  10: 12.44  11:  2.62  12: 11.35  13: 12.09  14: 12.16  15:  1.88
 IR intensities (amu)
   1:  0.17   2:  0.10   3:  0.16   4:  0.11   5:  0.20   6:  0.10   7:  0.71   8:  0.22
   9:  0.62  10:  0.14  11:  0.21  12:  1.21  13:  0.55  14:  0.15  15:  0.29
 Raman intensities (amu)
   1:  0.00   2:  0.00   3:  0.00   4:  0.00   5:  0.00   6:  0.00   7:  0.00   8:  0.00
   9:  0.00  10:  0.00  11:  0.00  12:  0.00  13:  0.00  14:  0.00  15:  0.00
 output can be read by thermo (or use thermo option).
 writing <g98.out> molden fake output.
 recommended (thermochemical) frequency scaling factor: 1.0
           -------------------------------------------------
          |             Thermodynamic Functions             |
           -------------------------------------------------

cs  symmetry found (for desy threshold:  0.10E+00) used in thermo

          ...................................................
          :                      SETUP                      :
          :.................................................:
          :  # frequencies                           9      :
          :  # imaginary freq.                       0      :
          :  linear?                             false      :
          :  only rotor calc.                    false      :
          :  symmetry                               cs      :
          :  rotational number                       1      :
          :  scaling factor                  1.0000000      :
          :  rotor cutoff                   50.0000000 cm⁻¹ :
          :  imag. cutoff                  -20.0000000 cm⁻¹ :
          :.................................................:

    mode    ω/cm⁻¹     T·S(HO)/kcal·mol⁻¹    T·S(FR)/kcal·mol⁻¹   T·S(vib)
   ------------------------------------------------------------------------
   ------------------------------------------------------------------------

   temp. (K)  partition function   enthalpy   heat capacity  entropy
                                   cal/mol     cal/K/mol   cal/K/mol   J/K/mol
 298.15  VIB   1.23                  387.390      4.506      1.704
         ROT  0.133E+05              888.752      2.981     21.852
         INT  0.163E+05             1276.143      7.487     23.556
         TR   0.353E+27             1481.254      4.968     37.697
         TOT                        2757.3965    12.4551    61.2522   256.2793

   temp. (K)  partition function   enthalpy   heat capacity  entropy
                                   cal/mol     cal/K/mol   cal/K/mol   J/K/mol
 120.00  VIB   1.00                    4.476      0.258      0.043
         ROT  0.340E+04              357.707      2.981     19.139
         INT  0.341E+04              362.183      3.239     19.181
         TR   0.901E+26              596.178      4.968     33.177
         TOT                         958.3613     8.2069    52.3587   219.0687

   temp. (K)  partition function   enthalpy   heat capacity  entropy
                                   cal/mol     cal/K/mol   cal/K/mol   J/K/mol
 100.00  VIB   1.00                    1.139      0.093      0.013
         ROT  0.258E+04              298.089      2.981     18.595
         INT  0.259E+04              299.228      3.074     18.608
         TR   0.685E+26              496.815      4.968     32.272
         TOT                         796.0430     8.0418    50.8798   212.8812

   temp. (K)  partition function   enthalpy   heat capacity  entropy
                                   cal/mol     cal/K/mol   cal/K/mol   J/K/mol
  80.00  VIB   1.00                    0.151      0.019      0.002
         ROT  0.185E+04              238.471      2.981     17.930
         INT  0.185E+04              238.622      3.000     17.932
         TR   0.490E+26              397.452      4.968     31.164
         TOT                         636.0745     7.9680    49.0958   205.4170

   temp. (K)  partition function   enthalpy   heat capacity  entropy
                                   cal/mol     cal/K/mol   cal/K/mol   J/K/mol
  60.00  VIB   1.00                    0.005      0.001     -0.000
         ROT  0.120E+04              178.853      2.981     17.072
         INT  0.120E+04              178.859      2.982     17.072
         TR   0.319E+26              298.089      4.968     29.735
         TOT                         476.9479     7.9502    46.8077   195.8435

   temp. (K)  partition function   enthalpy   heat capacity  entropy
                                   cal/mol     cal/K/mol   cal/K/mol   J/K/mol
  40.00  VIB   1.00                    0.000      0.000     -0.000
         ROT   654.                  119.236      2.981     15.864
         INT   654.                  119.236      2.981     15.864
         TR   0.173E+26              198.726      4.968     27.722
         TOT                         317.9616     7.9490    43.5855   182.3616

   temp. (K)  partition function   enthalpy   heat capacity  entropy
                                   cal/mol     cal/K/mol   cal/K/mol   J/K/mol
  20.00  VIB   1.00                    0.000      0.000     -0.000
         ROT   231.                   59.618      2.981     13.798
         INT   231.                   59.618      2.981     13.797
         TR   0.613E+25               99.363      4.968     24.280
         TOT                         158.9808     7.9490    38.0772   159.3149

   temp. (K)  partition function   enthalpy   heat capacity  entropy
                                   cal/mol     cal/K/mol   cal/K/mol   J/K/mol
  10.00  VIB   1.00                    0.000      0.000     -0.000
         ROT   81.7                   29.809      2.981     11.731
         INT   81.7                   29.809      2.981     11.731
         TR   0.217E+25               49.681      4.968     20.838
         TOT                          79.4904     7.9490    32.5689   136.2682

       T/K    H(0)-H(T)+PV         H(T)/Eh          T*S/Eh         G(T)/Eh
   ------------------------------------------------------------------------
    298.15    0.439419E-02    0.292818E-01    0.291029E-01    0.178927E-03
    120.00    0.152725E-02    0.264149E-01    0.100127E-01    0.164022E-01
    100.00    0.126858E-02    0.261562E-01    0.810822E-02    0.180480E-01
     80.00    0.101365E-02    0.259013E-01    0.625914E-02    0.196422E-01
     60.00    0.760065E-03    0.256477E-01    0.447557E-02    0.211721E-01
     40.00    0.506704E-03    0.253943E-01    0.277831E-02    0.226160E-01
     20.00    0.253352E-03    0.251410E-01    0.121360E-02    0.239274E-01
     10.00    0.126676E-03    0.250143E-01    0.519018E-03    0.244953E-01 (used)
   ------------------------------------------------------------------------

         :::::::::::::::::::::::::::::::::::::::::::::::::::::
         ::                  THERMODYNAMIC                  ::
         :::::::::::::::::::::::::::::::::::::::::::::::::::::
         :: total free energy          -9.513410390329 Eh   ::
         ::.................................................::
         :: total energy               -9.537905687236 Eh   ::
         :: zero point energy           0.024887638920 Eh   ::
         :: G(RRHO) w/o ZPVE           -0.000392342013 Eh   ::
         :: G(RRHO) contrib.            0.024495296907 Eh   ::
         :::::::::::::::::::::::::::::::::::::::::::::::::::::

optimized geometry written to: xtbopt.xyz


           -------------------------------------------------
          | TOTAL ENERGY               -9.537905687236 Eh   |
          | TOTAL ENTHALPY             -9.512891372300 Eh   |
          | TOTAL FREE ENERGY          -9.513410390329 Eh   |
          | GRADIENT NORM               0.000144692682 Eh/α |
          | HOMO-LUMO GAP               3.244200748293 eV   |
           -------------------------------------------------

------------------------------------------------------------------------
 * finished run on 2020/05/12 at 11:44:57.403     
------------------------------------------------------------------------
 total:
 * wall-time:     0 d,  0 h,  0 min,  0.162 sec
 *  cpu-time:     0 d,  0 h,  0 min,  0.162 sec
 * ratio c/w:     0.999 speedup
 SCF:
 * wall-time:     0 d,  0 h,  0 min,  0.005 sec
 *  cpu-time:     0 d,  0 h,  0 min,  0.005 sec
 * ratio c/w:     0.998 speedup
 ANC optimizer:
 * wall-time:     0 d,  0 h,  0 min,  0.064 sec
 *  cpu-time:     0 d,  0 h,  0 min,  0.064 sec
 * ratio c/w:     0.999 speedup
 numerical hessian:
 * wall-time:     0 d,  0 h,  0 min,  0.078 sec
 *  cpu-time:     0 d,  0 h,  0 min,  0.078 sec
 * ratio c/w:     0.999 speedup

