[Molden Format]
[Title]
[Atoms] AU
C      1     6  0.13337230037808E+01 -0.15963785008423E+01  0.45375240473616E+00
N      2     7  0.54302688015430E+00  0.75113412759124E+00 -0.45788077045837E+00
C      3     6 -0.11853923682837E+01 -0.13507735241222E+01  0.12240388665961E+01
C      4     6 -0.17536547798509E+01 -0.34625028235571E+00 -0.11565520278552E+01
H      5     1  0.10622972642161E+01  0.25422700694582E+01 -0.63356583296049E-01
[GTO]
           1 0
 s           4   1.0000000000000000     
   51.049363095579913      -0.16312063210127389     
   8.7911227406887544      -0.19911024581000730     
  0.70640422258929825       0.31882047753655751     
  0.26922813413411617       0.12706504184240380     
 p           4   1.0000000000000000     
   5.8263656140800002       0.73716451545209605     
   1.5106896018720002       0.68216371614850257     
  0.53256483288000001       0.35783053929253711     
  0.21202323690600003        5.3983030275847881E-002

           2 0
 s           4   1.0000000000000000     
   63.594024466941008      -0.19234388414721629     
   10.951417231523665      -0.23478107924953728     
  0.87999310257376984       0.37593753901700888     
  0.33538715296521110       0.14982889271862770     
 p           4   1.0000000000000000     
   7.2965040481495080       0.97658666315667420     
   1.8918745450712575       0.90372226730345739     
  0.66694432110824120       0.47404958461536373     
  0.26552202674130870        7.1516067715011844E-002

           3 0
 s           4   1.0000000000000000     
   51.049363095579913      -0.16312063210127389     
   8.7911227406887544      -0.19911024581000730     
  0.70640422258929825       0.31882047753655751     
  0.26922813413411617       0.12706504184240380     
 p           4   1.0000000000000000     
   5.8263656140800002       0.73716451545209605     
   1.5106896018720002       0.68216371614850257     
  0.53256483288000001       0.35783053929253711     
  0.21202323690600003        5.3983030275847881E-002

           4 0
 s           4   1.0000000000000000     
   51.049363095579913      -0.16312063210127389     
   8.7911227406887544      -0.19911024581000730     
  0.70640422258929825       0.31882047753655751     
  0.26922813413411617       0.12706504184240380     
 p           4   1.0000000000000000     
   5.8263656140800002       0.73716451545209605     
   1.5106896018720002       0.68216371614850257     
  0.53256483288000001       0.35783053929253711     
  0.21202323690600003        5.3983030275847881E-002

           5 0
 s           3   1.0000000000000000     
   3.3702276975336001       0.27359110588908298     
  0.61389118221497996       0.26460540653860526     
  0.16614291148415999        8.2465947534082318E-002

[MO]
Sym=     1a
Ene=  -0.74173680793243635     
Spin= Alpha
Occup=     2.00000000
           1 -0.26682813287113050     
           2  0.10188646426291043     
           3  -9.0056478336173182E-002
           4   2.4467152562623013E-002
           5 -0.37605839535645968     
           6  0.12692119253912448     
           7  0.20428783817910989     
           8  -8.4732016107341657E-002
           9 -0.27032159356920937     
          10  -8.1019791049128861E-002
          11  -7.4421784527921350E-002
          12   9.7558624840135402E-002
          13 -0.26683118348354001     
          14 -0.10857728679258780     
          15  -4.8373740000980320E-003
          16  -8.5307970212316994E-002
          17  -3.4473048370977914E-002
Sym=     2a
Ene=  -0.65287017775643341     
Spin= Alpha
Occup=     2.00000000
           1  -8.9462410506702672E-002
           2   8.7269034819889582E-002
           3   9.3624725008009127E-002
           4  -1.8475909534813140E-002
           5  0.50658182481980740     
           6  0.13401747015592033     
           7  0.33331659080804410     
           8   1.6205383616988295E-003
           9 -0.20554711625701536     
          10  -8.4375052097843701E-003
          11   4.7385333269180582E-002
          12   5.2892721324986749E-002
          13  -8.9344150873052974E-002
          14   3.1958861822145378E-002
          15  0.11606304792701422     
          16  -4.7325367052526476E-002
          17  0.38574333779209879     
Sym=     3a
Ene=  -0.64308171868401864     
Spin= Alpha
Occup=     2.00000000
           1 -0.41932635985557770     
           2  -2.6979951073124907E-002
           3 -0.10723420820446214     
           4  -3.1100402257377240E-002
           5  -1.0148024331220140E-004
           6 -0.42330014128606813     
           7  0.17135118523727014     
           8 -0.22076097535264602     
           9   5.4934845080096714E-005
          10 -0.19438383863611924     
          11   7.8704914863211128E-002
          12 -0.10139848160732901     
          13  0.41933978988191389     
          14   2.7256634322498037E-002
          15  0.10706422743834276     
          16   3.1287192878484540E-002
          17  -3.9254851574803072E-005
Sym=     4a
Ene=  -0.59435072654711929     
Spin= Alpha
Occup=     2.00000000
           1  -8.4211346082989302E-002
           2 -0.10230719489999744     
           3  -5.4652741124051024E-002
           4  0.26033021822704810     
           5 -0.17311454318267594     
           6 -0.11402390633744566     
           7  0.31129074823224190     
           8  0.46033694685407323     
           9  0.40189197577730407     
          10  -1.9384830440892915E-002
          11   6.7687572443328403E-002
          12   8.9743519738206837E-002
          13  -8.4255864848818043E-002
          14 -0.17975425378062632     
          15  -2.3307503106826177E-002
          16  0.21993905909645659     
          17  0.17265265779578673     
Sym=     5a
Ene=  -0.53090809454553400     
Spin= Alpha
Occup=     2.00000000
           1  0.18825844148419915     
           2  -7.1919972399530005E-002
           3 -0.27648887945345363     
           4  -5.4071381321518168E-002
           5  -3.1293085731978816E-002
           6  0.27755074912495081     
           7  0.22736239084533616     
           8 -0.35557117544691225     
           9  0.30747716585746404     
          10  -9.7902316400698020E-002
          11 -0.37875560422255705     
          12 -0.10637258955899184     
          13  0.18824914634809917     
          14  -8.8422181741933656E-002
          15 -0.26984596510875281     
          16  -6.2647253103504177E-002
          17  0.22808561314982051     
Sym=     6a
Ene=  -0.51971030236030580     
Spin= Alpha
Occup=     2.00000000
           1 -0.19827388909726745     
           2  0.14227529565344346     
           3  0.29152805748971911     
           4 -0.21058563114770965     
           5   2.8091799576800656E-005
           6  0.36349714517119980     
           7 -0.14718362806789806     
           8  0.18960109629323318     
           9  -4.2909856750771460E-006
          10 -0.36383763111206324     
          11  0.14734012418251718     
          12 -0.18976068772463900     
          13  0.19825295876594340     
          14 -0.26150424781128095     
          15 -0.24319909972963477     
          16  0.14840294624220782     
          17  -2.2239370872520603E-005
Sym=     7a
Ene=  -0.46002464918923985     
Spin= Alpha
Occup=     2.00000000
           1 -0.47109104423554987     
           2 -0.31025776604870631     
           3  0.16258136435222117     
           4 -0.12704610979493985     
           5  0.18270497220255322     
           6   8.9747008223850983E-002
           7 -0.10559851867635639     
           8 -0.25403995247735378     
           9  0.35940617283125936     
          10 -0.13847159700401238     
          11  -8.3594554700129942E-002
          12  0.20063903305622616     
          13 -0.47105664730840652     
          14  0.30581723356678675     
          15  -8.6886688913891674E-002
          16  0.19426801947592393     
          17  -7.5407098275113965E-002
Sym=     8a
Ene=  -0.42758908743486340     
Spin= Alpha
Occup=     2.00000000
           1  0.18226708776505440     
           2  0.29592382813289314     
           3  0.11631921563924932     
           4  0.19390203199705930     
           5   6.5081132308680636E-002
           6  0.13273053164038312     
           7  -9.6454325212561490E-002
           8 -0.32943880379365220     
           9  0.38369523073340306     
          10 -0.22580038045061460     
          11  0.10402411424385938     
          12  0.51360545965864424     
          13  0.18217004932769498     
          14 -0.19143374710769476     
          15  0.31373277002497924     
          16  -6.0207364831169868E-002
          17 -0.11850273234793696     
Sym=     9a
Ene=  -0.41153107761399998     
Spin= Alpha
Occup=     2.00000000
           1 -0.36763362010915734     
           2 -0.37203573346372792     
           3  0.32790142193480842     
           4  0.24608376193964901     
           5   1.2493986780882172E-005
           6  0.14859451734994616     
           7  -6.0162721429823825E-002
           8   7.7469771012413396E-002
           9   3.7832253420454956E-005
          10  0.24709488928492937     
          11 -0.10006687365173768     
          12  0.12894676808625261     
          13  0.36771612323968311     
          14 -0.15235412313522531     
          15 -0.11550894810307678     
          16 -0.51957801948323457     
          17  -1.8027438208660292E-005
Sym=    10a
Ene=  -0.29230889387246795     
Spin= Alpha
Occup=     0.00000000
           1   3.4638377166843369E-003
           2  0.44217730383348508     
           3  0.18063037524068820     
           4  0.57983335537067682     
           5   2.6149466634092948E-005
           6 -0.14154247390233493     
           7   5.7341723078120105E-002
           8  -7.4022239997162606E-002
           9  -5.6674396991607441E-005
          10 -0.13660368606965456     
          11   5.5320582900225734E-002
          12  -7.1431489706857171E-002
          13  -3.5192156573983957E-003
          14  0.49284368817558832     
          15 -0.55912986706112200     
          16  -9.1743238792772366E-002
          17  -4.4189612486065311E-005
Sym=    11a
Ene=  -0.28657000242705039     
Spin= Alpha
Occup=     0.00000000
           1   5.8791087305814532E-002
           2  0.13559744380843131     
           3 -0.12785328129246837     
           4 -0.51289824031415299     
           5  -2.3018439394820837E-002
           6 -0.27924986304330568     
           7  -2.6799389654029674E-002
           8  0.51444690600635978     
           9  0.17900347451658918     
          10 -0.26518603948831909     
          11 -0.12560404571160555     
          12  0.41079081302186082     
          13   5.8794847902114214E-002
          14  0.24753736198336390     
          15 -0.17344230641134006     
          16 -0.45472674767081900     
          17   9.2954407911439649E-002
Sym=    12a
Ene=  -0.25358285386784857     
Spin= Alpha
Occup=     0.00000000
           1   3.9993379214591583E-002
           2 -0.13644537672269053     
           3 -0.25106919258861721     
           4 -0.20066315345299229     
           5 -0.26841250411803330     
           6  0.17251263549490592     
           7   8.9375500702711483E-002
           8 -0.26135504913941549     
           9   6.6148738353493927E-002
          10  0.24973594713135253     
          11  0.87013725822551025     
          12  0.19669641789202655     
          13   4.0005876268341879E-002
          14   5.7825061052716703E-002
          15 -0.32981815584726526     
          16  -9.9397950015325809E-002
          17  0.19134500803078791     
Sym=    13a
Ene=   -4.8937362864854145E-002
Spin= Alpha
Occup=     0.00000000
           1   7.7695104335731693E-002
           2   8.6029161719982719E-002
           3  0.50311250339695945     
           4 -0.15111948767986236     
           5 -0.99877423721043279     
           6   3.3435035267335565E-002
           7  -8.0288831048797735E-002
           8 -0.12664645061229177     
           9  0.19205749729943253     
          10   5.9179763749279933E-002
          11  -9.7963286507778316E-002
          12 -0.18932921361555108     
          13   7.7641738766244722E-002
          14  0.35954379697624111     
          15  0.39214219042116960     
          16  -8.3097697701027037E-003
          17  0.69773417020208106     
Sym=    14a
Ene=    4.4856313952334498E-002
Spin= Alpha
Occup=     0.00000000
           1 -0.14338390873128962     
           2 -0.20187903265336135     
           3 -0.57695157099527195     
           4  0.36940949916675675     
           5  -1.6529794638673280E-004
           6  0.65759066498414154     
           7 -0.26618028829846385     
           8  0.34296305921663317     
           9   5.3624598301942651E-005
          10 -0.42783760502649160     
          11  0.17322974834924768     
          12 -0.22319416832121813     
          13  0.14344133722465285     
          14  0.51463758626269951     
          15  0.45053252198142602     
          16 -0.20640258609543952     
          17   5.3374713529777744E-005
Sym=    15a
Ene=   0.19945897044333169     
Spin= Alpha
Occup=     0.00000000
           1   1.1366767793243292E-002
           2 -0.24733812596916863     
           3 -0.25171837335441993     
           4  0.27827317665495493     
           5  -6.6836574907718438E-002
           6 -0.30440067390644659     
           7 -0.87809019945829714     
           8  -9.8690464232061362E-002
           9 -0.53182731520178561     
          10 -0.25865796011456338     
          11 -0.11681869346939745     
          12  0.40339877998217527     
          13   1.0389781934552150E-002
          14 -0.24732720565662836     
          15 -0.25172778408573426     
          16  0.27748558295963743     
          17  0.84121412456650169     
Sym=    16a
Ene=   0.23872479949762593     
Spin= Alpha
Occup=     0.00000000
           1 -0.60259258427094331     
           2  0.54539600180326842     
           3 -0.27115166276422481     
           4 -0.14845419462585099     
           5  -3.3725240210168535E-005
           6  0.35706833171034386     
           7 -0.14550134856013394     
           8  0.18629365637228515     
           9  -4.0889662146154792E-004
          10  0.74060239527353999     
          11 -0.30005751317370483     
          12  0.38668689073517681     
          13  0.60253043955480723     
          14  0.25876622513082087     
          15  -5.5083510534201248E-002
          16  0.56854058265653784     
          17   7.6013455150558251E-004
Sym=    17a
Ene=   0.50802598061107851     
Spin= Alpha
Occup=     0.00000000
           1 -0.57970922388729917     
           2  0.59384744474878526     
           3 -0.31451820163013916     
           4   9.0849926980281371E-003
           5  0.24755858893103846     
           6 -0.20936022582581157     
           7 -0.59523916494963447     
           8  -6.0674851259549058E-002
           9  0.74014383699708985     
          10  0.35523620910071424     
          11  0.11782456631260381     
          12 -0.58985082193358063     
          13 -0.57983798062018932     
          14 -0.41721565233476132     
          15   9.4933952273361225E-002
          16 -0.51840531366613529     
          17  0.35649299571879101     
