 Entering Gaussian System
 *********************************************
 Gaussian 98:
 frequency output generated by the xtb code
 *********************************************
                         Standard orientation:
 --------------------------------------------------------------------
  Center     Atomic     Atomic              Coordinates (Angstroms)
  Number     Number      Type              X           Y           Z
 --------------------------------------------------------------------
    1          6             0        0.705776   -0.844767    0.240115
    2          7             0        0.287357    0.397483   -0.242300
    3          6             0       -0.627283   -0.714799    0.647734
    4          6             0       -0.927994   -0.183228   -0.612021
    5          1             0        0.562144    1.345312   -0.033527
 --------------------------------------------------------------------
     1 basis functions        1 primitive gaussians
     1 alpha electrons        1 beta electrons

 Harmonic frequencies (cm**-1), IR intensities (KM/Mole),
 Raman scattering activities (A**4/amu), Raman depolarization ratios,
 reduced masses (AMU), force constants (mDyne/A) and normal coordinates:
                      1                      2                      3
                        a                      a                      a 
 Frequencies --   536.6932               581.2364               730.8894
 Red. masses --    10.6540                 8.2814                 9.6826
 Frc consts  --     0.0000                 0.0000                 0.0000
 IR Inten    --     0.7110                 0.2179                 0.6198
 Raman Activ --     0.0000                 0.0000                 0.0000
 Depolar     --     0.0000                 0.0000                 0.0000
 Atom AN      X      Y      Z        X      Y      Z        X      Y      Z
   1   6    -0.20  -0.03  -0.47     0.04  -0.30  -0.11     0.37  -0.07   0.15
   2   7    -0.15   0.12   0.38    -0.11  -0.02   0.19    -0.30  -0.27   0.37
   3   6    -0.10   0.16   0.32     0.26   0.57  -0.06     0.19   0.17  -0.22
   4   6     0.41  -0.27  -0.15    -0.11  -0.24  -0.18    -0.29   0.20  -0.19
   5   1     0.20   0.05  -0.34    -0.28  -0.03   0.52     0.22  -0.04  -0.46
                      4                      5                      6
                        a                      a                      a 
 Frequencies --   851.4684               984.5491              1081.9097
 Red. masses --    12.4395                 2.6170                11.3488
 Frc consts  --     0.0000                 0.0000                 0.0000
 IR Inten    --     0.1431                 0.2082                 1.2098
 Raman Activ --     0.0000                 0.0000                 0.0000
 Depolar     --     0.0000                 0.0000                 0.0000
 Atom AN      X      Y      Z        X      Y      Z        X      Y      Z
   1   6     0.14   0.41  -0.24     0.06  -0.14  -0.06     0.22   0.33  -0.18
   2   7     0.48  -0.19   0.25     0.21  -0.09   0.11    -0.20  -0.56  -0.05
   3   6    -0.34   0.14  -0.18    -0.12   0.05  -0.06    -0.17  -0.01   0.33
   4   6    -0.35  -0.32   0.13     0.06   0.09   0.12     0.23   0.32  -0.17
   5   1     0.12  -0.05   0.06    -0.78   0.31  -0.40    -0.19  -0.16   0.25
                      7                      8                      9
                        a                      a                      a 
 Frequencies --  1318.6809              1432.1636              3406.8200
 Red. masses --    12.0870                12.1565                 1.8790
 Frc consts  --     0.0000                 0.0000                 0.0000
 IR Inten    --     0.5457                 0.1529                 0.2903
 Raman Activ --     0.0000                 0.0000                 0.0000
 Depolar     --     0.0000                 0.0000                 0.0000
 Atom AN      X      Y      Z        X      Y      Z        X      Y      Z
   1   6     0.46  -0.24  -0.03     0.44  -0.28  -0.01    -0.01   0.00  -0.00
   2   7    -0.29   0.12  -0.15     0.16   0.32  -0.05    -0.07  -0.24  -0.05
   3   6    -0.47   0.19  -0.25    -0.30  -0.13   0.47     0.00   0.00  -0.00
   4   6     0.29  -0.07   0.42    -0.32   0.03  -0.41     0.01  -0.00   0.00
   5   1     0.10  -0.04   0.05     0.02   0.09   0.04     0.27   0.91   0.19
