      -----------------------------------------------------------      
     |                   =====================                   |     
     |                           x T B                           |     
     |                   =====================                   |     
     |                         S. Grimme                         |     
     |          Mulliken Center for Theoretical Chemistry        |     
     |                    University of Bonn                     |     
      -----------------------------------------------------------      

   * xtb version 6.2.2 (9d81278992624c895f80dd42a50cac0aa55982e2) compiled by '@Darwin' on 04/03/2020

   xtb is free software: you can redistribute it and/or modify it under
   the terms of the GNU Lesser General Public License as published by
   the Free Software Foundation, either version 3 of the License, or
   (at your option) any later version.
   
   xtb is distributed in the hope that it will be useful,
   but WITHOUT ANY WARRANTY; without even the implied warranty of
   MERCHANTABILITY or FITNESS FOR A PARTICULAR PURPOSE.  See the
   GNU Lesser General Public License for more details.
   
   Cite this work as:
   * S. Grimme, C. Bannwarth, P. Shushkov, J. Chem. Theory Comput., 2017,
     13, 1989-2009. DOI: 10.1021/acs.jctc.7b00118
   * C. Bannwarth, S. Ehlert and S. Grimme., J. Chem. Theory Comput., 2019,
     15, 1652-1671. DOI: 10.1021/acs.jctc.8b01176
   * P. Pracht, E. Caldeweyher, S. Ehlert, S. Grimme, ChemRxiv, 2019, preprint.
     DOI: 10.26434/chemrxiv.8326202.v1
   
   for DFT-D4:
   * E. Caldeweyher, C. Bannwarth and S. Grimme, J. Chem. Phys., 2017,
     147, 034112. DOI: 10.1063/1.4993215
   * E. Caldeweyher, S. Ehlert, A. Hansen, H. Neugebauer, S. Spicher,
     C. Bannwarth and S. Grimme, J. Chem. Phys., 2019, 150, 154122.
     DOI: 10.1063/1.5090222
   
   for sTDA-xTB:
   * S. Grimme and C. Bannwarth, J. Chem. Phys., 2016, 145, 054103.
     DOI: 10.1063/1.4959605
   
   in the mass-spec context:
   * V. Asgeirsson, C. Bauer and S. Grimme, Chem. Sci., 2017, 8, 4879.
     DOI: 10.1039/c7sc00601b
   
   for metadynamics refer to:
   * S. Grimme, J. Chem. Theory Comput., 2019, 155, 2847-2862
     DOI: 10.1021/acs.jctc.9b00143
   
   with help from (in alphabetical order)
   C. Bannwarth, F. Bohle, G. Brandenburg, E. Caldeweyher, M. Checinski,
   S. Dohm, S. Ehlert, S. Ehrlich, F. März, H. Neugebauer, J. Pisarek,
   P. Pracht, P. Shushkov, and S. Spicher.
   
 * started run on 2020/05/12 at 11:44:00.659     

           -------------------------------------------------
          |                Calculation Setup                |
           -------------------------------------------------

          program call               : xtb --input C4N1_8_S_1.input C4N1_8_S_1.xyz --ohess --molden --namespace C4N1_8_S_1 output.out
          calculation namespace      : C4N1_8_S_1
          coordinate file            : C4N1_8_S_1.xyz
          number of atoms            :                     5
          number of electrons        :                    21
          charge                     :                     0
          spin                       :                   0.5
          first test random number   :      0.54682414533687

   ID    Z sym.   atoms
    1    6 C      1-3, 5
    2    7 N      4

           -------------------------------------------------
          |                 G F N 2 - x T B                 |
           -------------------------------------------------

        Reference                      10.1021/acs.jctc.8b01176
      * Hamiltonian:
        H0-scaling (s, p, d)           1.850000    2.230000    2.230000
        zeta-weighting                 0.500000
      * Dispersion:
        s8                             2.700000
        a1                             0.520000
        a2                             5.000000
        s9                             5.000000
      * Repulsion:
        kExp                           1.500000    1.000000
        rExp                           1.000000
      * Coulomb:
        alpha                          2.000000
        third order                    shell-resolved
        anisotropic                    true
        a3                             3.000000
        a5                             4.000000
        cn-shift                       1.200000
        cn-exp                         4.000000
        max-rad                        5.000000


          ...................................................
          :                      SETUP                      :
          :.................................................:
          :  # basis functions                  20          :
          :  # atomic orbitals                  20          :
          :  # shells                           10          :
          :  # electrons                        21          :
          :  max. iterations                   250          :
          :  Hamiltonian                  GFN2-xTB          :
          :  restarted?                      false          :
          :  GBSA solvation                  false          :
          :  PC potential                    false          :
          :  electronic temp.          300.0000000     K    :
          :  accuracy                    1.0000000          :
          :  -> integral cutoff          0.2500000E+02      :
          :  -> integral neglect         0.1000000E-07      :
          :  -> SCF convergence          0.1000000E-05 Eh   :
          :  -> wf. convergence          0.1000000E-03 e    :
          :  Broyden damping             0.4000000          :
          ...................................................

 iter      E             dE          RMSdq      gap      omega  full diag
   1    -10.7050259 -0.107050E+02  0.133E+01    1.45       0.0  T
   2     -9.9623694  0.742657E+00  0.141E+01    0.67       1.0  T
   3    -10.8520675 -0.889698E+00  0.718E+00    1.07       1.0  T
   4     -9.9821240  0.869944E+00  0.112E+01    0.98       1.0  T
   5    -10.8454293 -0.863305E+00  0.361E+00    0.76       1.0  T
   6    -10.9596689 -0.114240E+00  0.123E+00    0.90       1.0  T
   7    -10.9591221  0.546872E-03  0.807E-01    0.88       1.0  T
   8    -10.9602044 -0.108231E-02  0.771E-01    0.93       1.0  T
   9    -10.9616574 -0.145297E-02  0.597E-01    0.89       1.0  T
  10    -10.9638049 -0.214754E-02  0.219E-01    0.92       1.0  T
  11    -10.9640400 -0.235141E-03  0.604E-02    0.92       1.0  T
  12    -10.9640143  0.257180E-04  0.721E-02    0.92       1.0  T
  13    -10.9640450 -0.306575E-04  0.179E-02    0.92       2.5  T
  14    -10.9640468 -0.179858E-05  0.213E-03    0.92      21.0  T
  15    -10.9640468 -0.271610E-07  0.778E-04    0.92      57.5  T
  16    -10.9640468 -0.221773E-08  0.492E-04    0.92      90.8  T

   *** convergence criteria satisfied after 16 iterations ***

         #    Occupation            Energy/Eh            Energy/eV
      -------------------------------------------------------------
         1        2.0000           -0.6946380             -18.9021
       ...           ...                  ...                  ...
         5        2.0000           -0.5415023             -14.7350
         6        2.0000           -0.5184973             -14.1090
         7        2.0000           -0.5104400             -13.8898
         8        2.0000           -0.5035854             -13.7033
         9        2.0000           -0.4681602             -12.7393
        10        1.9999           -0.4630087             -12.5991
        11        1.0001           -0.4451786             -12.1139 (HOMO)
        12                         -0.4114136             -11.1951 (LUMO)
        13                         -0.3782629             -10.2931
        14                         -0.3705474             -10.0831
        15                         -0.3318365              -9.0297
        16                         -0.3174725              -8.6389
       ...                                ...                  ...
        20                          0.0901202               2.4523
      -------------------------------------------------------------
                  HL-Gap            0.0337650 Eh            0.9188 eV
             Fermi-level           -0.4411938 Eh          -12.0055 eV

 SCC (total)                   0 d,  0 h,  0 min,  0.005 sec
 SCC setup                      ...        0 min,  0.000 sec (  1.411%)
 Dispersion                     ...        0 min,  0.000 sec (  0.313%)
 integral evaluation            ...        0 min,  0.002 sec ( 29.872%)
 zeroth order Hamiltonian       ...        0 min,  0.000 sec (  0.379%)
 iterations                     ...        0 min,  0.002 sec ( 36.672%)
 molecular gradient             ...        0 min,  0.002 sec ( 29.718%)
 printout                       ...        0 min,  0.000 sec (  1.491%)

         :::::::::::::::::::::::::::::::::::::::::::::::::::::
         ::                     SUMMARY                     ::
         :::::::::::::::::::::::::::::::::::::::::::::::::::::
         :: total energy             -10.909690759432 Eh    ::
         :: gradient norm              0.425418711199 Eh/a0 ::
         :: HOMO-LUMO gap              0.918793609519 eV    ::
         ::.................................................::
         :: SCC energy               -10.964046803592 Eh    ::
         :: -> isotropic ES           -0.013911390855 Eh    ::
         :: -> anisotropic ES         -0.000070369818 Eh    ::
         :: -> anisotropic XC          0.020978007341 Eh    ::
         :: -> dispersion             -0.002962636660 Eh    ::
         :: repulsion energy           0.054355799756 Eh    ::
         :: add. restraining           0.000000000000 Eh    ::
         :::::::::::::::::::::::::::::::::::::::::::::::::::::

      ----------------------------------------------------------- 
     |                   =====================                   |
     |                        A N C O P T                        |
     |                   =====================                   |
     |               Approximate Normal Coordinate               |
     |                Rational Function Optimizer                |
      ----------------------------------------------------------- 

          ...................................................
          :                      SETUP                      :
          :.................................................:
          :   optimization level            normal          :
          :   max. optcycles                   200          :
          :   ANC micro-cycles                  20          :
          :   degrees of freedom                 9          :
          :.................................................:
          :   RF solver                   davidson          :
          :   write xtbopt.log                true          :
          :   linear?                        false          :
          :   energy convergence         0.5000000E-05 Eh   :
          :   grad. convergence          0.1000000E-02 Eh/α :
          :   maximium RF displ.         1.0000000          :
          :   Hlow (freq-cutoff)         0.1000000E-01      :
          :   Hmax (freq-cutoff)         5.0000000          :
          :   S6 in model hess.         20.0000000          :
          ...................................................

generating ANC from model Hessian ...
Using Lindh-Hessian (1995)
 Shifting diagonal of input Hessian by    5.5225138423049755E-003
 Lowest  eigenvalues of input Hessian
   -0.000000   -0.000000   -0.000000   -0.000000    0.000000    0.000000
    0.010000    0.011146    0.060510    0.063773    0.120455    0.623799
    0.786214    0.967993    1.097873
 Highest eigenvalues
    0.063773    0.120455    0.623799    0.786214    0.967993    1.097873


........................................................................
.............................. CYCLE    1 ..............................
........................................................................
   1    -10.9640468 -0.109640E+02  0.856E-05    0.92       0.0  T
   2    -10.9640468  0.413088E-09  0.269E-04    0.92     166.4  T
   3    -10.9640468 -0.434412E-09  0.431E-05    0.92    1037.3  T
     SCC iter.                  ...        0 min,  0.000 sec
     gradient                   ...        0 min,  0.001 sec
 * total energy  :   -10.9096908 Eh     change       -0.1496440E-08 Eh
   gradient norm :     0.4254190 Eh/α   predicted     0.0000000E+00 (-100.00%)
   displ. norm   :     0.4674299 α      lambda       -0.1930254E+00
   maximum displ.:     0.4005878 α      in ANC's #6, #8, #9, ...

........................................................................
.............................. CYCLE    2 ..............................
........................................................................
   1    -11.1966437 -0.111966E+02  0.269E+00    1.22       0.0  T
   2    -11.0213265  0.175317E+00  0.462E+00    1.10       1.0  T
   3    -11.2085052 -0.187179E+00  0.155E+00    1.17       1.0  T
   4    -11.2055826  0.292258E-02  0.140E+00    1.17       1.0  T
   5    -11.2162016 -0.106189E-01  0.246E-01    1.17       1.0  T
   6    -11.2165118 -0.310215E-03  0.130E-01    1.15       1.0  T
   7    -11.2165603 -0.485690E-04  0.620E-02    1.15       1.0  T
   8    -11.2165696 -0.923713E-05  0.355E-02    1.15       1.3  T
   9    -11.2165750 -0.543411E-05  0.879E-03    1.15       5.1  T
  10    -11.2165752 -0.197691E-06  0.299E-03    1.15      15.0  T
  11    -11.2165753 -0.470062E-07  0.672E-04    1.15      66.5  T
  12    -11.2165753 -0.636454E-09  0.122E-04    1.15     366.3  T
     SCC iter.                  ...        0 min,  0.001 sec
     gradient                   ...        0 min,  0.001 sec
 * total energy  :   -11.0736067 Eh     change       -0.1639160E+00 Eh
   gradient norm :     0.2616723 Eh/α   predicted    -0.1175998E+00 ( -28.26%)
   displ. norm   :     0.5477766 α      lambda       -0.1375600E+00
   maximum displ.:     0.4379931 α      in ANC's #6, #9, #8, ...

........................................................................
.............................. CYCLE    3 ..............................
........................................................................
   1    -11.4852795 -0.114853E+02  0.296E+00    1.10       0.0  T
   2    -11.4491737  0.361059E-01  0.276E+00    1.15       1.0  T
   3    -11.4481516  0.102204E-02  0.259E+00    1.08       1.0  T
   4    -11.4923645 -0.442128E-01  0.648E-01    1.10       1.0  T
   5    -11.4939747 -0.161027E-02  0.169E-01    1.09       1.0  T
   6    -11.4940760 -0.101277E-03  0.910E-02    1.09       1.0  T
   7    -11.4940821 -0.604425E-05  0.165E-02    1.09       2.7  T
   8    -11.4940834 -0.139153E-05  0.719E-03    1.09       6.2  T
   9    -11.4940835 -0.645318E-07  0.496E-03    1.09       9.0  T
  10    -11.4940836 -0.698195E-07  0.664E-04    1.09      67.3  T
  11    -11.4940836 -0.104886E-08  0.125E-04    1.09     358.3  T
     SCC iter.                  ...        0 min,  0.002 sec
     gradient                   ...        0 min,  0.001 sec
 * total energy  :   -11.0902746 Eh     change       -0.1666781E-01 Eh
   gradient norm :     0.5220717 Eh/α   predicted    -0.8941809E-01 ( 436.47%)
   displ. norm   :     0.4610692 α      lambda       -0.1401011E+00
   maximum displ.:     0.2632607 α      in ANC's #5, #2, #4, ...

........................................................................
.............................. CYCLE    4 ..............................
........................................................................
   1    -11.3792491 -0.113792E+02  0.194E+00    0.68       0.0  T
   2    -11.3653914  0.138578E-01  0.199E+00    0.69       1.0  T
   3    -11.3738251 -0.843375E-02  0.146E+00    0.71       1.0  T
   4    -11.3817633 -0.793815E-02  0.768E-01    0.68       1.0  T
   5    -11.3856440 -0.388066E-02  0.432E-01    0.69       1.0  T
   6    -11.3867333 -0.108937E-02  0.760E-02    0.69       1.0  T
   7    -11.3867423 -0.896388E-05  0.201E-02    0.69       2.2  T
   8    -11.3867431 -0.788866E-06  0.131E-02    0.69       3.4  T
   9    -11.3867438 -0.675765E-06  0.421E-03    0.69      10.6  T
  10    -11.3867438 -0.257584E-07  0.562E-04    0.69      79.6  T
  11    -11.3867438 -0.243601E-09  0.233E-04    0.69     191.8  T
     SCC iter.                  ...        0 min,  0.001 sec
     gradient                   ...        0 min,  0.001 sec
 * total energy  :   -11.1259654 Eh     change       -0.3569083E-01 Eh
   gradient norm :     0.2209441 Eh/α   predicted    -0.8494223E-01 ( 137.99%)
   displ. norm   :     0.5163173 α      lambda       -0.5375012E-01
   maximum displ.:     0.4368094 α      in ANC's #3, #4, #6, ...

........................................................................
.............................. CYCLE    5 ..............................
........................................................................
   1    -11.3108945 -0.113109E+02  0.184E+00    0.37       0.0  T
   2    -11.2665516  0.443429E-01  0.260E+00    0.36       1.0  T
   3    -11.2982405 -0.316889E-01  0.169E+00    0.36       1.0  T
   4    -11.3124905 -0.142500E-01  0.107E+00    0.36       1.0  T
   5    -11.3187837 -0.629314E-02  0.156E-01    0.35       1.0  T
   6    -11.3188967 -0.113029E-03  0.109E-01    0.35       1.0  T
   7    -11.3189206 -0.239146E-04  0.633E-02    0.35       1.0  T
   8    -11.3189467 -0.260462E-04  0.253E-02    0.35       1.8  T
   9    -11.3189502 -0.354396E-05  0.876E-03    0.35       5.1  T
  10    -11.3189506 -0.370253E-06  0.142E-03    0.35      31.5  T
  11    -11.3189506 -0.901579E-08  0.210E-04    0.35     213.2  T
  12    -11.3189506 -0.150653E-09  0.808E-05    0.35     553.6  T
     SCC iter.                  ...        0 min,  0.001 sec
     gradient                   ...        0 min,  0.001 sec
 * total energy  :   -11.1268917 Eh     change       -0.9263600E-03 Eh
   gradient norm :     0.1560635 Eh/α   predicted    -0.3403951E-01 (3574.54%)
   displ. norm   :     0.4472700 α      lambda       -0.3590173E-01
   maximum displ.:     0.3168207 α      in ANC's #1, #2, #3, ...

........................................................................
.............................. CYCLE    6 ..............................
........................................................................
   1    -11.3873637 -0.113874E+02  0.162E+00    0.42       0.0  T
   2    -11.3797415  0.762224E-02  0.138E+00    0.43       1.0  T
   3    -11.3632081  0.165334E-01  0.174E+00    0.42       1.0  T
   4    -11.3875037 -0.242957E-01  0.470E-01    0.42       1.0  T
   5    -11.3887629 -0.125919E-02  0.771E-02    0.42       1.0  T
   6    -11.3887677 -0.480227E-05  0.466E-02    0.42       1.0  T
   7    -11.3887673  0.470466E-06  0.271E-02    0.42       1.6  T
   8    -11.3887709 -0.362403E-05  0.760E-03    0.42       5.9  T
   9    -11.3887711 -0.231916E-06  0.349E-03    0.42      12.8  T
  10    -11.3887711 -0.389217E-07  0.785E-04    0.42      56.9  T
  11    -11.3887711 -0.273267E-08  0.155E-04    0.42     287.9  T
     SCC iter.                  ...        0 min,  0.001 sec
     gradient                   ...        0 min,  0.001 sec
 * total energy  :   -11.1504008 Eh     change       -0.2350901E-01 Eh
   gradient norm :     0.0714544 Eh/α   predicted    -0.2154194E-01 (  -8.37%)
   displ. norm   :     0.5783945 α      lambda       -0.1999013E-01
   maximum displ.:     0.4339592 α      in ANC's #2, #4, #6, ...

........................................................................
.............................. CYCLE    7 ..............................
........................................................................
   1    -11.4099196 -0.114099E+02  0.221E+00    0.41       0.0  T
   2    -11.4074816  0.243797E-02  0.142E+00    0.42       1.0  T
   3    -11.3717706  0.357110E-01  0.230E+00    0.39       1.0  T
   4    -11.4063595 -0.345889E-01  0.876E-01    0.43       1.0  T
   5    -11.4123264 -0.596694E-02  0.150E-01    0.41       1.0  T
   6    -11.4123720 -0.455438E-04  0.933E-02    0.41       1.0  T
   7    -11.4124091 -0.371079E-04  0.422E-02    0.41       1.1  T
   8    -11.4124126 -0.354943E-05  0.175E-02    0.41       2.6  T
   9    -11.4124146 -0.192616E-05  0.475E-03    0.41       9.4  T
  10    -11.4124146 -0.400388E-07  0.108E-03    0.41      41.2  T
  11    -11.4124146 -0.464794E-08  0.233E-04    0.41     191.9  T
  12    -11.4124146 -0.828138E-10  0.392E-05    0.41    1141.8  T
     SCC iter.                  ...        0 min,  0.001 sec
     gradient                   ...        0 min,  0.001 sec
 * total energy  :   -11.1484311 Eh     change        0.1969662E-02 Eh
   gradient norm :     0.1738914 Eh/α   predicted    -0.1333882E-01 (-777.21%)
   displ. norm   :     0.3380266 α      lambda       -0.2368520E-01
   maximum displ.:     0.2814735 α      in ANC's #1, #3, #5, ...

........................................................................
.............................. CYCLE    8 ..............................
........................................................................
   1    -11.4217803 -0.114218E+02  0.122E+00    0.29       0.0  T
   2    -11.4215038  0.276550E-03  0.757E-01    0.29       1.0  T
   3    -11.4152190  0.628476E-02  0.103E+00    0.29       1.0  T
   4    -11.4193310 -0.411201E-02  0.631E-01    0.28       1.0  T
   5    -11.4226066 -0.327552E-02  0.610E-02    0.28       1.0  T
   6    -11.4226161 -0.954676E-05  0.383E-02    0.28       1.2  T
   7    -11.4226162 -0.517908E-07  0.189E-02    0.28       2.4  T
   8    -11.4226176 -0.147933E-05  0.484E-03    0.28       9.2  T
   9    -11.4226177 -0.568443E-07  0.214E-03    0.28      20.9  T
  10    -11.4226177 -0.101511E-07  0.402E-04    0.28     111.1  T
  11    -11.4226177  0.879830E-11  0.123E-04    0.28     364.5  T
     SCC iter.                  ...        0 min,  0.002 sec
     gradient                   ...        0 min,  0.001 sec
 * total energy  :   -11.1623338 Eh     change       -0.1390269E-01 Eh
   gradient norm :     0.0415404 Eh/α   predicted    -0.1319576E-01 (  -5.08%)
   displ. norm   :     0.5148567 α      lambda       -0.6566134E-02
   maximum displ.:     0.3706315 α      in ANC's #2, #1, #3, ...

........................................................................
.............................. CYCLE    9 ..............................
........................................................................
   1    -11.4006530 -0.114007E+02  0.142E+00    0.17       0.0  T
   2    -11.3973223  0.333069E-02  0.105E+00    0.17       1.0  T
   3    -11.3765457  0.207767E-01  0.167E+00    0.18       1.0  T
   4    -11.4007393 -0.241936E-01  0.361E-01    0.17       1.0  T
   5    -11.4012966 -0.557356E-03  0.820E-02    0.17       1.0  T
   6    -11.4013047 -0.809655E-05  0.270E-02    0.17       1.7  T
   7    -11.4013061 -0.132003E-05  0.174E-02    0.17       2.6  T
   8    -11.4013070 -0.970585E-06  0.877E-03    0.17       5.1  T
   9    -11.4013073 -0.256800E-06  0.328E-03    0.17      13.6  T
  10    -11.4013073 -0.338954E-07  0.962E-04    0.17      46.5  T
  11    -11.4013073 -0.269019E-08  0.184E-04    0.17     242.8  T
     SCC iter.                  ...        0 min,  0.001 sec
     gradient                   ...        0 min,  0.002 sec
 * total energy  :   -11.1650035 Eh     change       -0.2669700E-02 Eh
   gradient norm :     0.0888714 Eh/α   predicted    -0.4153338E-02 (  55.57%)
   displ. norm   :     0.4070806 α      lambda       -0.1256306E-01
   maximum displ.:     0.2784142 α      in ANC's #1, #5, #6, ...

........................................................................
.............................. CYCLE   10 ..............................
........................................................................
   1    -11.4412456 -0.114412E+02  0.152E+00    0.16       0.0  T
   2    -11.4353763  0.586929E-02  0.115E+00    0.17       1.0  T
   3    -11.4185653  0.168110E-01  0.175E+00    0.15       1.0  T
   4    -11.4424493 -0.238840E-01  0.164E-01    0.16       1.0  T
   5    -11.4425394 -0.901050E-04  0.779E-02    0.16       1.0  T
   6    -11.4425482 -0.878956E-05  0.440E-02    0.16       1.0  T
   7    -11.4425509 -0.267375E-05  0.197E-02    0.16       2.3  T
   8    -11.4425531 -0.224994E-05  0.547E-03    0.16       8.2  T
   9    -11.4425532 -0.561365E-07  0.270E-03    0.16      16.5  T
  10    -11.4425532 -0.219038E-07  0.691E-04    0.16      64.7  T
  11    -11.4425532 -0.104794E-08  0.154E-04    0.16     290.1  T
     SCC iter.                  ...        0 min,  0.001 sec
     gradient                   ...        0 min,  0.001 sec
 * total energy  :   -11.1628449 Eh     change        0.2158580E-02 Eh
   gradient norm :     0.1578058 Eh/α   predicted    -0.7322467E-02 (-439.23%)
   displ. norm   :     0.2357838 α      lambda       -0.1673591E-01
   maximum displ.:     0.1209935 α      in ANC's #1, #2, #4, ...

........................................................................
.............................. CYCLE   11 ..............................
........................................................................
   1    -11.4539588 -0.114540E+02  0.968E-01    0.14       0.0  T
   2    -11.4537909  0.167867E-03  0.620E-01    0.14       1.0  T
   3    -11.4474129  0.637801E-02  0.930E-01    0.14       1.0  T
   4    -11.4538279 -0.641502E-02  0.267E-01    0.14       1.0  T
   5    -11.4543863 -0.558348E-03  0.904E-02    0.14       1.0  T
   6    -11.4544452 -0.589531E-04  0.194E-02    0.14       2.3  T
   7    -11.4544452  0.714068E-08  0.656E-03    0.14       6.8  T
   8    -11.4544454 -0.193771E-06  0.245E-03    0.14      18.2  T
   9    -11.4544454 -0.236516E-07  0.666E-04    0.14      67.1  T
  10    -11.4544454 -0.257362E-09  0.171E-04    0.14     261.3  T
     SCC iter.                  ...        0 min,  0.001 sec
     gradient                   ...        0 min,  0.001 sec
 * total energy  :   -11.1719516 Eh     change       -0.9106719E-02 Eh
   gradient norm :     0.0268174 Eh/α   predicted    -0.8833162E-02 (  -3.00%)
   displ. norm   :     0.4385482 α      lambda       -0.5786025E-02
   maximum displ.:     0.2958164 α      in ANC's #2, #1, #4, ...

........................................................................
.............................. CYCLE   12 ..............................
........................................................................
   1    -11.3967168 -0.113967E+02  0.142E+00    0.07       0.0  T
   2    -11.3920656  0.465126E-02  0.110E+00    0.08       1.0  T
   3    -11.3772800  0.147856E-01  0.145E+00    0.09       1.0  T
   4    -11.3975138 -0.202338E-01  0.303E-01    0.09       1.0  T
   5    -11.3976644 -0.150673E-03  0.129E-01    0.09       1.0  T
   6    -11.3977150 -0.506025E-04  0.619E-02    0.09       1.0  T
   7    -11.3977348 -0.197455E-04  0.283E-02    0.09       1.6  T
   8    -11.3977363 -0.151273E-05  0.120E-02    0.09       3.7  T
   9    -11.3977371 -0.834874E-06  0.468E-03    0.09       9.6  T
  10    -11.3977372 -0.704608E-07  0.123E-03    0.09      36.4  T
  11    -11.3977372 -0.254767E-08  0.472E-04    0.09      94.8  T
  12    -11.3977372 -0.700028E-09  0.831E-05    0.09     538.0  T
     SCC iter.                  ...        0 min,  0.001 sec
     gradient                   ...        0 min,  0.001 sec
 * total energy  :   -11.1685111 Eh     change        0.3440498E-02 Eh
   gradient norm :     0.1198643 Eh/α   predicted    -0.3449400E-02 (-200.26%)
   displ. norm   :     0.2226904 α      lambda       -0.1152356E-01
   maximum displ.:     0.1774070 α      in ANC's #1, #4, #5, ...

........................................................................
.............................. CYCLE   13 ..............................
........................................................................
   1    -11.4314728 -0.114315E+02  0.835E-01    0.13       0.0  T
   2    -11.4268440  0.462876E-02  0.913E-01    0.13       1.0  T
   3    -11.4296472 -0.280321E-02  0.617E-01    0.12       1.0  T
   4    -11.4321689 -0.252171E-02  0.989E-02    0.12       1.0  T
   5    -11.4321948 -0.258761E-04  0.430E-02    0.12       1.0  T
   6    -11.4321974 -0.256885E-05  0.242E-02    0.12       1.8  T
   7    -11.4321996 -0.219481E-05  0.883E-03    0.12       5.1  T
   8    -11.4321997 -0.145823E-06  0.538E-03    0.12       8.3  T
   9    -11.4321998 -0.128440E-06  0.137E-03    0.12      32.7  T
  10    -11.4321998 -0.355972E-08  0.550E-04    0.12      81.3  T
  11    -11.4321998 -0.123171E-08  0.799E-05    0.12     559.9  T
     SCC iter.                  ...        0 min,  0.001 sec
     gradient                   ...        0 min,  0.001 sec
 * total energy  :   -11.1736550 Eh     change       -0.5143839E-02 Eh
   gradient norm :     0.0718423 Eh/α   predicted    -0.6047508E-02 (  17.57%)
   displ. norm   :     0.2529871 α      lambda       -0.6569201E-02
   maximum displ.:     0.2166233 α      in ANC's #2, #1, #4, ...

........................................................................
.............................. CYCLE   14 ..............................
........................................................................
   1    -11.4781813 -0.114782E+02  0.976E-01    0.08       0.0  T
   2    -11.4783029 -0.121628E-03  0.513E-01    0.09       1.0  T
   3    -11.4780915  0.211355E-03  0.298E-01    0.09       1.0  T
   4    -11.4783279 -0.236385E-03  0.993E-02    0.09       1.0  T
   5    -11.4782399  0.880419E-04  0.125E-01    0.09       1.0  T
   6    -11.4783701 -0.130174E-03  0.325E-02    0.09       1.4  T
   7    -11.4783777 -0.768410E-05  0.960E-03    0.09       4.7  T
   8    -11.4783777 -0.809938E-08  0.437E-03    0.09      10.2  T
   9    -11.4783778 -0.102529E-06  0.927E-04    0.09      48.2  T
  10    -11.4783778 -0.688949E-09  0.199E-04    0.09     224.3  T
     SCC iter.                  ...        0 min,  0.001 sec
     gradient                   ...        0 min,  0.002 sec
 * total energy  :   -11.1707144 Eh     change        0.2940590E-02 Eh
   gradient norm :     0.1064481 Eh/α   predicted    -0.3494823E-02 (-218.85%)
   displ. norm   :     0.2036092 α      lambda       -0.8690458E-02
   maximum displ.:     0.1827240 α      in ANC's #2, #4, #5, ...

........................................................................
.............................. CYCLE   15 ..............................
........................................................................
   1    -11.4487264 -0.114487E+02  0.700E-01    0.10       0.0  T
   2    -11.4487322 -0.573492E-05  0.367E-01    0.10       1.0  T
   3    -11.4474337  0.129843E-02  0.459E-01    0.10       1.0  T
   4    -11.4485160 -0.108228E-02  0.182E-01    0.10       1.0  T
   5    -11.4488183 -0.302342E-03  0.589E-02    0.10       1.0  T
   6    -11.4488366 -0.182759E-04  0.220E-02    0.10       2.0  T
   7    -11.4488393 -0.270362E-05  0.620E-03    0.10       7.2  T
   8    -11.4488393 -0.455663E-08  0.354E-03    0.10      12.6  T
   9    -11.4488394 -0.526038E-07  0.820E-04    0.10      54.6  T
  10    -11.4488394 -0.584141E-09  0.203E-04    0.10     220.8  T
     SCC iter.                  ...        0 min,  0.001 sec
     gradient                   ...        0 min,  0.001 sec
 * total energy  :   -11.1756146 Eh     change       -0.4900266E-02 Eh
   gradient norm :     0.0176310 Eh/α   predicted    -0.4525370E-02 (  -7.65%)
   displ. norm   :     0.2364971 α      lambda       -0.1625020E-02
   maximum displ.:     0.1852644 α      in ANC's #2, #6, #1, ...

........................................................................
.............................. CYCLE   16 ..............................
........................................................................
   1    -11.4359852 -0.114360E+02  0.907E-01    0.07       0.0  T
   2    -11.4351142  0.871061E-03  0.598E-01    0.07       1.0  T
   3    -11.4263730  0.874118E-02  0.101E+00    0.08       1.0  T
   4    -11.4361420 -0.976904E-02  0.151E-01    0.07       1.0  T
   5    -11.4361874 -0.454065E-04  0.596E-02    0.07       1.0  T
   6    -11.4361992 -0.117665E-04  0.187E-02    0.07       2.4  T
   7    -11.4361999 -0.733368E-06  0.116E-02    0.07       3.9  T
   8    -11.4362002 -0.292152E-06  0.603E-03    0.07       7.4  T
   9    -11.4362005 -0.237327E-06  0.173E-03    0.07      25.8  T
  10    -11.4362005 -0.638484E-08  0.486E-04    0.07      92.0  T
  11    -11.4362005 -0.114984E-09  0.231E-04    0.07     194.0  T
     SCC iter.                  ...        0 min,  0.001 sec
     gradient                   ...        0 min,  0.001 sec
 * total energy  :   -11.1762994 Eh     change       -0.6847282E-03 Eh
   gradient norm :     0.0582078 Eh/α   predicted    -0.8579568E-03 (  25.30%)
   displ. norm   :     0.1133588 α      lambda       -0.1606719E-02
   maximum displ.:     0.0681267 α      in ANC's #2, #6, #8, ...

........................................................................
.............................. CYCLE   17 ..............................
........................................................................
   1    -11.4390210 -0.114390E+02  0.411E-01    0.07       0.0  T
   2    -11.4382693  0.751697E-03  0.337E-01    0.08       1.0  T
   3    -11.4376565  0.612750E-03  0.447E-01    0.07       1.0  T
   4    -11.4391475 -0.149101E-02  0.466E-02    0.07       1.0  T
   5    -11.4391519 -0.439581E-05  0.289E-02    0.07       1.5  T
   6    -11.4391556 -0.367168E-05  0.870E-03    0.07       5.1  T
   7    -11.4391557 -0.714241E-07  0.598E-03    0.07       7.5  T
   8    -11.4391559 -0.202540E-06  0.140E-03    0.07      31.9  T
   9    -11.4391559 -0.490340E-08  0.476E-04    0.07      94.0  T
  10    -11.4391559 -0.360158E-09  0.202E-04    0.07     221.5  T
     SCC iter.                  ...        0 min,  0.001 sec
     gradient                   ...        0 min,  0.001 sec
 * total energy  :   -11.1774986 Eh     change       -0.1199285E-02 Eh
   gradient norm :     0.0396512 Eh/α   predicted    -0.8136835E-03 ( -32.15%)
   displ. norm   :     0.2428715 α      lambda       -0.2671658E-02
   maximum displ.:     0.1325998 α      in ANC's #1, #2, #8, ...

........................................................................
.............................. CYCLE   18 ..............................
........................................................................
   1    -11.4478834 -0.114479E+02  0.110E+00    0.03       0.0  T
   2    -11.4478271  0.562485E-04  0.526E-01    0.05       1.0  T
   3    -11.4450807  0.274638E-02  0.587E-01    0.05       1.0  T
   4    -11.4478521 -0.277136E-02  0.172E-01    0.05       1.0  T
   5    -11.4479568 -0.104684E-03  0.697E-02    0.05       1.0  T
   6    -11.4479814 -0.246389E-04  0.145E-02    0.05       3.1  T
   7    -11.4479815 -0.623513E-07  0.949E-03    0.05       4.7  T
   8    -11.4479817 -0.255697E-06  0.407E-03    0.05      11.0  T
   9    -11.4479818 -0.989248E-07  0.803E-04    0.05      55.7  T
  10    -11.4479818 -0.335266E-09  0.284E-04    0.05     157.3  T
     SCC iter.                  ...        0 min,  0.001 sec
     gradient                   ...        0 min,  0.001 sec
 * total energy  :   -11.1794447 Eh     change       -0.1946094E-02 Eh
   gradient norm :     0.0154043 Eh/α   predicted    -0.1414625E-02 ( -27.31%)
   displ. norm   :     0.4299739 α      lambda       -0.2715000E-02
   maximum displ.:     0.2446963 α      in ANC's #2, #8, #6, ...

........................................................................
.............................. CYCLE   19 ..............................
........................................................................
   1    -11.4346617 -0.114347E+02  0.178E+00    0.01       0.0  T
   2    -11.4337583  0.903403E-03  0.933E-01    0.02       1.0  T
   3    -11.4180523  0.157060E-01  0.133E+00    0.02       1.0  T
   4    -11.4347035 -0.166512E-01  0.328E-01    0.02       1.0  T
   5    -11.4350111 -0.307613E-03  0.124E-01    0.02       1.0  T
   6    -11.4350921 -0.809233E-04  0.280E-02    0.02       1.6  T
   7    -11.4350914  0.636129E-06  0.164E-02    0.02       2.7  T
   8    -11.4350925 -0.112176E-05  0.611E-03    0.02       7.3  T
   9    -11.4350928 -0.248774E-06  0.176E-03    0.02      25.3  T
  10    -11.4350928 -0.270268E-08  0.659E-04    0.02      67.9  T
  11    -11.4350928 -0.108630E-08  0.231E-04    0.02     193.3  T
     SCC iter.                  ...        0 min,  0.001 sec
     gradient                   ...        0 min,  0.002 sec
 * total energy  :   -11.1801463 Eh     change       -0.7015296E-03 Eh
   gradient norm :     0.0673524 Eh/α   predicted    -0.1608488E-02 ( 129.28%)
   displ. norm   :     0.1044647 α      lambda       -0.3439310E-02
   maximum displ.:     0.0703454 α      in ANC's #2, #4, #1, ...

........................................................................
.............................. CYCLE   20 ..............................
........................................................................
   1    -11.4630497 -0.114630E+02  0.440E-01    0.02       0.0  T
   2    -11.4595605  0.348920E-02  0.673E-01    0.02       1.0  T
   3    -11.4636721 -0.411159E-02  0.206E-01    0.02       1.0  T
   4    -11.4638018 -0.129741E-03  0.898E-02    0.02       1.0  T
   5    -11.4638253 -0.234100E-04  0.272E-02    0.02       1.6  T
   6    -11.4638266 -0.133061E-05  0.123E-02    0.02       3.6  T
   7    -11.4638269 -0.274972E-06  0.848E-03    0.02       5.3  T
   8    -11.4638269 -0.631725E-07  0.442E-03    0.02      10.1  T
   9    -11.4638271 -0.143293E-06  0.648E-04    0.02      69.0  T
  10    -11.4638271 -0.527095E-09  0.166E-04    0.02     269.9  T
     SCC iter.                  ...        0 min,  0.001 sec
     gradient                   ...        0 min,  0.001 sec
 * total energy  :   -11.1815737 Eh     change       -0.1427382E-02 Eh
   gradient norm :     0.0160239 Eh/α   predicted    -0.1738419E-02 (  21.79%)
   displ. norm   :     0.2019946 α      lambda       -0.1197821E-02
   maximum displ.:     0.1106948 α      in ANC's #1, #2, #8, ...
 * RMSD in coord.:     1.7962785 α      energy gain  -0.2718829E+00 Eh

generating ANC from model Hessian ...
Using Lindh-Hessian (1995)
 Shifting diagonal of input Hessian by    9.5464941783482676E-003
 Lowest  eigenvalues of input Hessian
   -0.000000   -0.000000    0.000000    0.000000    0.000000    0.000000
    0.010000    0.012323    0.154090    0.321141    0.646638    0.783445
    1.147615    2.240896    2.899222
 Highest eigenvalues
    0.321141    0.646638    0.783445    1.147615    2.240896    2.899222


........................................................................
.............................. CYCLE   21 ..............................
........................................................................
   1    -11.4539218 -0.114539E+02  0.712E-01    0.00       0.0  T
   2    -11.4536180  0.303788E-03  0.433E-01    0.01       1.0  T
   3    -11.4498684  0.374965E-02  0.667E-01    0.01       1.0  T
   4    -11.4539686 -0.410019E-02  0.123E-01    0.01       1.0  T
   5    -11.4540146 -0.459894E-04  0.565E-02    0.01       1.0  T
   6    -11.4540292 -0.145864E-04  0.119E-02    0.01       3.8  T
   7    -11.4540293 -0.133589E-06  0.759E-03    0.01       5.9  T
   8    -11.4540295 -0.161573E-06  0.256E-03    0.01      17.5  T
   9    -11.4540295 -0.251689E-07  0.104E-03    0.01      43.0  T
  10    -11.4540295 -0.408719E-08  0.216E-04    0.01     206.8  T
  11    -11.4540295 -0.217639E-10  0.102E-04    0.01     439.8  T
     SCC iter.                  ...        0 min,  0.001 sec
     gradient                   ...        0 min,  0.001 sec
 * total energy  :   -11.1822102 Eh     change       -0.6365593E-03 Eh
   gradient norm :     0.0229794 Eh/α   predicted     0.0000000E+00 (-100.00%)
   displ. norm   :     0.0319837 α      lambda       -0.4752795E-03
   maximum displ.:     0.0224544 α      in ANC's #3, #7, #4, ...

........................................................................
.............................. CYCLE   22 ..............................
........................................................................
   1    -11.4555083 -0.114555E+02  0.153E-01    0.01       0.0  T
   2    -11.4552541  0.254188E-03  0.184E-01    0.01       1.0  T
   3    -11.4555019 -0.247770E-03  0.107E-01    0.01       1.0  T
   4    -11.4555622 -0.603382E-04  0.312E-02    0.01       1.4  T
   5    -11.4555672 -0.498582E-05  0.668E-03    0.01       6.7  T
   6    -11.4555672  0.262625E-08  0.428E-03    0.01      10.5  T
   7    -11.4555673 -0.848538E-07  0.190E-03    0.01      23.5  T
   8    -11.4555673 -0.804024E-09  0.108E-03    0.01      41.3  T
   9    -11.4555673 -0.558484E-08  0.179E-04    0.01     249.4  T
  10    -11.4555673 -0.290967E-10  0.417E-05    0.01    1073.2  T
     SCC iter.                  ...        0 min,  0.001 sec
     gradient                   ...        0 min,  0.001 sec
 * total energy  :   -11.1825055 Eh     change       -0.2952939E-03 Eh
   gradient norm :     0.0066223 Eh/α   predicted    -0.2378812E-03 ( -19.44%)
   displ. norm   :     0.0767257 α      lambda       -0.1868003E-03
   maximum displ.:     0.0679260 α      in ANC's #2, #3, #4, ...

........................................................................
.............................. CYCLE   23 ..............................
........................................................................
   1    -11.4563779 -0.114564E+02  0.272E-01    0.01       0.0  T
   2    -11.4562866  0.912952E-04  0.179E-01    0.01       1.0  T
   3    -11.4556985  0.588134E-03  0.282E-01    0.01       1.0  T
   4    -11.4564023 -0.703854E-03  0.214E-02    0.01       2.1  T
   5    -11.4564025 -0.211081E-06  0.137E-02    0.01       3.3  T
   6    -11.4564034 -0.884644E-06  0.470E-03    0.01       9.5  T
   7    -11.4564034 -0.103649E-07  0.240E-03    0.01      18.6  T
   8    -11.4564034 -0.272092E-07  0.555E-04    0.01      80.5  T
   9    -11.4564034 -0.713102E-09  0.324E-04    0.01     137.9  T
     SCC iter.                  ...        0 min,  0.001 sec
     gradient                   ...        0 min,  0.001 sec
 * total energy  :   -11.1826225 Eh     change       -0.1169915E-03 Eh
   gradient norm :     0.0074924 Eh/α   predicted    -0.9395018E-04 ( -19.69%)
   displ. norm   :     0.1281145 α      lambda       -0.3963286E-03
   maximum displ.:     0.1037908 α      in ANC's #3, #1, #2, ...

........................................................................
.............................. CYCLE   24 ..............................
........................................................................
   1    -11.4574751 -0.114575E+02  0.471E-01    0.00       0.0  T
   2    -11.4572618  0.213276E-03  0.307E-01    0.00       1.0  T
   3    -11.4554850  0.177674E-02  0.480E-01    0.00       1.0  T
   4    -11.4575230 -0.203800E-02  0.488E-02    0.00       1.0  T
   5    -11.4575260 -0.291680E-05  0.195E-02    0.00       2.3  T
   6    -11.4575280 -0.203510E-05  0.498E-03    0.00       9.0  T
   7    -11.4575280 -0.799961E-08  0.188E-03    0.00      23.8  T
   8    -11.4575280 -0.102649E-07  0.645E-04    0.00      69.3  T
   9    -11.4575280 -0.813605E-09  0.288E-04    0.00     155.1  T
     SCC iter.                  ...        0 min,  0.001 sec
     gradient                   ...        0 min,  0.001 sec
 * total energy  :   -11.1828588 Eh     change       -0.2363099E-03 Eh
   gradient norm :     0.0150309 Eh/α   predicted    -0.2014146E-03 ( -14.77%)
   displ. norm   :     0.1992419 α      lambda       -0.4613265E-03
   maximum displ.:     0.1596782 α      in ANC's #3, #2, #1, ...

........................................................................
.............................. CYCLE   25 ..............................
........................................................................
   1    -11.4533773 -0.114534E+02  0.676E-01    0.00       0.0  T
   2    -11.4532481  0.129155E-03  0.418E-01    0.00       1.0  T
   3    -11.4496131  0.363496E-02  0.633E-01    0.00       1.0  T
   4    -11.4534072 -0.379408E-02  0.579E-02    0.00       1.0  T
   5    -11.4534179 -0.106927E-04  0.292E-02    0.00       1.5  T
   6    -11.4534215 -0.354416E-05  0.811E-03    0.00       5.5  T
   7    -11.4534214  0.625240E-07  0.491E-03    0.00       9.1  T
   8    -11.4534215 -0.114333E-06  0.113E-03    0.00      39.4  T
   9    -11.4534215 -0.168598E-08  0.527E-04    0.00      84.9  T
  10    -11.4534215 -0.135742E-08  0.104E-04    0.00     428.5  T
     SCC iter.                  ...        0 min,  0.001 sec
     gradient                   ...        0 min,  0.001 sec
 * total energy  :   -11.1830774 Eh     change       -0.2185426E-03 Eh
   gradient norm :     0.0114697 Eh/α   predicted    -0.2398196E-03 (   9.74%)
   displ. norm   :     0.1233947 α      lambda       -0.2248184E-03
   maximum displ.:     0.0880363 α      in ANC's #1, #2, #3, ...

........................................................................
.............................. CYCLE   26 ..............................
........................................................................
   1    -11.4513721 -0.114514E+02  0.408E-01    0.00       0.0  T
   2    -11.4511820  0.190114E-03  0.278E-01    0.00       1.0  T
   3    -11.4497547  0.142736E-02  0.429E-01    0.00       1.0  T
   4    -11.4514221 -0.166746E-02  0.332E-02    0.00       1.3  T
   5    -11.4514257 -0.356093E-05  0.152E-02    0.00       2.9  T
   6    -11.4514259 -0.199568E-06  0.349E-03    0.00      12.8  T
   7    -11.4514259 -0.404235E-07  0.213E-03    0.00      21.0  T
   8    -11.4514259 -0.190800E-07  0.101E-03    0.00      44.4  T
   9    -11.4514259 -0.344770E-08  0.338E-04    0.00     132.4  T
  10    -11.4514259 -0.428479E-09  0.999E-05    0.00     447.5  T
     SCC iter.                  ...        0 min,  0.001 sec
     gradient                   ...        0 min,  0.002 sec
 * total energy  :   -11.1830469 Eh     change        0.3050268E-04 Eh
   gradient norm :     0.0173560 Eh/α   predicted    -0.1141231E-03 (-474.14%)
   displ. norm   :     0.1000439 α      lambda       -0.3274785E-03
   maximum displ.:     0.0672667 α      in ANC's #2, #3, #1, ...

........................................................................
.............................. CYCLE   27 ..............................
........................................................................
   1    -11.4598882 -0.114599E+02  0.332E-01    0.00       0.0  T
   2    -11.4596953  0.192952E-03  0.249E-01    0.00       1.0  T
   3    -11.4590250  0.670285E-03  0.324E-01    0.00       1.0  T
   4    -11.4599357 -0.910667E-03  0.315E-02    0.00       1.4  T
   5    -11.4599391 -0.346452E-05  0.115E-02    0.00       3.9  T
   6    -11.4599392 -0.258547E-07  0.604E-03    0.00       7.4  T
   7    -11.4599393 -0.142864E-06  0.228E-03    0.00      19.6  T
   8    -11.4599393 -0.969368E-08  0.113E-03    0.00      39.7  T
   9    -11.4599393 -0.783532E-08  0.320E-04    0.00     139.7  T
  10    -11.4599393 -0.187157E-10  0.114E-04    0.00     392.4  T
     SCC iter.                  ...        0 min,  0.001 sec
     gradient                   ...        0 min,  0.001 sec
 * total energy  :   -11.1831371 Eh     change       -0.9029267E-04 Eh
   gradient norm :     0.0059974 Eh/α   predicted    -0.1653770E-03 (  83.16%)
   displ. norm   :     0.0552162 α      lambda       -0.8541708E-04
   maximum displ.:     0.0420159 α      in ANC's #3, #2, #1, ...

........................................................................
.............................. CYCLE   28 ..............................
........................................................................
   1    -11.4566314 -0.114566E+02  0.180E-01    0.00       0.0  T
   2    -11.4566219  0.956958E-05  0.114E-01    0.00       1.0  T
   3    -11.4563296  0.292277E-03  0.176E-01    0.00       1.0  T
   4    -11.4566341 -0.304474E-03  0.149E-02    0.00       3.0  T
   5    -11.4566348 -0.718107E-06  0.639E-03    0.00       7.0  T
   6    -11.4566349 -0.905544E-07  0.248E-03    0.00      18.0  T
   7    -11.4566349 -0.861569E-08  0.150E-03    0.00      29.8  T
   8    -11.4566349 -0.628230E-08  0.394E-04    0.00     113.6  T
   9    -11.4566349 -0.850886E-09  0.159E-04    0.00     282.1  T
     SCC iter.                  ...        0 min,  0.001 sec
     gradient                   ...        0 min,  0.001 sec
 * total energy  :   -11.1831744 Eh     change       -0.3728443E-04 Eh
   gradient norm :     0.0017073 Eh/α   predicted    -0.4284040E-04 (  14.90%)
   displ. norm   :     0.0206148 α      lambda       -0.9729742E-05
   maximum displ.:     0.0167640 α      in ANC's #1, #2, #6, ...

........................................................................
.............................. CYCLE   29 ..............................
........................................................................
   1    -11.4566329 -0.114566E+02  0.689E-02    0.00       0.0  T
   2    -11.4566332 -0.273964E-06  0.394E-02    0.00       1.1  T
   3    -11.4566332 -0.511792E-07  0.453E-03    0.00       9.9  T
   4    -11.4566331  0.120969E-06  0.494E-03    0.00       9.0  T
   5    -11.4566332 -0.123143E-06  0.273E-03    0.00      16.4  T
   6    -11.4566333 -0.537784E-07  0.736E-04    0.00      60.7  T
   7    -11.4566333 -0.327194E-08  0.267E-04    0.00     167.5  T
     SCC iter.                  ...        0 min,  0.001 sec
     gradient                   ...        0 min,  0.001 sec
 * total energy  :   -11.1831806 Eh     change       -0.6154372E-05 Eh
   gradient norm :     0.0016030 Eh/α   predicted    -0.4866862E-05 ( -20.92%)
   displ. norm   :     0.0125856 α      lambda       -0.2943200E-05
   maximum displ.:     0.0100672 α      in ANC's #3, #2, #4, ...

........................................................................
.............................. CYCLE   30 ..............................
........................................................................
   1    -11.4568901 -0.114569E+02  0.425E-02    0.00       0.0  T
   2    -11.4568901 -0.175349E-07  0.259E-02    0.00       1.7  T
   3    -11.4568894  0.657277E-06  0.813E-03    0.00       5.5  T
   4    -11.4568900 -0.620995E-06  0.291E-03    0.00      15.4  T
   5    -11.4568901 -0.584000E-07  0.102E-03    0.00      43.8  T
   6    -11.4568901 -0.141222E-08  0.501E-04    0.00      89.2  T
   7    -11.4568901 -0.834680E-09  0.167E-04    0.00     267.5  T
     SCC iter.                  ...        0 min,  0.001 sec
     gradient                   ...        0 min,  0.001 sec
 * total energy  :   -11.1831835 Eh     change       -0.2958994E-05 Eh
   gradient norm :     0.0012898 Eh/α   predicted    -0.1472742E-05 ( -50.23%)
   displ. norm   :     0.0089257 α      lambda       -0.2641080E-05
   maximum displ.:     0.0055053 α      in ANC's #3, #2, #6, ...

........................................................................
.............................. CYCLE   31 ..............................
........................................................................
   1    -11.4570358 -0.114570E+02  0.311E-02    0.00       0.0  T
   2    -11.4570325  0.328173E-05  0.269E-02    0.00       1.7  T
   3    -11.4570316  0.932248E-06  0.265E-02    0.00       1.7  T
   4    -11.4570365 -0.490580E-05  0.354E-03    0.00      12.6  T
   5    -11.4570366 -0.616682E-07  0.801E-04    0.00      55.8  T
   6    -11.4570366 -0.387601E-10  0.479E-04    0.00      93.3  T
     SCC iter.                  ...        0 min,  0.000 sec
     gradient                   ...        0 min,  0.001 sec
 * total energy  :   -11.1831856 Eh     change       -0.2056141E-05 Eh
   gradient norm :     0.0008128 Eh/α   predicted    -0.1320974E-05 ( -35.75%)
   displ. norm   :     0.0057541 α      lambda       -0.9250518E-06
   maximum displ.:     0.0035288 α      in ANC's #3, #1, #6, ...

   *** GEOMETRY OPTIMIZATION CONVERGED AFTER 31 ITERATIONS ***

------------------------------------------------------------------------
 total energy gain   :        -0.2734948 Eh     -171.6206 kcal/mol
 total RMSD          :         1.9432530 a0        1.0283 Å
 total power (kW/mol):       -23.1632451 (step)-6320.7428 (real)
------------------------------------------------------------------------

 ANCopt (total)                0 d,  0 h,  0 min,  0.114 sec
 optimizer setup                ...        0 min,  0.000 sec (  0.050%)
 model hessian                  ...        0 min,  0.000 sec (  0.115%)
 ANC generation                 ...        0 min,  0.000 sec (  0.074%)
 coordinate transformation      ...        0 min,  0.000 sec (  0.053%)
 single point calculation       ...        0 min,  0.111 sec ( 97.672%)
 optimization log               ...        0 min,  0.001 sec (  0.730%)
 hessian update                 ...        0 min,  0.000 sec (  0.047%)
 rational function              ...        0 min,  0.001 sec (  0.565%)

================
 final structure:
================
5
 xtb: 6.2.2 (9d81278992624c895f80dd42a50cac0aa55982e2)
C        -1.32991546239409   -0.07027687473589    0.00764577116860
C        -0.00124615975558   -0.00547985236436    0.00091474794768
C         1.26346394143541    0.06687032744375   -0.00744230498361
N        -2.49123761408738   -0.12488476959642    0.01099307745935
C         2.55893529480162    0.13377116925287   -0.01211129159202

 Bond Distances (Angstroems)
 ---------------------------
C1-C2=1.3303         C1-N4=1.1626         C2-C1=1.3303         C2-C3=1.2668         C3-C2=1.2668         C3-C5=1.2972         
N4-C1=1.1626         C5-C3=1.2972         
 C  C  Rav=1.2981 sigma=0.0259  Rmin=1.2668  Rmax=1.3303     3
 N  C  Rav=1.1626 sigma=0.0000  Rmin=1.1626  Rmax=1.1626     1

 selected bond angles (degree)
 --------------------
N4-C1-C2=179.84                C3-C2-C1=179.51                C5-C3-C2=179.64                

 selected dihedral angles (degree)
 ---------------------------------
C3-C2-C1-N4= 41.03            C5-C3-C2-C1=161.97            
           -------------------------------------------------
          |                Final Singlepoint                |
           -------------------------------------------------

          ...................................................
          :                      SETUP                      :
          :.................................................:
          :  # basis functions                  20          :
          :  # atomic orbitals                  20          :
          :  # shells                           10          :
          :  # electrons                        21          :
          :  max. iterations                   250          :
          :  Hamiltonian                  GFN2-xTB          :
          :  restarted?                      false          :
          :  GBSA solvation                  false          :
          :  PC potential                    false          :
          :  electronic temp.          300.0000000     K    :
          :  accuracy                    1.0000000          :
          :  -> integral cutoff          0.2500000E+02      :
          :  -> integral neglect         0.1000000E-07      :
          :  -> SCF convergence          0.1000000E-05 Eh   :
          :  -> wf. convergence          0.1000000E-03 e    :
          :  Broyden damping             0.4000000          :
          ...................................................

 iter      E             dE          RMSdq      gap      omega  full diag
   1    -11.4570366 -0.114570E+02  0.204E-04    0.00       0.0  T
   2    -11.4570366  0.742304E-10  0.133E-04    0.00     336.7  T
   3    -11.4570366  0.140901E-10  0.146E-04    0.00     305.8  T

   *** convergence criteria satisfied after 3 iterations ***

         #    Occupation            Energy/Eh            Energy/eV
      -------------------------------------------------------------
         1        2.0000           -0.6935439             -18.8723
       ...           ...                  ...                  ...
         5        2.0000           -0.5517868             -15.0149
         6        2.0000           -0.5517862             -15.0149
         7        2.0000           -0.4995110             -13.5924
         8        2.0000           -0.4995102             -13.5924
         9        2.0000           -0.4769280             -12.9779
        10        2.0000           -0.4550323             -12.3821
        11        0.5001           -0.4009705             -10.9110 (HOMO)
        12        0.4999           -0.4009701             -10.9110 (LUMO)
        13                         -0.2576206              -7.0102
        14                         -0.2576182              -7.0101
        15                         -0.1248637              -3.3977
        16                         -0.1248515              -3.3974
       ...                                ...                  ...
        20                          1.4157982              38.5258
      -------------------------------------------------------------
                  HL-Gap            0.0000004 Eh            0.0000 eV
             Fermi-level           -0.4146444 Eh          -11.2830 eV

 SCC (total)                   0 d,  0 h,  0 min,  0.003 sec
 SCC setup                      ...        0 min,  0.000 sec (  1.223%)
 Dispersion                     ...        0 min,  0.000 sec (  0.380%)
 integral evaluation            ...        0 min,  0.002 sec ( 51.100%)
 zeroth order Hamiltonian       ...        0 min,  0.000 sec (  0.470%)
 iterations                     ...        0 min,  0.000 sec ( 10.635%)
 molecular gradient             ...        0 min,  0.001 sec ( 34.626%)
 printout                       ...        0 min,  0.000 sec (  1.313%)

         :::::::::::::::::::::::::::::::::::::::::::::::::::::
         ::                     SUMMARY                     ::
         :::::::::::::::::::::::::::::::::::::::::::::::::::::
         :: total energy             -11.183185604874 Eh    ::
         :: gradient norm              0.000813374593 Eh/a0 ::
         :: HOMO-LUMO gap              0.000010541014 eV    ::
         ::.................................................::
         :: SCC energy               -11.457036577166 Eh    ::
         :: -> isotropic ES           -0.003896151373 Eh    ::
         :: -> anisotropic ES          0.001058943065 Eh    ::
         :: -> anisotropic XC          0.028910736451 Eh    ::
         :: -> dispersion             -0.002572229277 Eh    ::
         :: repulsion energy           0.273852186456 Eh    ::
         :: add. restraining           0.000000000000 Eh    ::
         :::::::::::::::::::::::::::::::::::::::::::::::::::::

           ------------------------------------------------- 
          |                Numerical Hessian                |
           ------------------------------------------------- 
step length          :   0.00500
SCC accuracy         :   0.30000
Hessian scale factor :   1.00000
frozen atoms in %    :   0.00000    0
RMS gradient         :   0.00082
estimated CPU  time      0.00 min
estimated wall time      0.00 min

writing file <hessian>.

 projected vibrational frequencies (cm-1)
eigval :       -0.00    -0.00     0.00     0.00     0.00     0.00
eigval :      113.07   218.47   271.55   458.85   466.12   781.86
eigval :     1511.16  1956.41  2178.13
           -------------------------------------------------
          |                Property Printout                |
           -------------------------------------------------

    * Orbital Energies and Occupations

         #    Occupation            Energy/Eh            Energy/eV
      -------------------------------------------------------------
         1        2.0000           -0.6935446             -18.8723
         2        2.0000           -0.6875586             -18.7094
         3        2.0000           -0.6657806             -18.1168
         4        2.0000           -0.6190149             -16.8443
         5        2.0000           -0.5517875             -15.0149
         6        2.0000           -0.5517869             -15.0149
         7        2.0000           -0.4995109             -13.5924
         8        2.0000           -0.4995101             -13.5924
         9        2.0000           -0.4769282             -12.9779
        10        2.0000           -0.4550311             -12.3820
        11        0.5001           -0.4009701             -10.9110 (HOMO)
        12        0.4999           -0.4009697             -10.9109 (LUMO)
        13                         -0.2576203              -7.0102
        14                         -0.2576179              -7.0101
        15                         -0.1248640              -3.3977
        16                         -0.1248519              -3.3974
        17                          0.0591258               1.6089
        18                          0.4387185              11.9381
        19                          0.9984684              27.1697
        20                          1.4157977              38.5258
      -------------------------------------------------------------
                  HL-Gap            0.0000004 Eh            0.0000 eV
             Fermi-level           -0.4146438 Eh          -11.2830 eV

     #   Z        covCN         q      C6AA      α(0)
     1   6 C      1.892     0.140    27.713     8.502
     2   6 C      1.964     0.058    29.604     8.787
     3   6 C      1.962     0.068    29.354     8.749
     4   7 N      0.912    -0.156    24.362     7.138
     5   6 C      0.982    -0.110    39.436    10.548

 Mol. C6AA /au·bohr⁶  :        745.826591
Molecule has the following symmetry elements: (Cinf) (sigma) 
It seems to be the Cinfv point group
 Mol. C8AA /au·bohr⁸  :      20599.058741
 Mol. α(0) /au        :         43.724560


Wiberg/Mayer (AO) data.
largest (>0.10) Wiberg bond orders for each atom
          total WBO             WBO to atom ...
     1  C   3.940        N    4 2.537    C    2 1.358
     2  C   3.491        C    3 1.969    C    1 1.358    C    5 0.132
     3  C   3.925        C    2 1.969    C    5 1.813    N    4 0.135
     4  N   2.741        C    1 2.537    C    3 0.135
     5  C   2.020        C    3 1.813    C    2 0.132

MOs/occ written to file <molden.input>


molecular dipole:
                 x           y           z       tot (Debye)
 q only:        0.012      -0.002       0.000
   full:       -0.052      -0.008       0.001       0.135
molecular quadrupole (traceless):
                xx          xy          yy          xz          yz          zz
 q only:       -4.741      -0.360       2.361       0.030       0.002       2.379
  q+dip:       -7.839      -0.586       3.905       0.043       0.002       3.934
   full:      -12.878      -0.975       6.415       0.076       0.004       6.464

           -------------------------------------------------
          |                Geometry Summary                 |
           -------------------------------------------------

      molecular mass/u    :       62.0496468
   center of mass at/Å    :       -0.0801363      -0.0040168       0.0003539
  moments of inertia/u·Å² :        0.7028394E-03   0.2061452E+03   0.2061458E+03
rotational constants/cm⁻¹ :        0.2398504E+05   0.8177553E-01   0.8177527E-01

 * 2 selected distances

     #   Z        #   Z                                     value/Å
     2   6 C      3   6 C                                 1.2668054 (max)
     1   6 C      4   7 N                                 1.1626102 (min)

 * 2 distinct bonds (by element types)

   Z      Z             #   av. dist./Å        max./Å        min./Å
   6 C    6 C           1     1.2668054     1.2668054     1.2668054
   6 C    7 N           1     1.1626102     1.1626102     1.1626102

           -------------------------------------------------
          |               Frequency Printout                |
           -------------------------------------------------
 projected vibrational frequencies (cm-1)
eigval :       -0.00    -0.00     0.00     0.00     0.00     0.00
eigval :      113.07   218.47   271.55   458.85   466.12   781.86
eigval :     1511.16  1956.41  2178.13
 reduced masses (amu)
   1: 12.10   2: 13.19   3: 12.08   4: 12.11   5: 13.31   6: 12.67   7: 12.44   8: 12.05
   9: 12.18  10: 12.27  11: 12.17  12: 12.65  13: 12.19  14: 12.01  15: 12.74
 IR intensities (amu)
   1:  0.10   2:  0.06   3:  0.31   4:  0.07   5:  0.17   6:  0.07   7:  0.51   8:  0.31
   9:  0.06  10:  0.25  11:  0.20  12:  0.07  13:  0.20  14:  0.93  15:  0.50
 Raman intensities (amu)
   1:  0.00   2:  0.00   3:  0.00   4:  0.00   5:  0.00   6:  0.00   7:  0.00   8:  0.00
   9:  0.00  10:  0.00  11:  0.00  12:  0.00  13:  0.00  14:  0.00  15:  0.00
 output can be read by thermo (or use thermo option).
 writing <g98.out> molden fake output.
 recommended (thermochemical) frequency scaling factor: 1.0
           -------------------------------------------------
          |             Thermodynamic Functions             |
           -------------------------------------------------

cin symmetry found (for desy threshold:  0.10E+00) used in thermo

          ...................................................
          :                      SETUP                      :
          :.................................................:
          :  # frequencies                           9      :
          :  # imaginary freq.                       0      :
          :  linear?                             false      :
          :  only rotor calc.                    false      :
          :  symmetry                              cin      :
          :  rotational number                       1      :
          :  scaling factor                  1.0000000      :
          :  rotor cutoff                   50.0000000 cm⁻¹ :
          :  imag. cutoff                  -20.0000000 cm⁻¹ :
          :.................................................:

    mode    ω/cm⁻¹     T·S(HO)/kcal·mol⁻¹    T·S(FR)/kcal·mol⁻¹   T·S(vib)
   ------------------------------------------------------------------------
       1    113.07    -0.00000 ( 96.32%)     0.00641 (  3.68%)     0.00024
       2    218.47    -0.00000 ( 99.73%)     0.01295 (  0.27%)     0.00004
       3    271.55    -0.00000 ( 99.89%)     0.01511 (  0.11%)     0.00002
   ------------------------------------------------------------------------

   temp. (K)  partition function   enthalpy   heat capacity  entropy
                                   cal/mol     cal/K/mol   cal/K/mol   J/K/mol
 298.15  VIB   6.42                 1440.460      8.917      8.511
         ROT   417.                  888.752      2.981     14.973
         INT  0.268E+04             2329.212     11.898     23.483
         TR   0.473E+27             1481.254      4.968     38.278
         TOT                        3810.4664    16.8663    61.7615   258.4102

   temp. (K)  partition function   enthalpy   heat capacity  entropy
                                   cal/mol     cal/K/mol   cal/K/mol   J/K/mol
 120.00  VIB   1.52                  203.058      4.239      2.542
         ROT   107.                  357.707      2.981     12.260
         INT   162.                  560.765      7.220     14.802
         TR   0.121E+27              596.178      4.968     33.759
         TOT                        1156.9433    12.1881    48.5607   203.1778

   temp. (K)  partition function   enthalpy   heat capacity  entropy
                                   cal/mol     cal/K/mol   cal/K/mol   J/K/mol
 100.00  VIB   1.33                  126.628      3.392      1.852
         ROT   81.1                  298.089      2.981     11.716
         INT   108.                  424.717      6.373     13.568
         TR   0.919E+26              496.815      4.968     32.853
         TOT                         921.5319    11.3414    46.4218   194.2288

   temp. (K)  partition function   enthalpy   heat capacity  entropy
                                   cal/mol     cal/K/mol   cal/K/mol   J/K/mol
  80.00  VIB   1.18                   67.782      2.483      1.203
         ROT   58.0                  238.471      2.981     11.051
         INT   68.7                  306.253      5.464     12.254
         TR   0.657E+26              397.452      4.968     31.745
         TOT                         703.7051    10.4323    43.9998   184.0950

   temp. (K)  partition function   enthalpy   heat capacity  entropy
                                   cal/mol     cal/K/mol   cal/K/mol   J/K/mol
  60.00  VIB   1.08                   27.541      1.539      0.633
         ROT   37.7                  178.853      2.981     10.193
         INT   40.6                  206.394      4.520     10.827
         TR   0.427E+26              298.089      4.968     30.317
         TOT                         504.4830     9.4885    41.1436   172.1447

   temp. (K)  partition function   enthalpy   heat capacity  entropy
                                   cal/mol     cal/K/mol   cal/K/mol   J/K/mol
  40.00  VIB   1.02                    5.921      0.641      0.204
         ROT   20.5                  119.236      2.981      8.985
         INT   20.9                  125.156      3.622      9.188
         TR   0.232E+26              198.726      4.968     28.303
         TOT                         323.8823     8.5903    37.4919   156.8659

   temp. (K)  partition function   enthalpy   heat capacity  entropy
                                   cal/mol     cal/K/mol   cal/K/mol   J/K/mol
  20.00  VIB   1.00                    0.095      0.039      0.004
         ROT   7.25                   59.618      2.981      6.919
         INT   7.26                   59.713      3.020      6.922
         TR   0.822E+25               99.363      4.968     24.861
         TOT                         159.0758     7.9877    31.7838   132.9835

   temp. (K)  partition function   enthalpy   heat capacity  entropy
                                   cal/mol     cal/K/mol   cal/K/mol   J/K/mol
  10.00  VIB   1.00                    0.000      0.000     -0.030
         ROT   2.56                   29.809      2.981      4.852
         INT   2.56                   29.809      2.981      4.823
         TR   0.290E+25               49.681      4.968     21.419
         TOT                          79.4904     7.9491    26.2423   109.7976

       T/K    H(0)-H(T)+PV         H(T)/Eh          T*S/Eh         G(T)/Eh
   ------------------------------------------------------------------------
    298.15    0.607236E-02    0.241966E-01    0.293449E-01   -0.514830E-02
    120.00    0.184371E-02    0.199679E-01    0.928636E-02    0.106816E-01
    100.00    0.146855E-02    0.195928E-01    0.739779E-02    0.121950E-01
     80.00    0.112143E-02    0.192456E-01    0.560945E-02    0.136362E-01
     60.00    0.803945E-03    0.189282E-01    0.393399E-02    0.149942E-01
     40.00    0.516139E-03    0.186404E-01    0.238988E-02    0.162505E-01
     20.00    0.253503E-03    0.183777E-01    0.101301E-02    0.173647E-01
     10.00    0.126676E-03    0.182509E-01    0.418197E-03    0.178327E-01 (used)
   ------------------------------------------------------------------------

         :::::::::::::::::::::::::::::::::::::::::::::::::::::
         ::                  THERMODYNAMIC                  ::
         :::::::::::::::::::::::::::::::::::::::::::::::::::::
         :: total free energy         -11.165352903921 Eh   ::
         ::.................................................::
         :: total energy              -11.183185602889 Eh   ::
         :: zero point energy           0.018124219965 Eh   ::
         :: G(RRHO) w/o ZPVE           -0.000291520997 Eh   ::
         :: G(RRHO) contrib.            0.017832698968 Eh   ::
         :::::::::::::::::::::::::::::::::::::::::::::::::::::

optimized geometry written to: xtbopt.xyz


           -------------------------------------------------
          | TOTAL ENERGY              -11.183185602889 Eh   |
          | TOTAL ENTHALPY            -11.164934706863 Eh   |
          | TOTAL FREE ENERGY         -11.165352903921 Eh   |
          | GRADIENT NORM               0.000815387936 Eh/α |
          | HOMO-LUMO GAP               0.000010549944 eV   |
           -------------------------------------------------

------------------------------------------------------------------------
 * finished run on 2020/05/12 at 11:44:00.889     
------------------------------------------------------------------------
 total:
 * wall-time:     0 d,  0 h,  0 min,  0.229 sec
 *  cpu-time:     0 d,  0 h,  0 min,  0.229 sec
 * ratio c/w:     0.998 speedup
 SCF:
 * wall-time:     0 d,  0 h,  0 min,  0.005 sec
 *  cpu-time:     0 d,  0 h,  0 min,  0.005 sec
 * ratio c/w:     1.000 speedup
 ANC optimizer:
 * wall-time:     0 d,  0 h,  0 min,  0.117 sec
 *  cpu-time:     0 d,  0 h,  0 min,  0.117 sec
 * ratio c/w:     0.998 speedup
 numerical hessian:
 * wall-time:     0 d,  0 h,  0 min,  0.092 sec
 *  cpu-time:     0 d,  0 h,  0 min,  0.091 sec
 * ratio c/w:     0.996 speedup

