 Entering Gaussian System
 *********************************************
 Gaussian 98:
 frequency output generated by the xtb code
 *********************************************
                         Standard orientation:
 --------------------------------------------------------------------
  Center     Atomic     Atomic              Coordinates (Angstroms)
  Number     Number      Type              X           Y           Z
 --------------------------------------------------------------------
    1          6             0       -1.329916   -0.070270    0.007651
    2          6             0       -0.001246   -0.005480    0.000915
    3          6             0        1.263464    0.066864   -0.007447
    4          7             0       -2.491238   -0.124872    0.011002
    5          6             0        2.558936    0.133758   -0.012120
 --------------------------------------------------------------------
     1 basis functions        1 primitive gaussians
     1 alpha electrons        1 beta electrons

 Harmonic frequencies (cm**-1), IR intensities (KM/Mole),
 Raman scattering activities (A**4/amu), Raman depolarization ratios,
 reduced masses (AMU), force constants (mDyne/A) and normal coordinates:
                      1                      2                      3
                        a                      a                      a 
 Frequencies --   113.0654               218.4655               271.5507
 Red. masses --    12.4374                12.0460                12.1795
 Frc consts  --     0.0000                 0.0000                 0.0000
 IR Inten    --     0.5147                 0.3124                 0.0618
 Raman Activ --     0.0000                 0.0000                 0.0000
 Depolar     --     0.0000                 0.0000                 0.0000
 Atom AN      X      Y      Z        X      Y      Z        X      Y      Z
   1   6    -0.01   0.15  -0.02     0.01  -0.15  -0.17     0.02  -0.39   0.20
   2   6    -0.03   0.58  -0.07     0.00  -0.06   0.14     0.02  -0.28   0.14
   3   6    -0.01   0.31  -0.03    -0.01   0.28   0.71    -0.04   0.65  -0.34
   4   7     0.02  -0.46   0.05    -0.00   0.07  -0.11    -0.01   0.26  -0.13
   5   6     0.03  -0.56   0.06     0.01  -0.14  -0.56     0.01  -0.25   0.13
                      4                      5                      6
                        a                      a                      a 
 Frequencies --   458.8539               466.1207               781.8557
 Red. masses --    12.2685                12.1673                12.6518
 Frc consts  --     0.0000                 0.0000                 0.0000
 IR Inten    --     0.2513                 0.2046                 0.0693
 Raman Activ --     0.0000                 0.0000                 0.0000
 Depolar     --     0.0000                 0.0000                 0.0000
 Atom AN      X      Y      Z        X      Y      Z        X      Y      Z
   1   6    -0.01   0.08  -0.75     0.03  -0.69  -0.11    -0.43  -0.02   0.00
   2   6     0.01  -0.12   0.48    -0.03   0.59   0.10     0.08  -0.00   0.00
   3   6    -0.01   0.08  -0.19     0.02  -0.25  -0.04     0.37   0.02  -0.00
   4   7     0.00  -0.02   0.36    -0.02   0.28   0.04    -0.57  -0.03   0.00
   5   6     0.00  -0.02   0.08     0.00   0.06   0.01     0.59   0.03  -0.00
                      7                      8                      9
                        a                      a                      a 
 Frequencies --  1511.1606              1956.4135              2178.1269
 Red. masses --    12.1861                12.0136                12.7369
 Frc consts  --     0.0000                 0.0000                 0.0000
 IR Inten    --     0.1975                 0.9256                 0.5022
 Raman Activ --     0.0000                 0.0000                 0.0000
 Depolar     --     0.0000                 0.0000                 0.0000
 Atom AN      X      Y      Z        X      Y      Z        X      Y      Z
   1   6    -0.04  -0.00   0.00     0.12   0.01  -0.00    -0.78  -0.04   0.00
   2   6     0.62   0.03  -0.00    -0.64  -0.04   0.00     0.07   0.00  -0.00
   3   6     0.37   0.02  -0.00     0.72   0.04  -0.00     0.14   0.01  -0.00
   4   7    -0.30  -0.01   0.00     0.04   0.00  -0.00     0.60   0.03  -0.00
   5   6    -0.63  -0.03   0.00    -0.24  -0.01   0.00    -0.08  -0.00   0.00
