$hessian                                                                        
        1.3808519172   0.0633560820  -0.0047668077  -0.2915148419  -0.0121374327
        0.0016221793  -0.1382422357  -0.0077915065   0.0006190517  -0.9955885027
       -0.0457031066   0.0027222927   0.0444936631   0.0022759638  -0.0001967160
        0.0633560820   0.0569048833  -0.0006261183  -0.0123833080  -0.0375221052
       -0.0056501628  -0.0078169603   0.0083538241   0.0036403677  -0.0455853489
       -0.0271602169   0.0024125344   0.0024295351  -0.0005763853   0.0002233790
       -0.0047668077  -0.0006261183   0.0578258230   0.0015838829   0.0006747690
       -0.0352862022   0.0005626830   0.0001085398   0.0093051165   0.0027197245
        0.0001100469  -0.0290254111  -0.0000994827  -0.0002672374  -0.0028193261
       -0.2915148419  -0.0123833080   0.0015838829   1.1243993213   0.0581309546
       -0.0064888555  -0.5342456448  -0.0299823171   0.0036410964  -0.1619001622
       -0.0083870725   0.0006105467  -0.1367386724  -0.0073782570   0.0006533294
       -0.0121374327  -0.0375221052   0.0006747690   0.0581309546   0.0438346093
       -0.0017626492  -0.0294472961  -0.0229699310   0.0020001909  -0.0086682944
        0.0128423558  -0.0001747042  -0.0078779313   0.0038150712  -0.0007376064
        0.0016221793  -0.0056501628  -0.0352862022  -0.0064888555  -0.0017626492
        0.0241792524   0.0034112452   0.0053468020  -0.0085617620   0.0006246539
        0.0038366876   0.0171148879   0.0008307770  -0.0017706776   0.0025538240
       -0.1382422357  -0.0078169603   0.0005626830  -0.5342456448  -0.0294472961
        0.0034112452   1.1131269575   0.0594980380  -0.0054133256   0.0569737944
        0.0030327219  -0.0001448082  -0.4976128714  -0.0252665035   0.0015842056
       -0.0077915065   0.0083538241   0.0001085398  -0.0299823171  -0.0229699310
        0.0053468020   0.0594980380   0.0266959101  -0.0038998782   0.0031245326
       -0.0018295526  -0.0017552161  -0.0248487470  -0.0102502505   0.0001997525
        0.0006190517   0.0036403677   0.0093051165   0.0036410964   0.0020001909
       -0.0085617620  -0.0054133256  -0.0038998782   0.0182946005  -0.0001808510
       -0.0027724059  -0.0075238802   0.0013340286   0.0010317256  -0.0115140747
       -0.9955885027  -0.0455853489   0.0027197245  -0.1619001622  -0.0086682944
        0.0006246539   0.0569737944   0.0031245326  -0.0001808510   1.1256692216
        0.0524123685  -0.0032557037  -0.0251543510  -0.0012832578   0.0000921764
       -0.0457031066  -0.0271602169   0.0001100469  -0.0083870725   0.0128423558
        0.0038366876   0.0030327219  -0.0018295526  -0.0027724059   0.0524123685
        0.0155200946  -0.0013607758  -0.0013549112   0.0006273191   0.0001864472
        0.0027222927   0.0024125344  -0.0290254111   0.0006105467  -0.0001747042
        0.0171148879  -0.0001448082  -0.0017552161  -0.0075238802  -0.0032557037
       -0.0013607758   0.0156072716   0.0000676725   0.0008781617   0.0038271318
        0.0444936631   0.0024295351  -0.0000994827  -0.1367386724  -0.0078779313
        0.0008307770  -0.4976128714  -0.0248487470   0.0013340286  -0.0251543510
       -0.0013549112   0.0000676725   0.6150122317   0.0316520544  -0.0021329953
        0.0022759638  -0.0005763853  -0.0002672374  -0.0073782570   0.0038150712
       -0.0017706776  -0.0252665035  -0.0102502505   0.0010317256  -0.0012832578
        0.0006273191   0.0008781617   0.0316520544   0.0063842455   0.0001280276
       -0.0001967160   0.0002233790  -0.0028193261   0.0006533294  -0.0007376064
        0.0025538240   0.0015842056   0.0001997525  -0.0115140747   0.0000921764
        0.0001864472   0.0038271318  -0.0021329953   0.0001280276   0.0079524451
