5
 energy: -10.909690760928 gnorm: 0.425419046496 xtb: 6.2.2 (9d81278992624c895f80dd42a50cac0aa55982e2)
C        -1.30932900000000    0.38046500000000   -0.24852500000000
C        -0.06928300000000    0.93420900000000    0.43593500000000
C         1.19431600000000    0.55359500000000   -0.31967300000000
N        -1.46819300000000   -1.02972100000000    0.06135100000000
C         1.65248900000000   -0.83854800000000    0.07091200000000
5
 energy: -11.073606748144 gnorm: 0.261697372765 xtb: 6.2.2 (9d81278992624c895f80dd42a50cac0aa55982e2)
C        -1.25954570258385    0.29243574143933   -0.17394706794476
C        -0.05201585555064    0.87817811406171    0.33715286279376
C         1.16189797452171    0.49832145350901   -0.24283156184219
N        -1.49655328769321   -0.92367502423884    0.03272070676574
C         1.64621687130599   -0.74526028477120    0.04690506022745
5
 energy: -11.090274556726 gnorm: 0.525215182859 xtb: 6.2.2 (9d81278992624c895f80dd42a50cac0aa55982e2)
C        -1.18736244724071    0.16404296106185   -0.08173266702918
C        -0.01570064943884    0.85685327056220    0.23169866592871
C         1.12600799845401    0.43845495332816   -0.15535743868429
N        -1.55481756432613   -0.81764793133717   -0.01098945161332
C         1.63187266255167   -0.64170325361505    0.01638089139808
5
 energy: -11.125965389625 gnorm: 0.223139013511 xtb: 6.2.2 (9d81278992624c895f80dd42a50cac0aa55982e2)
C        -1.10932928731755    0.16492941074476   -0.04413542394617
C         0.00746626206324    0.89537424206122    0.20486721233901
C         1.13578520763849    0.46075484934518   -0.15200948790787
N        -1.74174844340465   -0.90247143921380   -0.02643180632010
C         1.70782626102047   -0.61858706293736    0.01770950583513
5
 energy: -11.126891749624 gnorm: 0.156550436520 xtb: 6.2.2 (9d81278992624c895f80dd42a50cac0aa55982e2)
C        -1.23043748881141    0.19289414053867   -0.04981216509585
C        -0.09201012723160    0.92689386392505    0.14796168605566
C         1.21024903784494    0.47471195511112   -0.07219481384096
N        -1.73262288952224   -0.87729444727502    0.00722087642296
C         1.84482146772031   -0.71720551229982   -0.03317558354181
5
 energy: -11.150400756664 gnorm: 0.071622669740 xtb: 6.2.2 (9d81278992624c895f80dd42a50cac0aa55982e2)
C        -1.21626016319457    0.17251594920842   -0.02817106597501
C        -0.04656647797834    0.82144026902416    0.16507511325315
C         1.17828801035698    0.44215150948628   -0.13123050622850
N        -1.84327640322292   -0.81886512864968   -0.02229655835074
C         1.92781503403884   -0.61724259906919    0.01662301730111
5
 energy: -11.148431094858 gnorm: 0.178596856228 xtb: 6.2.2 (9d81278992624c895f80dd42a50cac0aa55982e2)
C        -1.15678492269078    0.06411112447728   -0.05179668376475
C        -0.00262534134605    0.75242189018213    0.11134024112347
C         1.26824300724599    0.49604031092617   -0.04370389867056
N        -2.02757590669656   -0.78542451457485    0.02856530508605
C         1.91874316348739   -0.52714881101075   -0.04440496377421
5
 energy: -11.162333781119 gnorm: 0.042065041728 xtb: 6.2.2 (9d81278992624c895f80dd42a50cac0aa55982e2)
C        -1.22228309693361    0.10563708420250   -0.02172659342810
C        -0.01921357295633    0.71070124716335    0.09867029940067
C         1.22861063023847    0.45719448777755   -0.06757121934071
N        -2.03052784169131   -0.74360710323386    0.00078691829436
C         2.04341388134276   -0.52992571590955   -0.01015940492622
5
 energy: -11.165003480788 gnorm: 0.089352698688 xtb: 6.2.2 (9d81278992624c895f80dd42a50cac0aa55982e2)
C        -1.26942588344500    0.10356018023789   -0.00965206041473
C        -0.02804507720297    0.60080305834990    0.07225005771472
C         1.24722865319792    0.43378900228280   -0.06662218320342
N        -2.16683514008880   -0.67078925364331    0.00188458819818
C         2.21707744753883   -0.46736298722729    0.00213959770525
5
 energy: -11.162844900424 gnorm: 0.161760515121 xtb: 6.2.2 (9d81278992624c895f80dd42a50cac0aa55982e2)
C        -1.33961119379654    0.11282800355157    0.07142466241612
C        -0.01822110727504    0.49345016691021    0.00745029776173
C         1.27382726340578    0.39993741912826   -0.08235347204682
N        -2.19351545683326   -0.60705025455154   -0.04208921793218
C         2.27752049449904   -0.39916533503852    0.04556772980115
5
 energy: -11.171951619847 gnorm: 0.027482815120 xtb: 6.2.2 (9d81278992624c895f80dd42a50cac0aa55982e2)
C        -1.26374065332519    0.06897288095164    0.03174230810161
C        -0.02132316451935    0.48951238338426    0.01839890616058
C         1.24567746715993    0.40528607753799   -0.04988823680936
N        -2.22417484453323   -0.58123552582584   -0.01072223879361
C         2.26356119521783   -0.38253581604806    0.01046926134079
5
 energy: -11.168511122211 gnorm: 0.123232382154 xtb: 6.2.2 (9d81278992624c895f80dd42a50cac0aa55982e2)
C        -1.29846486849412    0.03555817590796    0.07175025295125
C         0.00156121047575    0.42189777099350   -0.02791319973675
C         1.27565656336018    0.39042814765970   -0.03459492151152
N        -2.36352699092242   -0.53138167961089   -0.02829302334345
C         2.38477408558060   -0.31650241495030    0.01905089164049
5
 energy: -11.173654960885 gnorm: 0.073380994836 xtb: 6.2.2 (9d81278992624c895f80dd42a50cac0aa55982e2)
C        -1.27612411159387    0.03605051217262    0.01036776798595
C        -0.01901839989441    0.40427271879370   -0.00733445243181
C         1.27821927577537    0.40659603029779   -0.00975256153193
N        -2.32131187917809   -0.52009179927996    0.02010755401157
C         2.33823511489098   -0.32682746198418   -0.01338830803378
5
 energy: -11.170714370643 gnorm: 0.109759479426 xtb: 6.2.2 (9d81278992624c895f80dd42a50cac0aa55982e2)
C        -1.28177618043097    0.05804169537812    0.04260629487669
C        -0.01222690834186    0.44591811460055    0.00582825852630
C         1.22235244841596    0.35803041897879   -0.04087197930491
N        -2.24981451079564   -0.52915810164851   -0.02132936534455
C         2.32146515115251   -0.33283212730896    0.01376679124647
5
 energy: -11.175614636603 gnorm: 0.018160050473 xtb: 6.2.2 (9d81278992624c895f80dd42a50cac0aa55982e2)
C        -1.28339666348080    0.03409690333763    0.02996798080628
C        -0.01236934036506    0.40881656169729   -0.00972580524006
C         1.25994733292874    0.37598935696606   -0.01648001839147
N        -2.31562454232622   -0.50868771686571    0.00002056286067
C         2.35144321324333   -0.31021510513529   -0.00378272003542
5
 energy: -11.176299364755 gnorm: 0.058832962482 xtb: 6.2.2 (9d81278992624c895f80dd42a50cac0aa55982e2)
C        -1.28977563833407    0.01790263035438    0.01589533717645
C        -0.01461091875591    0.34912687164544   -0.01906710010084
C         1.26145574492846    0.35918506116497    0.00228344943363
N        -2.36755959802420   -0.45800740970674    0.01541477281662
C         2.41049041018570   -0.26820715345807   -0.01452645932585
5
 energy: -11.177498649968 gnorm: 0.040603362165 xtb: 6.2.2 (9d81278992624c895f80dd42a50cac0aa55982e2)
C        -1.29664061810142    0.00417937155066    0.01721275118791
C        -0.00910292731196    0.31963393620324   -0.02663762783707
C         1.27017898997612    0.34797810962699    0.00937147016823
N        -2.38896523841162   -0.43271530619684    0.01697990494519
C         2.42452979384886   -0.23907611118407   -0.01692649846425
5
 energy: -11.179444743968 gnorm: 0.015835671963 xtb: 6.2.2 (9d81278992624c895f80dd42a50cac0aa55982e2)
C        -1.31314347284665   -0.01179547080436    0.02035056447003
C        -0.00639306776429    0.26547495986747   -0.02828945838000
C         1.26458545310474    0.29788283406042    0.01114528119274
N        -2.41825436336298   -0.37470962902890    0.01185671809178
C         2.47320545086916   -0.17685269409466   -0.01506310537454
5
 energy: -11.180146273600 gnorm: 0.067911337064 xtb: 6.2.2 (9d81278992624c895f80dd42a50cac0aa55982e2)
C        -1.31929397854627   -0.05646627761635    0.00746919316430
C        -0.00141890501124    0.16246478969923   -0.02494276458325
C         1.25752266025990    0.22560901559393    0.02182999226228
N        -2.48198902790180   -0.26604480070299    0.01837651620981
C         2.54517925119939   -0.06556272697384   -0.02273293705313
5
 energy: -11.181573655694 gnorm: 0.016193488332 xtb: 6.2.2 (9d81278992624c895f80dd42a50cac0aa55982e2)
C        -1.31097936114087   -0.05537834589350   -0.00026057678160
C        -0.00524032548376    0.17550168412206   -0.00338293684935
C         1.25321277949941    0.21491822461621    0.00712675240103
N        -2.45123036731255   -0.26997072613572    0.01682919518956
C         2.51423727443775   -0.06507083670907   -0.02031243395962
5
 energy: -11.182210214945 gnorm: 0.022979433568 xtb: 6.2.2 (9d81278992624c895f80dd42a50cac0aa55982e2)
C        -1.32763943687759   -0.06176483230037   -0.00151144687950
C        -0.00918878574160    0.12122077034065    0.00062614727774
C         1.25844785150469    0.17826988194151    0.00022133303191
N        -2.47373104491150   -0.22354328893826    0.01616108587908
C         2.55211141602599   -0.01418253104355   -0.01549711930923
5
 energy: -11.182505508797 gnorm: 0.006622481254 xtb: 6.2.2 (9d81278992624c895f80dd42a50cac0aa55982e2)
C        -1.32520735792196   -0.05803509047340   -0.00055145721150
C        -0.00489777463103    0.11388335251497   -0.00152822171669
C         1.26005221484788    0.17043786065824    0.00145407641909
N        -2.47650055952785   -0.22093656639121    0.01619251746122
C         2.54655347723294   -0.00534955630864   -0.01556691495211
5
 energy: -11.182622500321 gnorm: 0.007493439963 xtb: 6.2.2 (9d81278992624c895f80dd42a50cac0aa55982e2)
C        -1.32359984739102   -0.07106648522709    0.00077151368031
C        -0.00375440263847    0.09544622727921    0.00626089258898
C         1.26132125747158    0.16026212750684   -0.00659074805840
N        -2.48111458876854   -0.19911793612115    0.01328941140464
C         2.54714758132642    0.01447606656216   -0.01373106961552
5
 energy: -11.182858810238 gnorm: 0.015034124751 xtb: 6.2.2 (9d81278992624c895f80dd42a50cac0aa55982e2)
C        -1.32593882451602   -0.06187352970824    0.00233407556542
C        -0.00342145229940    0.06200185113316   -0.00981401366078
C         1.26388726109980    0.12774893724239    0.00707738931589
N        -2.48531161374635   -0.18110564499555    0.01678100892840
C         2.55078462946194    0.05322838632820   -0.01637846014893
5
 energy: -11.183077352832 gnorm: 0.011470233025 xtb: 6.2.2 (9d81278992624c895f80dd42a50cac0aa55982e2)
C        -1.33066435752398   -0.05453192641463    0.01316434779494
C        -0.00332863611681    0.00891851364823    0.00859398183936
C         1.26491741312835    0.08111971295169   -0.01777204931622
N        -2.49291947564860   -0.14812155549501    0.00549313122873
C         2.56199505616102    0.11261525530969   -0.00947941154680
5
 energy: -11.183046850155 gnorm: 0.017359487994 xtb: 6.2.2 (9d81278992624c895f80dd42a50cac0aa55982e2)
C        -1.32922031576743   -0.07703919617017    0.00579500859651
C        -0.00238508129746   -0.01363553195078   -0.01294135644481
C         1.26284630618513    0.06743516319276    0.00734745738209
N        -2.49591194932864   -0.11578737100346    0.01570940004699
C         2.56467104020837    0.13902693593161   -0.01591050958078
5
 energy: -11.183137142830 gnorm: 0.005997988173 xtb: 6.2.2 (9d81278992624c895f80dd42a50cac0aa55982e2)
C        -1.32825574987301   -0.06897300502980    0.00596178433812
C        -0.00225444984289    0.01294950370737   -0.00609482459031
C         1.26067955664567    0.08605979103373    0.00078503710406
N        -2.48672981603436   -0.13988551765970    0.01372650145163
C         2.55656045910458    0.10984922794835   -0.01437849830350
5
 energy: -11.183174427255 gnorm: 0.001709834723 xtb: 6.2.2 (9d81278992624c895f80dd42a50cac0aa55982e2)
C        -1.33011776556865   -0.06599836110068    0.00978104642691
C        -0.00182258834257    0.00000364156984    0.00293347527703
C         1.26279662131396    0.07460095400523   -0.01035009844907
N        -2.49090893063180   -0.13291916506438    0.00906683536811
C         2.56005266322904    0.12431293058995   -0.01143125862297
5
 energy: -11.183180581627 gnorm: 0.001603258129 xtb: 6.2.2 (9d81278992624c895f80dd42a50cac0aa55982e2)
C        -1.32970253240037   -0.07104569021373    0.00775240073015
C        -0.00150196141965   -0.00177486448067   -0.00119734487941
C         1.26278308727400    0.07356058014672   -0.00517141443770
N        -2.49132727412601   -0.12787027524299    0.01140553092333
C         2.55974868067201    0.12713024979062   -0.01278917233636
5
 energy: -11.183183540621 gnorm: 0.001290748655 xtb: 6.2.2 (9d81278992624c895f80dd42a50cac0aa55982e2)
C        -1.32996803371367   -0.07040611626001    0.00788433688800
C        -0.00136960439799   -0.00458222008283   -0.00060603376222
C         1.26294138488038    0.06974450566917   -0.00595960777958
N        -2.49116269417643   -0.12595631822002    0.01120399913702
C         2.55955894740770    0.13120014889366   -0.01252269448321
5
 energy: -11.183185596762 gnorm: 0.000813613053 xtb: 6.2.2 (9d81278992624c895f80dd42a50cac0aa55982e2)
C        -1.32991546239409   -0.07027687473589    0.00764577116860
C        -0.00124615975558   -0.00547985236436    0.00091474794768
C         1.26346394143541    0.06687032744375   -0.00744230498361
N        -2.49123761408738   -0.12488476959642    0.01099307745935
C         2.55893529480162    0.13377116925287   -0.01211129159202
