 Entering Gaussian System
 *********************************************
 Gaussian 98:
 frequency output generated by the xtb code
 *********************************************
                         Standard orientation:
 --------------------------------------------------------------------
  Center     Atomic     Atomic              Coordinates (Angstroms)
  Number     Number      Type              X           Y           Z
 --------------------------------------------------------------------
    1          6             0        1.877729   -0.388793    0.094375
    2          6             0        0.727481    0.098232    0.005481
    3          6             0       -0.734823   -0.040411   -0.012392
    4          7             0       -0.395825    1.130649   -0.149587
    5          1             0       -1.474561   -0.799678    0.062123
 --------------------------------------------------------------------
     1 basis functions        1 primitive gaussians
     1 alpha electrons        1 beta electrons

 Harmonic frequencies (cm**-1), IR intensities (KM/Mole),
 Raman scattering activities (A**4/amu), Raman depolarization ratios,
 reduced masses (AMU), force constants (mDyne/A) and normal coordinates:
                      1                      2                      3
                        a                      a                      a 
 Frequencies --   265.2111               369.4076               617.3859
 Red. masses --    11.4713                11.9121                12.8008
 Frc consts  --     0.0000                 0.0000                 0.0000
 IR Inten    --     0.4668                 0.2166                 0.5962
 Raman Activ --     0.0000                 0.0000                 0.0000
 Depolar     --     0.0000                 0.0000                 0.0000
 Atom AN      X      Y      Z        X      Y      Z        X      Y      Z
   1   6    -0.24  -0.49   0.05     0.01  -0.06  -0.45     0.28  -0.07   0.01
   2   6     0.23   0.55  -0.06    -0.02   0.10   0.84     0.06  -0.56   0.07
   3   6     0.33  -0.11   0.02     0.00  -0.01  -0.09     0.24   0.20  -0.02
   4   7    -0.37   0.08  -0.02     0.01  -0.03  -0.24    -0.57   0.39  -0.06
   5   1     0.22  -0.16   0.02     0.00  -0.02  -0.14     0.13  -0.01   0.00
                      4                      5                      6
                        a                      a                      a 
 Frequencies --   783.0216               848.5382               886.9432
 Red. masses --     4.0485                 5.9007                 8.9777
 Frc consts  --     0.0000                 0.0000                 0.0000
 IR Inten    --     0.0026                 0.2440                 0.7337
 Raman Activ --     0.0000                 0.0000                 0.0000
 Depolar     --     0.0000                 0.0000                 0.0000
 Atom AN      X      Y      Z        X      Y      Z        X      Y      Z
   1   6     0.00   0.00   0.01    -0.32   0.15  -0.03    -0.27   0.12  -0.02
   2   6     0.00  -0.02  -0.12    -0.36  -0.17   0.01    -0.33  -0.06  -0.00
   3   6    -0.01   0.06   0.49     0.21   0.02   0.00     0.65  -0.28   0.05
   4   7     0.00  -0.02  -0.13     0.28   0.13  -0.01     0.04   0.10  -0.01
   5   1     0.02  -0.10  -0.85     0.58  -0.48   0.07    -0.33   0.41  -0.06
                      7                      8                      9
                        a                      a                      a 
 Frequencies --  1698.9713              1992.6697              3237.3446
 Red. masses --    12.1735                12.0222                 2.1780
 Frc consts  --     0.0000                 0.0000                 0.0000
 IR Inten    --     0.9370                 0.4532                 0.1826
 Raman Activ --     0.0000                 0.0000                 0.0000
 Depolar     --     0.0000                 0.0000                 0.0000
 Atom AN      X      Y      Z        X      Y      Z        X      Y      Z
   1   6     0.47  -0.21   0.04    -0.41   0.18  -0.03     0.00  -0.00   0.00
   2   6    -0.39   0.18  -0.03     0.56  -0.20   0.04    -0.02   0.01  -0.00
   3   6    -0.18  -0.46   0.05    -0.19  -0.41   0.05     0.21   0.24  -0.02
   4   7     0.11   0.49  -0.06     0.08   0.44  -0.05    -0.00  -0.05   0.01
   5   1    -0.09  -0.16   0.02    -0.14  -0.12   0.01    -0.66  -0.68   0.07
