5
 energy: -9.426141633675 gnorm: 0.249631366501 xtb: 6.2.2 (9d81278992624c895f80dd42a50cac0aa55982e2)
C         1.49166400000000   -0.60455100000000   -0.22083200000000
C         0.59793500000000    0.39273500000000    0.49782600000000
C        -0.82109500000000    0.03255300000000    0.39878900000000
N        -0.26418100000000    1.06993300000000   -0.48164600000000
H        -1.00432200000000   -0.89067100000000   -0.19413700000000
5
 energy: -9.499659156792 gnorm: 0.212052099259 xtb: 6.2.2 (9d81278992624c895f80dd42a50cac0aa55982e2)
C         1.54870324008483   -0.55715883881260   -0.14364975993283
C         0.64440987648853    0.34197495007000    0.38930748172471
C        -0.79191038346113    0.02775693961200    0.34107386248851
N        -0.29627222364492    1.07521740111815   -0.41548184696543
H        -1.10492950946732   -0.88779145198755   -0.17124973731497
5
 energy: -9.510606888683 gnorm: 0.544336682090 xtb: 6.2.2 (9d81278992624c895f80dd42a50cac0aa55982e2)
C         1.58566495418813   -0.47485765239341   -0.01634130395514
C         0.75423313123425    0.22227588258380    0.20975858211821
C        -0.77021471842341    0.08294900930433    0.18394429914703
N        -0.38517912085584    1.03940724117956   -0.26396189495462
H        -1.18450324614313   -0.86977548067428   -0.11339968235548
5
 energy: -9.576544271821 gnorm: 0.097265953278 xtb: 6.2.2 (9d81278992624c895f80dd42a50cac0aa55982e2)
C         1.73385216226130   -0.55294914193751   -0.00161516302541
C         0.71994488096768    0.24263931674864    0.16273226351340
C        -0.79138573368760    0.04894903071804    0.18226324922920
N        -0.42012735492581    1.14593540906718   -0.25218974788883
H        -1.24228295461557   -0.88457561459635   -0.09119060182836
5
 energy: -9.586987733992 gnorm: 0.083452858860 xtb: 6.2.2 (9d81278992624c895f80dd42a50cac0aa55982e2)
C         1.79679662922674   -0.51848545771124    0.03782837052011
C         0.74255507117198    0.19482410763216    0.10315890379647
C        -0.77940712704262    0.04384015442532    0.09319265023060
N        -0.42406232744346    1.20254516746909   -0.20419842788576
H        -1.33588124591264   -0.92272497181533   -0.02998149666142
5
 energy: -9.594465464235 gnorm: 0.046597063759 xtb: 6.2.2 (9d81278992624c895f80dd42a50cac0aa55982e2)
C         1.82553829052886   -0.49232528979899    0.06597390670054
C         0.74867843856281    0.16334960922087    0.06722347136366
C        -0.75648661156615    0.02554213463649    0.05465042346893
N        -0.44410137594306    1.18422700339399   -0.18094559923097
H        -1.37362774158246   -0.88079445745235   -0.00690220230216
5
 energy: -9.595126077119 gnorm: 0.113916308979 xtb: 6.2.2 (9d81278992624c895f80dd42a50cac0aa55982e2)
C         1.77687324400321   -0.47055899962841    0.07840264445967
C         0.73469328679361    0.14016536502326    0.05046405082787
C        -0.72578847517803   -0.00936970162278   -0.01109734093334
N        -0.43516805780830    1.18854893363909   -0.16049959130968
H        -1.35060899781049   -0.84878659741116    0.04273023695547
5
 energy: -9.599273887368 gnorm: 0.042900880744 xtb: 6.2.2 (9d81278992624c895f80dd42a50cac0aa55982e2)
C         1.86540566714962   -0.42467646264934    0.08941382942192
C         0.73047421765646    0.10462241874288    0.02957476523835
C        -0.72070047917847   -0.01807577862513   -0.02250162322155
N        -0.43372239497441    1.15000195883854   -0.15321156882542
H        -1.44145601065320   -0.81187313630694    0.05672459738670
5
 energy: -9.599745488475 gnorm: 0.010186161764 xtb: 6.2.2 (9d81278992624c895f80dd42a50cac0aa55982e2)
C         1.85581761973775   -0.43276652937356    0.09113724499188
C         0.73295705284618    0.11450741867456    0.02630355240778
C        -0.72313565986492   -0.02390208887907   -0.01791522683821
N        -0.43276812888001    1.15741648447317   -0.15273180638938
H        -1.43286988383900   -0.81525628489511    0.05320623582793
5
 energy: -9.600021105321 gnorm: 0.008285280044 xtb: 6.2.2 (9d81278992624c895f80dd42a50cac0aa55982e2)
C         1.85971609288222   -0.41550154804387    0.08332882349465
C         0.72960181361560    0.11422164499504    0.03445334253986
C        -0.72716118649162   -0.03177142291631   -0.01598299056242
N        -0.41291905664738    1.14500751139131   -0.15873307217263
H        -1.44923666335882   -0.81195718542617    0.05693389670054
5
 energy: -9.600180795559 gnorm: 0.006649500210 xtb: 6.2.2 (9d81278992624c895f80dd42a50cac0aa55982e2)
C         1.87571450635399   -0.39667729291681    0.08522930636849
C         0.72814948318498    0.10720556723853    0.02732982843658
C        -0.72974418772788   -0.04369662226086   -0.01767290991070
N        -0.40091696317359    1.13190419885262   -0.15796904816950
H        -1.47320183863750   -0.79873685091348    0.06308282327512
5
 energy: -9.600214171269 gnorm: 0.005130744477 xtb: 6.2.2 (9d81278992624c895f80dd42a50cac0aa55982e2)
C         1.87796111893354   -0.39415484370891    0.08785276132790
C         0.72941977473119    0.10561895053919    0.02280946725643
C        -0.72996943314306   -0.04487631721268   -0.01743946924149
N        -0.40093953868154    1.12985487142741   -0.15615336834003
H        -1.47647092184013   -0.79644366104502    0.06293060899719
5
 energy: -9.600263342669 gnorm: 0.002592229018 xtb: 6.2.2 (9d81278992624c895f80dd42a50cac0aa55982e2)
C         1.88148529391113   -0.38857519848806    0.09261013353789
C         0.73097593387606    0.10072009006741    0.01239282098705
C        -0.73285222127132   -0.04461608326036   -0.01735604378433
N        -0.39876466816800    1.12780520360711   -0.15149388319925
H        -1.48084333834787   -0.79533501192610    0.06384697245864
5
 energy: -9.600276477435 gnorm: 0.002686178743 xtb: 6.2.2 (9d81278992624c895f80dd42a50cac0aa55982e2)
C         1.88064280079803   -0.38774703423526    0.09358604675236
C         0.73026644933045    0.09910794035304    0.00889326703347
C        -0.73459901517346   -0.04295641564355   -0.01590859120640
N        -0.39732013664910    1.12818318190327   -0.15016086061259
H        -1.47898909830592   -0.79658867237750    0.06359013803315
5
 energy: -9.600284466392 gnorm: 0.001882859464 xtb: 6.2.2 (9d81278992624c895f80dd42a50cac0aa55982e2)
C         1.87995707323458   -0.38689090219843    0.09483153464825
C         0.72915421592948    0.09756771189293    0.00534628779294
C        -0.73494261957954   -0.04153121757406   -0.01501940123082
N        -0.39577327685207    1.12975277711242   -0.14879390297745
H        -1.47839439273246   -0.79889936923286    0.06363548176707
5
 energy: -9.600286790014 gnorm: 0.000824121444 xtb: 6.2.2 (9d81278992624c895f80dd42a50cac0aa55982e2)
C         1.87773042782631   -0.38878359265864    0.09438041849217
C         0.72748075822329    0.09823612578861    0.00548405796796
C        -0.73482250276865   -0.04041509717768   -0.01239415261356
N        -0.39583085012212    1.13064700881945   -0.14958637001795
H        -1.47455683315884   -0.79968544477175    0.06211604617137
