 Entering Gaussian System
 *********************************************
 Gaussian 98:
 frequency output generated by the xtb code
 *********************************************
                         Standard orientation:
 --------------------------------------------------------------------
  Center     Atomic     Atomic              Coordinates (Angstroms)
  Number     Number      Type              X           Y           Z
 --------------------------------------------------------------------
    1          6             0       -0.026398   -0.001073    0.000000
    2          7             0        1.110099    0.047510   -0.000004
    3          1             0       -1.083700   -0.046437    0.000004
 --------------------------------------------------------------------
     1 basis functions        1 primitive gaussians
     1 alpha electrons        1 beta electrons

 Harmonic frequencies (cm**-1), IR intensities (KM/Mole),
 Raman scattering activities (A**4/amu), Raman depolarization ratios,
 reduced masses (AMU), force constants (mDyne/A) and normal coordinates:
                      1                      2                      3
                        a                      a                      a 
 Frequencies --   776.0016               776.5499              2295.6494
 Red. masses --     4.1051                 4.0947                11.5214
 Frc consts  --     0.0000                 0.0000                 0.0000
 IR Inten    --     0.0002                 0.0153                 0.6146
 Raman Activ --     0.0000                 0.0000                 0.0000
 Depolar     --     0.0000                 0.0000                 0.0000
 Atom AN      X      Y      Z        X      Y      Z        X      Y      Z
   1   6    -0.00  -0.00  -0.48    -0.02   0.48  -0.00    -0.63  -0.03   0.00
   2   7     0.00   0.00   0.21     0.01  -0.21   0.00     0.68   0.03  -0.00
   3   1     0.00   0.00   0.85     0.04  -0.85   0.00    -0.36  -0.02   0.00
                      4
                        a 
 Frequencies --  3288.3619
 Red. masses --     2.8692
 Frc consts  --     0.0000
 IR Inten    --     0.2722
 Raman Activ --     0.0000
 Depolar     --     0.0000
 Atom AN      X      Y      Z        X      Y      Z        X      Y      Z
   1   6     0.39   0.02  -0.00
   2   7    -0.12  -0.00   0.00
   3   1    -0.91  -0.04   0.00
