      -----------------------------------------------------------      
     |                   =====================                   |     
     |                           x T B                           |     
     |                   =====================                   |     
     |                         S. Grimme                         |     
     |          Mulliken Center for Theoretical Chemistry        |     
     |                    University of Bonn                     |     
      -----------------------------------------------------------      

   * xtb version 6.2.2 (9d81278992624c895f80dd42a50cac0aa55982e2) compiled by '@Darwin' on 04/03/2020

   xtb is free software: you can redistribute it and/or modify it under
   the terms of the GNU Lesser General Public License as published by
   the Free Software Foundation, either version 3 of the License, or
   (at your option) any later version.
   
   xtb is distributed in the hope that it will be useful,
   but WITHOUT ANY WARRANTY; without even the implied warranty of
   MERCHANTABILITY or FITNESS FOR A PARTICULAR PURPOSE.  See the
   GNU Lesser General Public License for more details.
   
   Cite this work as:
   * S. Grimme, C. Bannwarth, P. Shushkov, J. Chem. Theory Comput., 2017,
     13, 1989-2009. DOI: 10.1021/acs.jctc.7b00118
   * C. Bannwarth, S. Ehlert and S. Grimme., J. Chem. Theory Comput., 2019,
     15, 1652-1671. DOI: 10.1021/acs.jctc.8b01176
   * P. Pracht, E. Caldeweyher, S. Ehlert, S. Grimme, ChemRxiv, 2019, preprint.
     DOI: 10.26434/chemrxiv.8326202.v1
   
   for DFT-D4:
   * E. Caldeweyher, C. Bannwarth and S. Grimme, J. Chem. Phys., 2017,
     147, 034112. DOI: 10.1063/1.4993215
   * E. Caldeweyher, S. Ehlert, A. Hansen, H. Neugebauer, S. Spicher,
     C. Bannwarth and S. Grimme, J. Chem. Phys., 2019, 150, 154122.
     DOI: 10.1063/1.5090222
   
   for sTDA-xTB:
   * S. Grimme and C. Bannwarth, J. Chem. Phys., 2016, 145, 054103.
     DOI: 10.1063/1.4959605
   
   in the mass-spec context:
   * V. Asgeirsson, C. Bauer and S. Grimme, Chem. Sci., 2017, 8, 4879.
     DOI: 10.1039/c7sc00601b
   
   for metadynamics refer to:
   * S. Grimme, J. Chem. Theory Comput., 2019, 155, 2847-2862
     DOI: 10.1021/acs.jctc.9b00143
   
   with help from (in alphabetical order)
   C. Bannwarth, F. Bohle, G. Brandenburg, E. Caldeweyher, M. Checinski,
   S. Dohm, S. Ehlert, S. Ehrlich, F. März, H. Neugebauer, J. Pisarek,
   P. Pracht, P. Shushkov, and S. Spicher.
   
 * started run on 2020/05/12 at 11:44:59.497     

           -------------------------------------------------
          |                Calculation Setup                |
           -------------------------------------------------

          program call               : xtb --input H1C3N1_23_S_2.input H1C3N1_23_S_2.xyz --ohess --molden --namespace H1C3N1_23_S_2 output.out
          calculation namespace      : H1C3N1_23_S_2
          coordinate file            : H1C3N1_23_S_2.xyz
          number of atoms            :                     5
          number of electrons        :                    18
          charge                     :                     0
          spin                       :                   1.0
          first test random number   :      0.03710148718536

   ID    Z sym.   atoms
    1    6 C      1-3
    2    7 N      4
    3    1 H      5

           -------------------------------------------------
          |                 G F N 2 - x T B                 |
           -------------------------------------------------

        Reference                      10.1021/acs.jctc.8b01176
      * Hamiltonian:
        H0-scaling (s, p, d)           1.850000    2.230000    2.230000
        zeta-weighting                 0.500000
      * Dispersion:
        s8                             2.700000
        a1                             0.520000
        a2                             5.000000
        s9                             5.000000
      * Repulsion:
        kExp                           1.500000    1.000000
        rExp                           1.000000
      * Coulomb:
        alpha                          2.000000
        third order                    shell-resolved
        anisotropic                    true
        a3                             3.000000
        a5                             4.000000
        cn-shift                       1.200000
        cn-exp                         4.000000
        max-rad                        5.000000


          ...................................................
          :                      SETUP                      :
          :.................................................:
          :  # basis functions                  17          :
          :  # atomic orbitals                  17          :
          :  # shells                            9          :
          :  # electrons                        18          :
          :  max. iterations                   250          :
          :  Hamiltonian                  GFN2-xTB          :
          :  restarted?                      false          :
          :  GBSA solvation                  false          :
          :  PC potential                    false          :
          :  electronic temp.          300.0000000     K    :
          :  accuracy                    1.0000000          :
          :  -> integral cutoff          0.2500000E+02      :
          :  -> integral neglect         0.1000000E-07      :
          :  -> SCF convergence          0.1000000E-05 Eh   :
          :  -> wf. convergence          0.1000000E-03 e    :
          :  Broyden damping             0.4000000          :
          ...................................................

 iter      E             dE          RMSdq      gap      omega  full diag
   1     -9.4659112 -0.946591E+01  0.725E+00    0.10       0.0  T
   2     -9.2652759  0.200635E+00  0.761E+00    0.44       1.0  T
   3     -9.4129617 -0.147686E+00  0.518E+00    0.57       1.0  T
   4     -9.4049547  0.800693E-02  0.465E+00    0.44       1.0  T
   5     -9.5127650 -0.107810E+00  0.133E+00    0.26       1.0  T
   6     -9.5225937 -0.982870E-02  0.685E-01    0.47       1.0  T
   7     -9.5234407 -0.846960E-03  0.491E-01    0.44       1.0  T
   8     -9.5239220 -0.481327E-03  0.662E-02    0.44       1.0  T
   9     -9.5239258 -0.380877E-05  0.345E-02    0.44       1.3  T
  10     -9.5239307 -0.488910E-05  0.944E-03    0.44       4.7  T
  11     -9.5239311 -0.386772E-06  0.353E-03    0.44      12.7  T
  12     -9.5239311  0.264953E-08  0.123E-03    0.44      36.5  T
  13     -9.5239311 -0.613852E-08  0.409E-04    0.44     109.4  T
  14     -9.5239311 -0.740894E-09  0.345E-05    0.44    1297.5  T

   *** convergence criteria satisfied after 14 iterations ***

         #    Occupation            Energy/Eh            Energy/eV
      -------------------------------------------------------------
         1        2.0000           -0.7156829             -19.4747
       ...           ...                  ...                  ...
         4        2.0000           -0.5612398             -15.2721
         5        2.0000           -0.5427243             -14.7683
         6        2.0000           -0.5151216             -14.0172
         7        2.0000           -0.4954012             -13.4806
         8        1.9999           -0.4256101             -11.5814
         9        1.0001           -0.4081900             -11.1074
        10        0.9998           -0.4033700             -10.9763 (HOMO)
        11        0.0002           -0.3872349             -10.5372 (LUMO)
        12                         -0.2706142              -7.3638
        13                         -0.0170159              -0.4630
        14                         -0.0055709              -0.1516
        15                          0.0458368               1.2473
       ...                                ...                  ...
        17                          0.2576155               7.0101
      -------------------------------------------------------------
                  HL-Gap            0.0161351 Eh            0.4391 eV
             Fermi-level           -0.4061012 Eh          -11.0506 eV

 transition dipole moment (au) for excitation:           9          10
     X       Y       Z   
   0.0407   0.2307  -0.0353  total (au/Debye):    0.237   0.602
 dE (eV)             :    0.131
 oscillator strength :  0.25513E-03

 SCC (total)                   0 d,  0 h,  0 min,  0.004 sec
 SCC setup                      ...        0 min,  0.000 sec (  1.629%)
 Dispersion                     ...        0 min,  0.000 sec (  0.292%)
 integral evaluation            ...        0 min,  0.001 sec ( 21.964%)
 zeroth order Hamiltonian       ...        0 min,  0.000 sec (  0.357%)
 iterations                     ...        0 min,  0.001 sec ( 33.685%)
 molecular gradient             ...        0 min,  0.001 sec ( 23.945%)
 printout                       ...        0 min,  0.001 sec ( 17.846%)

         :::::::::::::::::::::::::::::::::::::::::::::::::::::
         ::                     SUMMARY                     ::
         :::::::::::::::::::::::::::::::::::::::::::::::::::::
         :: total energy              -9.456791056430 Eh    ::
         :: gradient norm              0.193369406479 Eh/a0 ::
         :: HOMO-LUMO gap              0.439058438424 eV    ::
         ::.................................................::
         :: SCC energy                -9.523931112532 Eh    ::
         :: -> isotropic ES           -0.003115774909 Eh    ::
         :: -> anisotropic ES          0.000102919550 Eh    ::
         :: -> anisotropic XC          0.007644736859 Eh    ::
         :: -> dispersion             -0.002154856537 Eh    ::
         :: repulsion energy           0.067140022100 Eh    ::
         :: add. restraining           0.000000000000 Eh    ::
         :::::::::::::::::::::::::::::::::::::::::::::::::::::

      ----------------------------------------------------------- 
     |                   =====================                   |
     |                        A N C O P T                        |
     |                   =====================                   |
     |               Approximate Normal Coordinate               |
     |                Rational Function Optimizer                |
      ----------------------------------------------------------- 

          ...................................................
          :                      SETUP                      :
          :.................................................:
          :   optimization level            normal          :
          :   max. optcycles                   200          :
          :   ANC micro-cycles                  20          :
          :   degrees of freedom                 9          :
          :.................................................:
          :   RF solver                   davidson          :
          :   write xtbopt.log                true          :
          :   linear?                        false          :
          :   energy convergence         0.5000000E-05 Eh   :
          :   grad. convergence          0.1000000E-02 Eh/α :
          :   maximium RF displ.         1.0000000          :
          :   Hlow (freq-cutoff)         0.1000000E-01      :
          :   Hmax (freq-cutoff)         5.0000000          :
          :   S6 in model hess.         20.0000000          :
          ...................................................

generating ANC from model Hessian ...
Using Lindh-Hessian (1995)
 Shifting diagonal of input Hessian by    0.0000000000000000     
 Lowest  eigenvalues of input Hessian
   -0.000000   -0.000000   -0.000000    0.000000    0.000000    0.000000
    0.025361    0.089330    0.108554    0.278017    0.693271    0.870946
    0.996034    1.059679    1.153835
 Highest eigenvalues
    0.278017    0.693271    0.870946    0.996034    1.059679    1.153835


........................................................................
.............................. CYCLE    1 ..............................
........................................................................
   1     -9.5239311 -0.952393E+01  0.294E-05    0.44       0.0  T
   2     -9.5239311  0.393943E-10  0.780E-05    0.44     573.0  T
   3     -9.5239311 -0.436007E-10  0.147E-05    0.44    3045.8  T
     SCC iter.                  ...        0 min,  0.001 sec
     gradient                   ...        0 min,  0.001 sec
 * total energy  :    -9.4567911 Eh     change        0.6742873E-10 Eh
   gradient norm :     0.1933694 Eh/α   predicted     0.0000000E+00 (-100.00%)
   displ. norm   :     0.5862932 α      lambda       -0.7041242E-01
   maximum displ.:     0.4595922 α      in ANC's #1, #3, #2, ...

........................................................................
.............................. CYCLE    2 ..............................
........................................................................
   1     -9.5682510 -0.956825E+01  0.255E+00    0.93       0.0  T
   2     -9.5586182  0.963283E-02  0.202E+00    1.01       1.0  T
   3     -9.5496205  0.899763E-02  0.189E+00    0.92       1.0  T
   4     -9.5707408 -0.211202E-01  0.547E-01    0.85       1.0  T
   5     -9.5715817 -0.840943E-03  0.249E-01    0.93       1.0  T
   6     -9.5715963 -0.146351E-04  0.208E-01    0.93       1.0  T
   7     -9.5714260  0.170331E-03  0.173E-01    0.96       1.0  T
   8     -9.5716437 -0.217688E-03  0.124E-02    0.95       3.6  T
   9     -9.5716438 -0.104920E-06  0.252E-03    0.95      17.8  T
  10     -9.5716438 -0.140979E-07  0.116E-03    0.95      38.7  T
  11     -9.5716438 -0.281872E-08  0.213E-04    0.95     210.1  T
  12     -9.5716438 -0.889440E-10  0.472E-05    0.95     946.7  T
     SCC iter.                  ...        0 min,  0.001 sec
     gradient                   ...        0 min,  0.001 sec
 * total energy  :    -9.4920433 Eh     change       -0.3525220E-01 Eh
   gradient norm :     0.1314525 Eh/α   predicted    -0.4730796E-01 (  34.20%)
   displ. norm   :     0.5050618 α      lambda       -0.5094215E-01
   maximum displ.:     0.3342519 α      in ANC's #1, #7, #4, ...

........................................................................
.............................. CYCLE    3 ..............................
........................................................................
   1     -9.5835281 -0.958353E+01  0.503E+00    1.72       0.0  T
   2     -9.4409403  0.142588E+00  0.587E+00    0.31       1.0  T
   3     -9.6521583 -0.211218E+00  0.159E+00    1.45       1.0  T
   4     -9.6539628 -0.180449E-02  0.107E+00    1.50       1.0  T
   5     -9.6537645  0.198220E-03  0.883E-01    1.49       1.0  T
   6     -9.6541104 -0.345898E-03  0.569E-01    1.49       1.0  T
   7     -9.6557380 -0.162754E-02  0.426E-01    1.45       1.0  T
   8     -9.6561276 -0.389606E-03  0.186E-01    1.46       1.0  T
   9     -9.6561295 -0.196135E-05  0.186E-01    1.48       1.0  T
  10     -9.6562233 -0.937201E-04  0.277E-02    1.47       1.6  T
  11     -9.6562249 -0.162091E-05  0.127E-02    1.47       3.5  T
  12     -9.6562253 -0.436755E-06  0.363E-03    1.47      12.3  T
  13     -9.6562254 -0.339340E-07  0.103E-03    1.47      43.3  T
  14     -9.6562254 -0.265466E-08  0.249E-04    1.47     179.6  T
  15     -9.6562254 -0.158627E-09  0.629E-05    1.47     710.9  T
     SCC iter.                  ...        0 min,  0.001 sec
     gradient                   ...        0 min,  0.001 sec
 * total energy  :    -9.4960536 Eh     change       -0.4010362E-02 Eh
   gradient norm :     0.1765483 Eh/α   predicted    -0.3196844E-01 ( 697.15%)
   displ. norm   :     0.2159029 α      lambda       -0.2950473E-01
   maximum displ.:     0.1323446 α      in ANC's #1, #7, #9, ...

........................................................................
.............................. CYCLE    4 ..............................
........................................................................
   1     -9.6127598 -0.961276E+01  0.179E+00    1.57       0.0  T
   2     -9.4981392  0.114621E+00  0.494E+00    2.02       1.0  T
   3     -9.6228492 -0.124710E+00  0.925E-01    1.62       1.0  T
   4     -9.6206678  0.218143E-02  0.100E+00    1.66       1.0  T
   5     -9.6244137 -0.374596E-02  0.458E-01    1.61       1.0  T
   6     -9.6239289  0.484784E-03  0.530E-01    1.61       1.0  T
   7     -9.6250439 -0.111499E-02  0.489E-02    1.62       1.0  T
   8     -9.6250040  0.399696E-04  0.120E-01    1.63       1.0  T
   9     -9.6250399 -0.359356E-04  0.537E-02    1.62       1.0  T
  10     -9.6250461 -0.618776E-05  0.225E-02    1.62       2.0  T
  11     -9.6250476 -0.157367E-05  0.359E-03    1.63      12.4  T
  12     -9.6250477 -0.288600E-07  0.205E-03    1.63      21.8  T
  13     -9.6250477 -0.123570E-07  0.201E-04    1.63     222.4  T
  14     -9.6250477 -0.100398E-09  0.649E-05    1.63     689.6  T
     SCC iter.                  ...        0 min,  0.001 sec
     gradient                   ...        0 min,  0.001 sec
 * total energy  :    -9.5093177 Eh     change       -0.1326407E-01 Eh
   gradient norm :     0.0215417 Eh/α   predicted    -0.1544003E-01 (  16.40%)
   displ. norm   :     0.1049787 α      lambda       -0.1829853E-02
   maximum displ.:     0.0686615 α      in ANC's #1, #4, #5, ...

........................................................................
.............................. CYCLE    5 ..............................
........................................................................
   1     -9.6163460 -0.961635E+01  0.239E+00    2.09       0.0  T
   2     -9.5257096  0.906365E-01  0.429E+00    1.43       1.0  T
   3     -9.6211790 -0.954694E-01  0.143E+00    2.03       1.0  T
   4     -9.6233797 -0.220074E-02  0.143E+00    1.97       1.0  T
   5     -9.6312930 -0.791329E-02  0.237E-01    2.00       1.0  T
   6     -9.6312343  0.586765E-04  0.177E-01    2.00       1.0  T
   7     -9.6313339 -0.996174E-04  0.174E-01    1.99       1.0  T
   8     -9.6314279 -0.939503E-04  0.199E-02    2.00       2.3  T
   9     -9.6314282 -0.302781E-06  0.121E-02    2.00       3.7  T
  10     -9.6314281  0.109673E-06  0.131E-02    2.00       3.4  T
  11     -9.6314282 -0.149126E-06  0.105E-02    2.00       4.2  T
  12     -9.6314286 -0.363904E-06  0.321E-04    2.00     139.5  T
  13     -9.6314286 -0.229436E-09  0.199E-04    2.00     224.7  T
     SCC iter.                  ...        0 min,  0.001 sec
     gradient                   ...        0 min,  0.001 sec
 * total energy  :    -9.5107773 Eh     change       -0.1459613E-02 Eh
   gradient norm :     0.0172528 Eh/α   predicted    -0.9250076E-03 ( -36.63%)
   displ. norm   :     0.3069844 α      lambda       -0.4637161E-02
   maximum displ.:     0.2651940 α      in ANC's #4, #1, #5, ...

........................................................................
.............................. CYCLE    6 ..............................
........................................................................
   1     -9.6340795 -0.963408E+01  0.289E+00    2.95       0.0  T
   2     -9.6167434  0.173362E-01  0.226E+00    2.88       1.0  T
   3     -9.6118300  0.491341E-02  0.217E+00    2.92       1.0  T
   4     -9.6385041 -0.266742E-01  0.766E-01    2.94       1.0  T
   5     -9.6395809 -0.107682E-02  0.349E-01    2.90       1.0  T
   6     -9.6394988  0.821485E-04  0.390E-01    2.90       1.0  T
   7     -9.6398158 -0.317008E-03  0.762E-02    2.89       1.0  T
   8     -9.6398400 -0.242403E-04  0.127E-02    2.89       3.5  T
   9     -9.6398401 -0.915546E-07  0.434E-03    2.89      10.3  T
  10     -9.6398402 -0.127381E-07  0.120E-03    2.89      37.4  T
  11     -9.6398402 -0.409146E-09  0.258E-04    2.89     173.1  T
  12     -9.6398402 -0.131314E-09  0.594E-05    2.89     753.3  T
     SCC iter.                  ...        0 min,  0.001 sec
     gradient                   ...        0 min,  0.001 sec
 * total energy  :    -9.5138217 Eh     change       -0.3044403E-02 Eh
   gradient norm :     0.0472954 Eh/α   predicted    -0.2537084E-02 ( -16.66%)
   displ. norm   :     0.0916440 α      lambda       -0.2322790E-02
   maximum displ.:     0.0555645 α      in ANC's #4, #1, #2, ...

........................................................................
.............................. CYCLE    7 ..............................
........................................................................
   1     -9.6358081 -0.963581E+01  0.663E-01    2.97       0.0  T
   2     -9.6346460  0.116208E-02  0.533E-01    2.93       1.0  T
   3     -9.6347159 -0.699005E-04  0.521E-01    2.98       1.0  T
   4     -9.6360479 -0.133201E-02  0.177E-01    2.97       1.0  T
   5     -9.6361946 -0.146634E-03  0.575E-02    2.97       1.0  T
   6     -9.6361970 -0.246948E-05  0.470E-02    2.97       1.0  T
   7     -9.6362009 -0.381999E-05  0.278E-02    2.97       1.6  T
   8     -9.6362023 -0.147219E-05  0.193E-03    2.96      23.1  T
   9     -9.6362023 -0.847763E-08  0.446E-04    2.96     100.2  T
  10     -9.6362023 -0.433413E-09  0.115E-04    2.96     389.5  T
     SCC iter.                  ...        0 min,  0.001 sec
     gradient                   ...        0 min,  0.001 sec
 * total energy  :    -9.5150347 Eh     change       -0.1213027E-02 Eh
   gradient norm :     0.0333212 Eh/α   predicted    -0.1171149E-02 (  -3.45%)
   displ. norm   :     0.1744204 α      lambda       -0.4257845E-02
   maximum displ.:     0.0960704 α      in ANC's #4, #2, #6, ...

........................................................................
.............................. CYCLE    8 ..............................
........................................................................
   1     -9.6319213 -0.963192E+01  0.951E-01    2.94       0.0  T
   2     -9.6317519  0.169407E-03  0.537E-01    2.97       1.0  T
   3     -9.6297868  0.196505E-02  0.654E-01    2.96       1.0  T
   4     -9.6322674 -0.248056E-02  0.127E-01    2.95       1.0  T
   5     -9.6323198 -0.524650E-04  0.340E-02    2.96       1.3  T
   6     -9.6323213 -0.145030E-05  0.231E-02    2.96       1.9  T
   7     -9.6323230 -0.170904E-05  0.633E-03    2.96       7.1  T
   8     -9.6323231 -0.118503E-06  0.188E-03    2.96      23.8  T
   9     -9.6323231 -0.122798E-08  0.345E-04    2.96     129.5  T
  10     -9.6323231 -0.284125E-09  0.389E-05    2.96    1150.1  T
     SCC iter.                  ...        0 min,  0.001 sec
     gradient                   ...        0 min,  0.001 sec
 * total energy  :    -9.5169225 Eh     change       -0.1887760E-02 Eh
   gradient norm :     0.0242368 Eh/α   predicted    -0.2193692E-02 (  16.21%)
   displ. norm   :     0.0714059 α      lambda       -0.1262638E-02
   maximum displ.:     0.0438719 α      in ANC's #2, #3, #4, ...

........................................................................
.............................. CYCLE    9 ..............................
........................................................................
   1     -9.6386810 -0.963868E+01  0.430E-01    3.08       0.0  T
   2     -9.6386235  0.574483E-04  0.261E-01    3.05       1.0  T
   3     -9.6383226  0.300940E-03  0.284E-01    3.07       1.0  T
   4     -9.6387553 -0.432706E-03  0.583E-02    3.07       1.0  T
   5     -9.6387743 -0.189942E-04  0.195E-02    3.06       2.3  T
   6     -9.6387755 -0.120610E-05  0.982E-03    3.06       4.6  T
   7     -9.6387757 -0.141135E-06  0.190E-03    3.06      23.5  T
   8     -9.6387757 -0.292101E-08  0.845E-04    3.06      52.9  T
   9     -9.6387757 -0.141782E-08  0.154E-04    3.06     289.8  T
     SCC iter.                  ...        0 min,  0.001 sec
     gradient                   ...        0 min,  0.001 sec
 * total energy  :    -9.5176651 Eh     change       -0.7425908E-03 Eh
   gradient norm :     0.0175397 Eh/α   predicted    -0.6345377E-03 ( -14.55%)
   displ. norm   :     0.0349025 α      lambda       -0.4467362E-03
   maximum displ.:     0.0165617 α      in ANC's #4, #9, #7, ...

........................................................................
.............................. CYCLE   10 ..............................
........................................................................
   1     -9.6394964 -0.963950E+01  0.278E-01    3.08       0.0  T
   2     -9.6394936  0.281055E-05  0.163E-01    3.07       1.0  T
   3     -9.6394646  0.290454E-04  0.134E-01    3.08       1.0  T
   4     -9.6395447 -0.801798E-04  0.927E-03    3.08       4.8  T
   5     -9.6395443  0.388598E-06  0.756E-03    3.08       5.9  T
   6     -9.6395448 -0.422321E-06  0.724E-04    3.08      61.8  T
   7     -9.6395448 -0.934559E-10  0.365E-04    3.08     122.4  T
     SCC iter.                  ...        0 min,  0.001 sec
     gradient                   ...        0 min,  0.001 sec
 * total energy  :    -9.5179778 Eh     change       -0.3127154E-03 Eh
   gradient norm :     0.0077215 Eh/α   predicted    -0.2236407E-03 ( -28.48%)
   displ. norm   :     0.0324873 α      lambda       -0.2036193E-03
   maximum displ.:     0.0173790 α      in ANC's #1, #7, #9, ...

........................................................................
.............................. CYCLE   11 ..............................
........................................................................
   1     -9.6390461 -0.963905E+01  0.252E-01    3.08       0.0  T
   2     -9.6389952  0.508963E-04  0.174E-01    3.08       1.0  T
   3     -9.6389882  0.708440E-05  0.151E-01    3.08       1.0  T
   4     -9.6390916 -0.103408E-03  0.508E-02    3.08       1.0  T
   5     -9.6391082 -0.165855E-04  0.889E-03    3.07       5.0  T
   6     -9.6391084 -0.226703E-06  0.493E-03    3.07       9.1  T
   7     -9.6391084 -0.333058E-07  0.522E-04    3.07      85.7  T
   8     -9.6391084 -0.320140E-09  0.225E-04    3.07     198.5  T
     SCC iter.                  ...        0 min,  0.001 sec
     gradient                   ...        0 min,  0.001 sec
 * total energy  :    -9.5180853 Eh     change       -0.1074823E-03 Eh
   gradient norm :     0.0017110 Eh/α   predicted    -0.1019170E-03 (  -5.18%)
   displ. norm   :     0.0110089 α      lambda       -0.9942556E-05
   maximum displ.:     0.0095127 α      in ANC's #3, #1, #4, ...

........................................................................
.............................. CYCLE   12 ..............................
........................................................................
   1     -9.6384946 -0.963849E+01  0.429E-02    3.06       0.0  T
   2     -9.6384932  0.132376E-05  0.300E-02    3.06       1.5  T
   3     -9.6384910  0.222376E-05  0.278E-02    3.06       1.6  T
   4     -9.6384956 -0.455514E-05  0.484E-03    3.06       9.2  T
   5     -9.6384957 -0.132415E-06  0.146E-03    3.06      30.6  T
   6     -9.6384957 -0.284717E-08  0.773E-04    3.06      57.9  T
   7     -9.6384957 -0.177938E-08  0.141E-04    3.06     317.2  T
     SCC iter.                  ...        0 min,  0.001 sec
     gradient                   ...        0 min,  0.001 sec
 * total energy  :    -9.5180898 Eh     change       -0.4565069E-05 Eh
   gradient norm :     0.0009317 Eh/α   predicted    -0.4971069E-05 (   8.89%)
   displ. norm   :     0.0036642 α      lambda       -0.1695746E-05
   maximum displ.:     0.0022324 α      in ANC's #3, #2, #4, ...

   *** GEOMETRY OPTIMIZATION CONVERGED AFTER 12 ITERATIONS ***

------------------------------------------------------------------------
 total energy gain   :        -0.0612988 Eh      -38.4656 kcal/mol
 total RMSD          :         0.4191286 a0        0.2218 Å
 total power (kW/mol):       -13.4116623 (step)-4638.9424 (real)
------------------------------------------------------------------------

 ANCopt (total)                0 d,  0 h,  0 min,  0.035 sec
 optimizer setup                ...        0 min,  0.000 sec (  0.193%)
 model hessian                  ...        0 min,  0.000 sec (  0.267%)
 ANC generation                 ...        0 min,  0.000 sec (  0.153%)
 coordinate transformation      ...        0 min,  0.000 sec (  0.067%)
 single point calculation       ...        0 min,  0.034 sec ( 96.660%)
 optimization log               ...        0 min,  0.000 sec (  0.834%)
 hessian update                 ...        0 min,  0.000 sec (  0.073%)
 rational function              ...        0 min,  0.000 sec (  0.718%)

================
 final structure:
================
5
 xtb: 6.2.2 (9d81278992624c895f80dd42a50cac0aa55982e2)
C         0.46978326398570    0.01264428924686   -0.10442155543236
C        -0.54962467466736    1.09907442611912   -0.25312694844293
C        -1.06650766195306   -0.06188215060340    0.29372796232016
N        -0.32904918508916   -1.10203168659159   -0.20292928391220
H         1.47539925772387    0.05219512182902    0.26674882546733

 Bond Distances (Angstroems)
 ---------------------------
C1-C2=1.4972         C1-C3=1.5888         C1-N4=1.3749         C1-H5=1.0727         C2-C1=1.4972         C2-C3=1.3835         
C3-C1=1.5888         C3-C2=1.3835         C3-N4=1.3684         N4-C1=1.3749         N4-C3=1.3684         H5-C1=1.0727         
 C  H  Rav=1.0727 sigma=0.0000  Rmin=1.0727  Rmax=1.0727     1
 C  C  Rav=1.4898 sigma=0.0840  Rmin=1.3835  Rmax=1.5888     3
 N  C  Rav=1.3716 sigma=0.0033  Rmin=1.3684  Rmax=1.3749     2

 selected bond angles (degree)
 --------------------
C3-C1-C2= 53.17                N4-C1-C2=100.70                N4-C1-C3= 54.42                H5-C1-C2=130.24                
H5-C1-C3=145.24                H5-C1-N4=126.83                C3-C2-C1= 66.81                C2-C3-C1= 60.02                
N4-C3-C1= 54.80                N4-C3-C2=107.04                C3-N4-C1= 70.78                

 selected dihedral angles (degree)
 ---------------------------------
C3-C2-C1-N4= 28.20            C3-C2-C1-H5=224.70            C2-C3-C1-N4=214.82            C2-C3-C1-H5=109.65            
N4-C3-C1-C2=145.18            N4-C3-C1-H5=254.83            N4-C3-C2-C1=330.79            C3-N4-C1-C2=332.28            
C3-N4-C1-H5=136.57            C1-N4-C3-C2= 31.15            
           -------------------------------------------------
          |                Final Singlepoint                |
           -------------------------------------------------

          ...................................................
          :                      SETUP                      :
          :.................................................:
          :  # basis functions                  17          :
          :  # atomic orbitals                  17          :
          :  # shells                            9          :
          :  # electrons                        18          :
          :  max. iterations                   250          :
          :  Hamiltonian                  GFN2-xTB          :
          :  restarted?                      false          :
          :  GBSA solvation                  false          :
          :  PC potential                    false          :
          :  electronic temp.          300.0000000     K    :
          :  accuracy                    1.0000000          :
          :  -> integral cutoff          0.2500000E+02      :
          :  -> integral neglect         0.1000000E-07      :
          :  -> SCF convergence          0.1000000E-05 Eh   :
          :  -> wf. convergence          0.1000000E-03 e    :
          :  Broyden damping             0.4000000          :
          ...................................................

 iter      E             dE          RMSdq      gap      omega  full diag
   1     -9.6384957 -0.963850E+01  0.333E-05    3.06       0.0  T
   2     -9.6384957  0.202505E-12  0.182E-05    3.06    2456.1  T
   3     -9.6384957  0.281197E-11  0.225E-05    3.06    1991.1  T

   *** convergence criteria satisfied after 3 iterations ***

         #    Occupation            Energy/Eh            Energy/eV
      -------------------------------------------------------------
         1        2.0000           -0.7421265             -20.1943
       ...           ...                  ...                  ...
         4        2.0000           -0.5759749             -15.6731
         5        2.0000           -0.5393566             -14.6766
         6        2.0000           -0.5232170             -14.2375
         7        2.0000           -0.4897518             -13.3268
         8        2.0000           -0.4290326             -11.6746
         9        1.0000           -0.4073420             -11.0843
        10        1.0000           -0.3772068             -10.2643 (HOMO)
        11                         -0.2648027              -7.2056 (LUMO)
        12                         -0.2515890              -6.8461
        13                          0.0151070               0.4111
        14                          0.0902637               2.4562
        15                          0.2138259               5.8185
       ...                                ...                  ...
        17                          0.3800837              10.3426
      -------------------------------------------------------------
                  HL-Gap            0.1124040 Eh            3.0587 eV
             Fermi-level           -0.3695960 Eh          -10.0572 eV

 transition dipole moment (au) for excitation:           9          10
     X       Y       Z   
   0.2470  -0.3225  -0.1609  total (au/Debye):    0.437   1.111
 dE (eV)             :    0.820
 oscillator strength :  0.54236E-02

 SCC (total)                   0 d,  0 h,  0 min,  0.003 sec
 SCC setup                      ...        0 min,  0.000 sec (  1.609%)
 Dispersion                     ...        0 min,  0.000 sec (  0.364%)
 integral evaluation            ...        0 min,  0.001 sec ( 28.880%)
 zeroth order Hamiltonian       ...        0 min,  0.000 sec (  0.364%)
 iterations                     ...        0 min,  0.000 sec ( 14.065%)
 molecular gradient             ...        0 min,  0.001 sec ( 30.380%)
 printout                       ...        0 min,  0.001 sec ( 24.061%)

         :::::::::::::::::::::::::::::::::::::::::::::::::::::
         ::                     SUMMARY                     ::
         :::::::::::::::::::::::::::::::::::::::::::::::::::::
         :: total energy              -9.518089845227 Eh    ::
         :: gradient norm              0.000935573018 Eh/a0 ::
         :: HOMO-LUMO gap              3.058669730981 eV    ::
         ::.................................................::
         :: SCC energy                -9.638495717992 Eh    ::
         :: -> isotropic ES            0.004032359560 Eh    ::
         :: -> anisotropic ES          0.002966672187 Eh    ::
         :: -> anisotropic XC          0.008215097179 Eh    ::
         :: -> dispersion             -0.002015889208 Eh    ::
         :: repulsion energy           0.120405839234 Eh    ::
         :: add. restraining           0.000000000000 Eh    ::
         :::::::::::::::::::::::::::::::::::::::::::::::::::::

           ------------------------------------------------- 
          |                Numerical Hessian                |
           ------------------------------------------------- 
step length          :   0.00500
SCC accuracy         :   0.30000
Hessian scale factor :   1.00000
frozen atoms in %    :   0.00000    0
RMS gradient         :   0.00094
estimated CPU  time      0.00 min
estimated wall time      0.00 min

writing file <hessian>.

 projected vibrational frequencies (cm-1)
eigval :       -0.00    -0.00    -0.00     0.00     0.00     0.00
eigval :      564.41   624.65   686.60   831.27   898.22   981.33
eigval :     1354.81  1437.13  3120.92
           -------------------------------------------------
          |                Property Printout                |
           -------------------------------------------------

    * Orbital Energies and Occupations

         #    Occupation            Energy/Eh            Energy/eV
      -------------------------------------------------------------
         1        2.0000           -0.7421265             -20.1943
         2        2.0000           -0.6524256             -17.7534
         3        2.0000           -0.6329604             -17.2237
         4        2.0000           -0.5759749             -15.6731
         5        2.0000           -0.5393566             -14.6766
         6        2.0000           -0.5232171             -14.2375
         7        2.0000           -0.4897518             -13.3268
         8        2.0000           -0.4290326             -11.6746
         9        1.0000           -0.4073420             -11.0843
        10        1.0000           -0.3772068             -10.2643 (HOMO)
        11                         -0.2648027              -7.2056 (LUMO)
        12                         -0.2515891              -6.8461
        13                          0.0151070               0.4111
        14                          0.0902638               2.4562
        15                          0.2138258               5.8185
        16                          0.3058445               8.3225
        17                          0.3800836              10.3426
      -------------------------------------------------------------
                  HL-Gap            0.1124040 Eh            3.0587 eV
             Fermi-level           -0.3695960 Eh          -10.0572 eV

     #   Z        covCN         q      C6AA      α(0)
     1   6 C      3.780     0.146    18.249     6.086
     2   6 C      2.024    -0.142    35.020     9.558
     3   6 C      2.857     0.106    25.651     8.301
     4   7 N      1.886    -0.196    26.082     7.571
     5   1 H      0.926     0.086     1.917     2.165

 Mol. C6AA /au·bohr⁶  :        471.666367
 Mol. C8AA /au·bohr⁸  :      12253.627504
 Mol. α(0) /au        :         33.680494


Wiberg/Mayer (AO) data.
largest (>0.10) Wiberg bond orders for each atom
          total WBO             WBO to atom ...
     1  C   3.577        N    4 1.171    C    2 0.951    H    5 0.938    C    3 0.517
     2  C   2.501        C    3 1.344    C    1 0.951    N    4 0.203
     3  C   3.036        C    2 1.344    N    4 1.146    C    1 0.517
     4  N   2.523        C    1 1.171    C    3 1.146    C    2 0.203
     5  H   0.971        C    1 0.938

MOs/occ written to file <molden.input>


molecular dipole:
                 x           y           z       tot (Debye)
 q only:        0.426       0.113       0.217
   full:        0.756      -0.049       0.542       2.367
molecular quadrupole (traceless):
                xx          xy          yy          xz          yz          zz
 q only:        1.718       0.157      -1.955      -0.211      -0.028       0.237
  q+dip:        2.901       1.018      -4.024      -0.144       0.020       1.122
   full:        2.819       1.057      -5.019      -0.145       0.389       2.200

           -------------------------------------------------
          |                Geometry Summary                 |
           -------------------------------------------------

      molecular mass/u    :       51.0468517
   center of mass at/Å    :       -0.3308784      -0.0543389      -0.0654295
  moments of inertia/u·Å² :        0.2008925E+02   0.3372177E+02   0.4988598E+02
rotational constants/cm⁻¹ :        0.8391369E+00   0.4999035E+00   0.3379232E+00

 * 3 selected distances

     #   Z        #   Z                                     value/Å
     1   6 C      4   7 N                                 1.3748962 (max)
     3   6 C      4   7 N                                 1.3683656
     1   6 C      5   1 H                                 1.0726580 (min)

 * 2 distinct bonds (by element types)

   Z      Z             #   av. dist./Å        max./Å        min./Å
   1 H    6 C           1     1.0726580     1.0726580     1.0726580
   6 C    7 N           2     1.3716309     1.3748962     1.3683656

           -------------------------------------------------
          |               Frequency Printout                |
           -------------------------------------------------
 projected vibrational frequencies (cm-1)
eigval :       -0.00    -0.00    -0.00     0.00     0.00     0.00
eigval :      564.41   624.65   686.60   831.27   898.22   981.33
eigval :     1354.81  1437.13  3120.92
 reduced masses (amu)
   1: 12.31   2: 13.09   3: 11.89   4: 12.37   5: 12.28   6: 10.04   7: 12.48   8: 12.30
   9:  6.85  10:  9.12  11:  7.54  12:  6.36  13: 12.19  14: 12.43  15:  1.89
 IR intensities (amu)
   1:  0.07   2:  0.19   3:  0.09   4:  0.06   5:  0.11   6:  0.17   7:  0.48   8:  0.53
   9:  0.16  10:  0.23  11:  0.47  12:  0.28  13:  1.08  14:  0.35  15:  0.03
 Raman intensities (amu)
   1:  0.00   2:  0.00   3:  0.00   4:  0.00   5:  0.00   6:  0.00   7:  0.00   8:  0.00
   9:  0.00  10:  0.00  11:  0.00  12:  0.00  13:  0.00  14:  0.00  15:  0.00
 output can be read by thermo (or use thermo option).
 writing <g98.out> molden fake output.
 recommended (thermochemical) frequency scaling factor: 1.0
           -------------------------------------------------
Molecule has no symmetry elements
It seems to be the C1 point group
          |             Thermodynamic Functions             |
           -------------------------------------------------

c1  symmetry found (for desy threshold:  0.10E+00) used in thermo

          ...................................................
          :                      SETUP                      :
          :.................................................:
          :  # frequencies                           9      :
          :  # imaginary freq.                       0      :
          :  linear?                             false      :
          :  only rotor calc.                    false      :
          :  symmetry                               c1      :
          :  rotational number                       1      :
          :  scaling factor                  1.0000000      :
          :  rotor cutoff                   50.0000000 cm⁻¹ :
          :  imag. cutoff                  -20.0000000 cm⁻¹ :
          :.................................................:

    mode    ω/cm⁻¹     T·S(HO)/kcal·mol⁻¹    T·S(FR)/kcal·mol⁻¹   T·S(vib)
   ------------------------------------------------------------------------
   ------------------------------------------------------------------------

   temp. (K)  partition function   enthalpy   heat capacity  entropy
                                   cal/mol     cal/K/mol   cal/K/mol   J/K/mol
 298.15  VIB   1.22                  392.087      4.661      1.709
         ROT  0.140E+05              888.752      2.981     21.959
         INT  0.171E+05             1280.839      7.642     23.668
         TR   0.353E+27             1481.254      4.968     37.697
         TOT                        2762.0932    12.6103    61.3642   256.7477

   temp. (K)  partition function   enthalpy   heat capacity  entropy
                                   cal/mol     cal/K/mol   cal/K/mol   J/K/mol
 120.00  VIB   1.00                    3.568      0.220      0.034
         ROT  0.359E+04              357.707      2.981     19.246
         INT  0.359E+04              361.275      3.200     19.280
         TR   0.901E+26              596.178      4.968     33.177
         TOT                         957.4531     8.1685    52.4571   219.4806

   temp. (K)  partition function   enthalpy   heat capacity  entropy
                                   cal/mol     cal/K/mol   cal/K/mol   J/K/mol
 100.00  VIB   1.00                    0.827      0.072      0.009
         ROT  0.273E+04              298.089      2.981     18.703
         INT  0.273E+04              298.916      3.053     18.712
         TR   0.685E+26              496.815      4.968     32.272
         TOT                         795.7314     8.0210    50.9837   213.3157

   temp. (K)  partition function   enthalpy   heat capacity  entropy
                                   cal/mol     cal/K/mol   cal/K/mol   J/K/mol
  80.00  VIB   1.00                    0.096      0.013      0.001
         ROT  0.195E+04              238.471      2.981     18.037
         INT  0.195E+04              238.567      2.994     18.039
         TR   0.490E+26              397.452      4.968     31.164
         TOT                         636.0194     7.9619    49.2025   205.8632

   temp. (K)  partition function   enthalpy   heat capacity  entropy
                                   cal/mol     cal/K/mol   cal/K/mol   J/K/mol
  60.00  VIB   1.00                    0.003      0.001     -0.000
         ROT  0.127E+04              178.853      2.981     17.180
         INT  0.127E+04              178.856      2.982     17.180
         TR   0.319E+26              298.089      4.968     29.735
         TOT                         476.9452     7.9497    46.9151   196.2927

   temp. (K)  partition function   enthalpy   heat capacity  entropy
                                   cal/mol     cal/K/mol   cal/K/mol   J/K/mol
  40.00  VIB   1.00                    0.000      0.000     -0.000
         ROT   690.                  119.236      2.981     15.971
         INT   690.                  119.236      2.981     15.971
         TR   0.173E+26              198.726      4.968     27.722
         TOT                         317.9616     7.9490    43.6929   182.8110

   temp. (K)  partition function   enthalpy   heat capacity  entropy
                                   cal/mol     cal/K/mol   cal/K/mol   J/K/mol
  20.00  VIB   1.00                    0.000      0.000     -0.000
         ROT   244.                   59.618      2.981     13.905
         INT   244.                   59.618      2.981     13.905
         TR   0.613E+25               99.363      4.968     24.280
         TOT                         158.9808     7.9490    38.1846   159.7644

   temp. (K)  partition function   enthalpy   heat capacity  entropy
                                   cal/mol     cal/K/mol   cal/K/mol   J/K/mol
  10.00  VIB   1.00                    0.000      0.000     -0.000
         ROT   86.3                   29.809      2.981     11.839
         INT   86.3                   29.809      2.981     11.838
         TR   0.217E+25               49.681      4.968     20.838
         TOT                          79.4904     7.9490    32.6763   136.7177

       T/K    H(0)-H(T)+PV         H(T)/Eh          T*S/Eh         G(T)/Eh
   ------------------------------------------------------------------------
    298.15    0.440168E-02    0.283210E-01    0.291561E-01   -0.835147E-03
    120.00    0.152580E-02    0.254451E-01    0.100315E-01    0.154136E-01
    100.00    0.126808E-02    0.251874E-01    0.812477E-02    0.170626E-01
     80.00    0.101356E-02    0.249328E-01    0.627273E-02    0.186601E-01
     60.00    0.760061E-03    0.246793E-01    0.448584E-02    0.201935E-01
     40.00    0.506704E-03    0.244260E-01    0.278516E-02    0.216408E-01
     20.00    0.253352E-03    0.241726E-01    0.121702E-02    0.229556E-01
     10.00    0.126676E-03    0.240460E-01    0.520730E-03    0.235252E-01 (used)
   ------------------------------------------------------------------------

         :::::::::::::::::::::::::::::::::::::::::::::::::::::
         ::                  THERMODYNAMIC                  ::
         :::::::::::::::::::::::::::::::::::::::::::::::::::::
         :: total free energy          -9.494564624828 Eh   ::
         ::.................................................::
         :: total energy               -9.518089845215 Eh   ::
         :: zero point energy           0.023919274646 Eh   ::
         :: G(RRHO) w/o ZPVE           -0.000394054259 Eh   ::
         :: G(RRHO) contrib.            0.023525220386 Eh   ::
         :::::::::::::::::::::::::::::::::::::::::::::::::::::

optimized geometry written to: xtbopt.xyz


           -------------------------------------------------
          | TOTAL ENERGY               -9.518089845215 Eh   |
          | TOTAL ENTHALPY             -9.494043894553 Eh   |
          | TOTAL FREE ENERGY          -9.494564624828 Eh   |
          | GRADIENT NORM               0.000935603086 Eh/α |
          | HOMO-LUMO GAP               3.058669655027 eV   |
           -------------------------------------------------

------------------------------------------------------------------------
 * finished run on 2020/05/12 at 11:44:59.634     
------------------------------------------------------------------------
 total:
 * wall-time:     0 d,  0 h,  0 min,  0.136 sec
 *  cpu-time:     0 d,  0 h,  0 min,  0.135 sec
 * ratio c/w:     0.994 speedup
 SCF:
 * wall-time:     0 d,  0 h,  0 min,  0.004 sec
 *  cpu-time:     0 d,  0 h,  0 min,  0.004 sec
 * ratio c/w:     0.999 speedup
 ANC optimizer:
 * wall-time:     0 d,  0 h,  0 min,  0.039 sec
 *  cpu-time:     0 d,  0 h,  0 min,  0.039 sec
 * ratio c/w:     0.999 speedup
 numerical hessian:
 * wall-time:     0 d,  0 h,  0 min,  0.077 sec
 *  cpu-time:     0 d,  0 h,  0 min,  0.076 sec
 * ratio c/w:     0.999 speedup

