 Entering Gaussian System, Link 0=g16
 Initial command:
 /applis/site/cecic/gaussian16/B.01/nehalem/g16/l1.exe "/bettik/tinaccil/g16/12753595_Cl/Gau-104869.inp" -scrdir="/bettik/tinaccil/g16/12753595_Cl/"
 Entering Link 1 = /applis/site/cecic/gaussian16/B.01/nehalem/g16/l1.exe PID=    104873.
  
 Copyright (c) 1988-2017, Gaussian, Inc.  All Rights Reserved.
  
 This is part of the Gaussian(R) 16 program.  It is based on
 the Gaussian(R) 09 system (copyright 2009, Gaussian, Inc.),
 the Gaussian(R) 03 system (copyright 2003, Gaussian, Inc.),
 the Gaussian(R) 98 system (copyright 1998, Gaussian, Inc.),
 the Gaussian(R) 94 system (copyright 1995, Gaussian, Inc.),
 the Gaussian 92(TM) system (copyright 1992, Gaussian, Inc.),
 the Gaussian 90(TM) system (copyright 1990, Gaussian, Inc.),
 the Gaussian 88(TM) system (copyright 1988, Gaussian, Inc.),
 the Gaussian 86(TM) system (copyright 1986, Carnegie Mellon
 University), and the Gaussian 82(TM) system (copyright 1983,
 Carnegie Mellon University). Gaussian is a federally registered
 trademark of Gaussian, Inc.
  
 This software contains proprietary and confidential information,
 including trade secrets, belonging to Gaussian, Inc.
  
 This software is provided under written license and may be
 used, copied, transmitted, or stored only in accord with that
 written license.
  
 The following legend is applicable only to US Government
 contracts under FAR:
  
                    RESTRICTED RIGHTS LEGEND
  
 Use, reproduction and disclosure by the US Government is
 subject to restrictions as set forth in subparagraphs (a)
 and (c) of the Commercial Computer Software - Restricted
 Rights clause in FAR 52.227-19.
  
 Gaussian, Inc.
 340 Quinnipiac St., Bldg. 40, Wallingford CT 06492
  
  
 ---------------------------------------------------------------
 Warning -- This program may not be used in any manner that
 competes with the business of Gaussian, Inc. or will provide
 assistance to any competitor of Gaussian, Inc.  The licensee
 of this program is prohibited from giving any competitor of
 Gaussian, Inc. access to this program.  By using this program,
 the user acknowledges that Gaussian, Inc. is engaged in the
 business of creating and licensing software in the field of
 computational chemistry and represents and warrants to the
 licensee that it is not a competitor of Gaussian, Inc. and that
 it will not use this program in any manner prohibited above.
 ---------------------------------------------------------------
  

 Cite this work as:
 Gaussian 16, Revision B.01,
 M. J. Frisch, G. W. Trucks, H. B. Schlegel, G. E. Scuseria, 
 M. A. Robb, J. R. Cheeseman, G. Scalmani, V. Barone, 
 G. A. Petersson, H. Nakatsuji, X. Li, M. Caricato, A. V. Marenich, 
 J. Bloino, B. G. Janesko, R. Gomperts, B. Mennucci, H. P. Hratchian, 
 J. V. Ortiz, A. F. Izmaylov, J. L. Sonnenberg, D. Williams-Young, 
 F. Ding, F. Lipparini, F. Egidi, J. Goings, B. Peng, A. Petrone, 
 T. Henderson, D. Ranasinghe, V. G. Zakrzewski, J. Gao, N. Rega, 
 G. Zheng, W. Liang, M. Hada, M. Ehara, K. Toyota, R. Fukuda, 
 J. Hasegawa, M. Ishida, T. Nakajima, Y. Honda, O. Kitao, H. Nakai, 
 T. Vreven, K. Throssell, J. A. Montgomery, Jr., J. E. Peralta, 
 F. Ogliaro, M. J. Bearpark, J. J. Heyd, E. N. Brothers, K. N. Kudin, 
 V. N. Staroverov, T. A. Keith, R. Kobayashi, J. Normand, 
 K. Raghavachari, A. P. Rendell, J. C. Burant, S. S. Iyengar, 
 J. Tomasi, M. Cossi, J. M. Millam, M. Klene, C. Adamo, R. Cammi, 
 J. W. Ochterski, R. L. Martin, K. Morokuma, O. Farkas, 
 J. B. Foresman, and D. J. Fox, Gaussian, Inc., Wallingford CT, 2016.
 
 ******************************************
 Gaussian 16:  ES64L-G16RevB.01 20-Dec-2017
                 5-Oct-2020 
 ******************************************
 %nosave
 %nproc=8
 Will use up to    8 processors via shared memory.
 %mem=2gb
 %chk=input
 ------------------------
 #P ROCCSD(T)/aug-cc-pvtz
 ------------------------
 1/38=1,172=1/1;
 2/12=2,17=6,18=5,40=1/2;
 3/5=16,6=1,7=10,11=2,25=1,30=1,116=101/1,2,3;
 4//1;
 5/5=2,38=5/2;
 8/5=-1,6=4,9=120000,10=1/1,4;
 9/5=7,14=2/13;
 6/7=2,8=2,9=2,10=2/1;
 99/5=1,9=1/99;
 Leave Link    1 at Mon Oct  5 21:20:02 2020, MaxMem=   268435456 cpu:               0.8 elap:               0.2
 (Enter /applis/site/cecic/gaussian16/B.01/nehalem/g16/l101.exe)
 -----
 Title
 -----
 Symbolic Z-matrix:
 Charge =  0 Multiplicity = 2
 Cl
 
 ITRead=  0
 MicOpt= -1
 NAtoms=      1 NQM=        1 NQMF=       0 NMMI=      0 NMMIF=      0
                NMic=       0 NMicF=      0.
                    Isotopes and Nuclear Properties:
 (Nuclear quadrupole moments (NQMom) in fm**2, nuclear magnetic moments (NMagM)
  in nuclear magnetons)

  Atom         1
 IAtWgt=          35
 AtmWgt=  34.9688527
 NucSpn=           3
 AtZEff=  -0.0000000
 NQMom=   -8.1650000
 NMagM=    0.8218740
 AtZNuc=  17.0000000
 Leave Link  101 at Mon Oct  5 21:20:03 2020, MaxMem=   268435456 cpu:               1.6 elap:               0.3
 (Enter /applis/site/cecic/gaussian16/B.01/nehalem/g16/l202.exe)
                          Input orientation:                          
 ---------------------------------------------------------------------
 Center     Atomic      Atomic             Coordinates (Angstroms)
 Number     Number       Type             X           Y           Z
 ---------------------------------------------------------------------
      1         17           0        0.000000    0.000000    0.000000
 ---------------------------------------------------------------------
 Stoichiometry    Cl(2)
 Framework group  OH[O(Cl)]
 Deg. of freedom     0
 Full point group                 OH      NOp  48
 Largest Abelian subgroup         D2H     NOp   8
 Largest concise Abelian subgroup C1      NOp   1
                         Standard orientation:                         
 ---------------------------------------------------------------------
 Center     Atomic      Atomic             Coordinates (Angstroms)
 Number     Number       Type             X           Y           Z
 ---------------------------------------------------------------------
      1         17           0        0.000000    0.000000    0.000000
 ---------------------------------------------------------------------
 Leave Link  202 at Mon Oct  5 21:20:03 2020, MaxMem=   268435456 cpu:               0.8 elap:               0.2
 (Enter /applis/site/cecic/gaussian16/B.01/nehalem/g16/l301.exe)
 Standard basis: Aug-CC-pVTZ (5D, 7F)
 Ernie: Thresh=  0.10000D-02 Tol=  0.10000D-05 Strict=F.
 Ernie:  13 primitive shells out of 64 were deleted.
 There are    15 symmetry adapted cartesian basis functions of AG  symmetry.
 There are     3 symmetry adapted cartesian basis functions of B1G symmetry.
 There are     3 symmetry adapted cartesian basis functions of B2G symmetry.
 There are     3 symmetry adapted cartesian basis functions of B3G symmetry.
 There are     2 symmetry adapted cartesian basis functions of AU  symmetry.
 There are    11 symmetry adapted cartesian basis functions of B1U symmetry.
 There are    11 symmetry adapted cartesian basis functions of B2U symmetry.
 There are    11 symmetry adapted cartesian basis functions of B3U symmetry.
 There are    12 symmetry adapted basis functions of AG  symmetry.
 There are     3 symmetry adapted basis functions of B1G symmetry.
 There are     3 symmetry adapted basis functions of B2G symmetry.
 There are     3 symmetry adapted basis functions of B3G symmetry.
 There are     2 symmetry adapted basis functions of AU  symmetry.
 There are     9 symmetry adapted basis functions of B1U symmetry.
 There are     9 symmetry adapted basis functions of B2U symmetry.
 There are     9 symmetry adapted basis functions of B3U symmetry.
    50 basis functions,   114 primitive gaussians,    59 cartesian basis functions
     9 alpha electrons        8 beta electrons
       nuclear repulsion energy         0.0000000000 Hartrees.
 IExCor=    0 DFT=F Ex=HF Corr=None ExCW=0 ScaHFX=  1.000000
 ScaDFX=  1.000000  1.000000  1.000000  1.000000 ScalE2=  1.000000  1.000000
 IRadAn=      5 IRanWt=     -1 IRanGd=            0 ICorTp=0 IEmpDi=  4
 NAtoms=    1 NActive=    1 NUniq=    1 SFac= 1.00D+00 NAtFMM=   60 NAOKFM=F Big=F
 Integral buffers will be    131072 words long.
 Raffenetti 2 integral format.
 Two-electron integral symmetry is turned on.
 Leave Link  301 at Mon Oct  5 21:20:03 2020, MaxMem=   268435456 cpu:               0.9 elap:               0.2
 (Enter /applis/site/cecic/gaussian16/B.01/nehalem/g16/l302.exe)
 NPDir=0 NMtPBC=     1 NCelOv=     1 NCel=       1 NClECP=     1 NCelD=      1
         NCelK=      1 NCelE2=     1 NClLst=     1 CellRange=     0.0.
 One-electron integrals computed using PRISM.
 One-electron integral symmetry used in STVInt
 NBasis=    50 RedAO= T EigKep=  1.62D-02  NBF=    12     3     3     3     2     9     9     9
 NBsUse=    50 1.00D-06 EigRej= -1.00D+00 NBFU=    12     3     3     3     2     9     9     9
 Leave Link  302 at Mon Oct  5 21:20:03 2020, MaxMem=   268435456 cpu:               1.6 elap:               0.3
 (Enter /applis/site/cecic/gaussian16/B.01/nehalem/g16/l303.exe)
 DipDrv:  MaxL=1.
 Leave Link  303 at Mon Oct  5 21:20:04 2020, MaxMem=   268435456 cpu:               1.1 elap:               0.3
 (Enter /applis/site/cecic/gaussian16/B.01/nehalem/g16/l401.exe)
 ExpMin= 4.19D-02 ExpMax= 4.56D+05 ExpMxC= 1.44D+03 IAcc=3 IRadAn=         5 AccDes= 0.00D+00
 Harris functional with IExCor=  205 and IRadAn=       5 diagonalized for initial guess.
 HarFok:  IExCor=  205 AccDes= 0.00D+00 IRadAn=         5 IDoV= 1 UseB2=F ITyADJ=14
 ICtDFT=  3500011 ScaDFX=  1.000000  1.000000  1.000000  1.000000
 FoFCou: FMM=F IPFlag=           0 FMFlag=      100000 FMFlg1=           0
         NFxFlg=           0 DoJE=T BraDBF=F KetDBF=T FulRan=T
         wScrn=  0.000000 ICntrl=       500 IOpCl=  0 I1Cent=   200000004 NGrid=           0
         NMat0=    1 NMatS0=      1 NMatT0=    0 NMatD0=    1 NMtDS0=    0 NMtDT0=    0
 Petite list used in FoFCou.
 Harris En= -458.972639796257    
 JPrj=0 DoOrth=F DoCkMO=F.
 Initial guess orbital symmetries:
       Occupied  (A1G) (A1G) (T1U) (T1U) (T1U) (A1G) (T1U) (T1U)
                 (T1U)
       Virtual   (A1G) (T1U) (T1U) (T1U) (T2G) (T2G) (T2G) (EG)
                 (EG) (T1U) (T1U) (T1U) (T2G) (T2G) (T2G) (EG)
                 (EG) (A1G) (T2U) (T2U) (T2U) (A2U) (T1U) (T1U)
                 (T1U) (T2G) (T2G) (T2G) (EG) (EG) (T1U) (T1U)
                 (T1U) (T2U) (T2U) (T2U) (A2U) (T1U) (T1U) (T1U)
                 (A1G)
 Leave Link  401 at Mon Oct  5 21:20:04 2020, MaxMem=   268435456 cpu:               2.0 elap:               0.4
 (Enter /applis/site/cecic/gaussian16/B.01/nehalem/g16/l502.exe)
 Keep R1 and R2 ints in memory in symmetry-blocked form, NReq=4746118.
 FoFCou: FMM=F IPFlag=           0 FMFlag=           0 FMFlg1=           0
         NFxFlg=           0 DoJE=F BraDBF=F KetDBF=F FulRan=T
         wScrn=  0.000000 ICntrl=       600 IOpCl=  0 I1Cent=           0 NGrid=           0
         NMat0=    1 NMatS0=   1275 NMatT0=    0 NMatD0=    1 NMtDS0=    0 NMtDT0=    0
 Petite list used in FoFCou.
 Restricted open shell SCF:
 Using DIIS extrapolation, IDIIS=  1040.
 NGot=   268435456 LenX=   268204232 LenY=   268200310
 Requested convergence on RMS density matrix=1.00D-08 within 128 cycles.
 Requested convergence on MAX density matrix=1.00D-06.
 Requested convergence on             energy=1.00D-06.
 No special actions if energy rises.

 Cycle   1  Pass 1  IDiag  1:
 Density matrix breaks symmetry, PCut= 1.00D-07
 Density has only Abelian symmetry.
 E= -459.458936226714    
 DIIS: error= 8.11D-02 at cycle   1 NSaved=   1.
 NSaved= 1 IEnMin= 1 EnMin= -459.458936226714     IErMin= 1 ErrMin= 8.11D-02
 ErrMax= 8.11D-02  0.00D+00 EMaxC= 1.00D-01 BMatC= 1.24D-01 BMatP= 1.24D-01
 IDIUse=3 WtCom= 1.89D-01 WtEn= 8.11D-01
 Coeff-Com:  0.100D+01
 Coeff-En:   0.100D+01
 Coeff:      0.100D+01
 Gap=     0.326 Goal=   None    Shift=    0.000
 GapD=    0.326 DampG=1.000 DampE=0.500 DampFc=0.5000 IDamp=-1.
 Damping current iteration by 5.00D-01
 RMSDP=3.17D-03 MaxDP=8.13D-02              OVMax= 8.39D-02

 Cycle   2  Pass 1  IDiag  1:
 Density matrix breaks symmetry, PCut= 1.00D-07
 Density has only Abelian symmetry.
 E= -459.468890130704     Delta-E=       -0.009953903990 Rises=F Damp=T
 DIIS: error= 3.98D-02 at cycle   2 NSaved=   2.
 NSaved= 2 IEnMin= 2 EnMin= -459.468890130704     IErMin= 2 ErrMin= 3.98D-02
 ErrMax= 3.98D-02  0.00D+00 EMaxC= 1.00D-01 BMatC= 2.96D-02 BMatP= 1.24D-01
 IDIUse=3 WtCom= 6.02D-01 WtEn= 3.98D-01
 Coeff-Com: -0.893D+00 0.189D+01
 Coeff-En:   0.000D+00 0.100D+01
 Coeff:     -0.537D+00 0.154D+01
 Gap=     0.298 Goal=   None    Shift=    0.000
 RMSDP=1.99D-03 MaxDP=4.82D-02 DE=-9.95D-03 OVMax= 9.99D-02

 Cycle   3  Pass 1  IDiag  1:
 Density matrix breaks symmetry, PCut= 1.00D-07
 Density has only Abelian symmetry.
 E= -459.477469832124     Delta-E=       -0.008579701420 Rises=F Damp=F
 DIIS: error= 1.24D-02 at cycle   3 NSaved=   3.
 NSaved= 3 IEnMin= 3 EnMin= -459.477469832124     IErMin= 3 ErrMin= 1.24D-02
 ErrMax= 1.24D-02  0.00D+00 EMaxC= 1.00D-01 BMatC= 1.42D-03 BMatP= 2.96D-02
 IDIUse=3 WtCom= 8.76D-01 WtEn= 1.24D-01
 Coeff-Com: -0.399D+00 0.801D+00 0.597D+00
 Coeff-En:   0.000D+00 0.000D+00 0.100D+01
 Coeff:     -0.349D+00 0.702D+00 0.647D+00
 Gap=     0.309 Goal=   None    Shift=    0.000
 RMSDP=1.25D-03 MaxDP=4.35D-02 DE=-8.58D-03 OVMax= 6.32D-02

 Cycle   4  Pass 1  IDiag  1:
 Density matrix breaks symmetry, PCut= 1.00D-07
 Density has only Abelian symmetry.
 E= -459.480093749652     Delta-E=       -0.002623917528 Rises=F Damp=F
 DIIS: error= 2.19D-03 at cycle   4 NSaved=   4.
 NSaved= 4 IEnMin= 4 EnMin= -459.480093749652     IErMin= 4 ErrMin= 2.19D-03
 ErrMax= 2.19D-03  0.00D+00 EMaxC= 1.00D-01 BMatC= 7.11D-05 BMatP= 1.42D-03
 IDIUse=3 WtCom= 9.78D-01 WtEn= 2.19D-02
 Coeff-Com: -0.102D+00 0.200D+00 0.176D-01 0.884D+00
 Coeff-En:   0.000D+00 0.000D+00 0.000D+00 0.100D+01
 Coeff:     -0.993D-01 0.195D+00 0.172D-01 0.887D+00
 Gap=     0.307 Goal=   None    Shift=    0.000
 RMSDP=2.25D-04 MaxDP=1.03D-02 DE=-2.62D-03 OVMax= 7.32D-03

 Cycle   5  Pass 1  IDiag  1:
 Density matrix breaks symmetry, PCut= 1.00D-07
 Density has only Abelian symmetry.
 E= -459.480177522607     Delta-E=       -0.000083772955 Rises=F Damp=F
 DIIS: error= 1.10D-03 at cycle   5 NSaved=   5.
 NSaved= 5 IEnMin= 5 EnMin= -459.480177522607     IErMin= 5 ErrMin= 1.10D-03
 ErrMax= 1.10D-03  0.00D+00 EMaxC= 1.00D-01 BMatC= 1.12D-05 BMatP= 7.11D-05
 IDIUse=3 WtCom= 9.89D-01 WtEn= 1.10D-02
 Coeff-Com: -0.136D-01 0.270D-01-0.519D-01-0.183D+00 0.122D+01
 Coeff-En:   0.000D+00 0.000D+00 0.000D+00 0.000D+00 0.100D+01
 Coeff:     -0.135D-01 0.267D-01-0.514D-01-0.181D+00 0.122D+01
 Gap=     0.307 Goal=   None    Shift=    0.000
 RMSDP=1.01D-04 MaxDP=3.28D-03 DE=-8.38D-05 OVMax= 5.82D-03

 Cycle   6  Pass 1  IDiag  1:
 Density matrix breaks symmetry, PCut= 1.00D-07
 Density has only Abelian symmetry.
 E= -459.480198147918     Delta-E=       -0.000020625310 Rises=F Damp=F
 DIIS: error= 1.09D-04 at cycle   6 NSaved=   6.
 NSaved= 6 IEnMin= 6 EnMin= -459.480198147918     IErMin= 6 ErrMin= 1.09D-04
 ErrMax= 1.09D-04  0.00D+00 EMaxC= 1.00D-01 BMatC= 2.15D-07 BMatP= 1.12D-05
 IDIUse=3 WtCom= 9.99D-01 WtEn= 1.09D-03
 Coeff-Com: -0.619D-02 0.125D-01 0.131D-01-0.296D-01-0.111D+00 0.112D+01
 Coeff-En:   0.000D+00 0.000D+00 0.000D+00 0.000D+00 0.000D+00 0.100D+01
 Coeff:     -0.618D-02 0.124D-01 0.131D-01-0.295D-01-0.111D+00 0.112D+01
 Gap=     0.307 Goal=   None    Shift=    0.000
 RMSDP=1.23D-05 MaxDP=3.93D-04 DE=-2.06D-05 OVMax= 3.84D-04

 Cycle   7  Pass 1  IDiag  1:
 Density matrix breaks symmetry, PCut= 1.00D-07
 Density has only Abelian symmetry.
 E= -459.480198351059     Delta-E=       -0.000000203141 Rises=F Damp=F
 DIIS: error= 6.74D-05 at cycle   7 NSaved=   7.
 NSaved= 7 IEnMin= 7 EnMin= -459.480198351059     IErMin= 7 ErrMin= 6.74D-05
 ErrMax= 6.74D-05  0.00D+00 EMaxC= 1.00D-01 BMatC= 4.10D-08 BMatP= 2.15D-07
 IDIUse=1 WtCom= 1.00D+00 WtEn= 0.00D+00
 Coeff-Com:  0.489D-04 0.469D-04-0.144D-02-0.878D-02-0.359D-01 0.156D+00
 Coeff-Com:  0.890D+00
 Coeff:      0.489D-04 0.469D-04-0.144D-02-0.878D-02-0.359D-01 0.156D+00
 Coeff:      0.890D+00
 Gap=     0.307 Goal=   None    Shift=    0.000
 RMSDP=7.07D-06 MaxDP=2.35D-04 DE=-2.03D-07 OVMax= 4.03D-04

 Cycle   8  Pass 1  IDiag  1:
 Density matrix breaks symmetry, PCut= 1.00D-07
 Density has only Abelian symmetry.
 E= -459.480198430885     Delta-E=       -0.000000079826 Rises=F Damp=F
 DIIS: error= 1.48D-06 at cycle   8 NSaved=   8.
 NSaved= 8 IEnMin= 8 EnMin= -459.480198430885     IErMin= 8 ErrMin= 1.48D-06
 ErrMax= 1.48D-06  0.00D+00 EMaxC= 1.00D-01 BMatC= 6.16D-11 BMatP= 4.10D-08
 IDIUse=1 WtCom= 1.00D+00 WtEn= 0.00D+00
 Coeff-Com: -0.297D-04 0.280D-04 0.909D-04 0.195D-02 0.878D-02-0.531D-01
 Coeff-Com: -0.127D+00 0.117D+01
 Coeff:     -0.297D-04 0.280D-04 0.909D-04 0.195D-02 0.878D-02-0.531D-01
 Coeff:     -0.127D+00 0.117D+01
 Gap=     0.307 Goal=   None    Shift=    0.000
 RMSDP=2.82D-07 MaxDP=5.73D-06 DE=-7.98D-08 OVMax= 5.84D-06

 Cycle   9  Pass 1  IDiag  1:
 Density matrix breaks symmetry, PCut= 1.00D-07
 Density has only Abelian symmetry.
 E= -459.480198430965     Delta-E=       -0.000000000080 Rises=F Damp=F
 DIIS: error= 2.65D-07 at cycle   9 NSaved=   9.
 NSaved= 9 IEnMin= 9 EnMin= -459.480198430965     IErMin= 9 ErrMin= 2.65D-07
 ErrMax= 2.65D-07  0.00D+00 EMaxC= 1.00D-01 BMatC= 7.76D-13 BMatP= 6.16D-11
 IDIUse=1 WtCom= 1.00D+00 WtEn= 0.00D+00
 Coeff-Com: -0.175D-05 0.570D-05 0.122D-05-0.124D-03-0.606D-03 0.379D-02
 Coeff-Com:  0.314D-02-0.126D+00 0.112D+01
 Coeff:     -0.175D-05 0.570D-05 0.122D-05-0.124D-03-0.606D-03 0.379D-02
 Coeff:      0.314D-02-0.126D+00 0.112D+01
 Gap=     0.307 Goal=   None    Shift=    0.000
 RMSDP=2.95D-08 MaxDP=7.61D-07 DE=-7.99D-11 OVMax= 1.40D-06

 Cycle  10  Pass 1  IDiag  1:
 Density matrix breaks symmetry, PCut= 1.00D-07
 Density has only Abelian symmetry.
 E= -459.480198430966     Delta-E=       -0.000000000001 Rises=F Damp=F
 DIIS: error= 2.68D-08 at cycle  10 NSaved=  10.
 NSaved=10 IEnMin=10 EnMin= -459.480198430966     IErMin=10 ErrMin= 2.68D-08
 ErrMax= 2.68D-08  0.00D+00 EMaxC= 1.00D-01 BMatC= 7.70D-15 BMatP= 7.76D-13
 IDIUse=1 WtCom= 1.00D+00 WtEn= 0.00D+00
 Coeff-Com: -0.215D-06 0.197D-06-0.934D-06 0.968D-05 0.717D-04-0.428D-03
 Coeff-Com: -0.195D-03 0.164D-01-0.199D+00 0.118D+01
 Coeff:     -0.215D-06 0.197D-06-0.934D-06 0.968D-05 0.717D-04-0.428D-03
 Coeff:     -0.195D-03 0.164D-01-0.199D+00 0.118D+01
 Gap=     0.307 Goal=   None    Shift=    0.000
 RMSDP=3.11D-09 MaxDP=8.71D-08 DE=-1.25D-12 OVMax= 1.48D-07

 Density matrix breaks symmetry, PCut= 1.00D-07
 Density has only Abelian symmetry.
 SCF Done:  E(ROHF) =  -459.480198431     A.U. after   10 cycles
            NFock= 10  Conv=0.31D-08     -V/T= 2.0000
 <Sx>= 0.0000 <Sy>= 0.0000 <Sz>= 0.5000 <S**2>= 0.7500 S= 0.5000
 <L.S>= 0.000000000000E+00
 KE= 4.594648096863D+02 PE=-1.094313873355D+03 EE= 1.753688652381D+02
 Annihilation of the first spin contaminant:
 S**2 before annihilation     0.7500,   after     0.7500
 Leave Link  502 at Mon Oct  5 21:20:05 2020, MaxMem=   268435456 cpu:               5.2 elap:               0.8
 (Enter /applis/site/cecic/gaussian16/B.01/nehalem/g16/l801.exe)
 Windowed orbitals will be sorted by symmetry type.
 Density matrix breaks symmetry, PCut= 1.00D-07
 Density has only Abelian symmetry.
 GenMOA:  NOpAll= 48 NOp2=8 NOpUse=  8 JSym2X=1
 FoFJK:  IHMeth= 1 ICntrl=       0 DoSepK=F KAlg= 0 I1Cent=           0 FoldK=F
 IRaf=         0 NMat=       1 IRICut=       1 DoRegI=T DoRafI=F ISym2E= 1 IDoP0=0 IntGTp=1.
 FoFCou: FMM=F IPFlag=           0 FMFlag=      100000 FMFlg1=           0
         NFxFlg=           0 DoJE=F BraDBF=F KetDBF=F FulRan=T
         wScrn=  0.000000 ICntrl=         0 IOpCl=  1 I1Cent=           0 NGrid=           0
         NMat0=    1 NMatS0=      1 NMatT0=    0 NMatD0=    1 NMtDS0=    0 NMtDT0=    0
 Petite list used in FoFCou.
 <Sx>= 0.0000 <Sy>= 0.0000 <Sz>= 0.5000 <S**2>= 0.7500 S= 0.5000
 ExpMin= 4.19D-02 ExpMax= 4.56D+05 ExpMxC= 1.44D+03 IAcc=3 IRadAn=         5 AccDes= 0.00D+00
 HarFok:  IExCor=  205 AccDes= 0.00D+00 IRadAn=         5 IDoV=-2 UseB2=F ITyADJ=14
 ICtDFT= 12500011 ScaDFX=  1.000000  1.000000  1.000000  1.000000
 Largest valence mixing into a core orbital is  3.93D-04
 Largest core mixing into a valence orbital is  1.59D-04
 Largest valence mixing into a core orbital is  4.22D-04
 Largest core mixing into a valence orbital is  1.88D-04
 Range of M.O.s used for correlation:     6    50
 NBasis=    50 NAE=     9 NBE=     8 NFC=     5 NFV=     0
 NROrb=     45 NOA=     4 NOB=     3 NVA=    41 NVB=    42
 Singles contribution to E2=   -0.3645350365D-02
 Leave Link  801 at Mon Oct  5 21:20:06 2020, MaxMem=   268435456 cpu:               3.6 elap:               0.6
 (Enter /applis/site/cecic/gaussian16/B.01/nehalem/g16/l804.exe)
 Open-shell transformation, MDV=   268435456 ITran=4 ISComp=2.
 Unit  1 TFree=         63379 TCopy=        259645.
 Semi-Direct transformation.
 ModeAB=           2 MOrb=             4 LenV=     268139878
 LASXX=        21445 LTotXX=       21445 LenRXX=       21445
 LTotAB=       23654 MaxLAS=      318600 LenRXY=      318600
 NonZer=      345600 LenScr=      917504 LnRSAI=           0
 LnScr1=           0 LExtra=           0 Total=      1257549
 MaxDsk=          -1 SrtSym=           F ITran=            4
 DoSDTr:  NPSUse=  8
 JobTyp=1 Pass  1:  I=   1 to   4.
 (rs|ai) integrals will be sorted in core.
 Complete sort for first half transformation.
 First half transformation complete.
 Complete sort for second half transformation.
 Second half transformation complete.
 ModeAB=           2 MOrb=             3 LenV=     268139878
 LASXX=        16350 LTotXX=       16350 LenRXX=      238950
 LTotAB=       14898 MaxLAS=      238950 LenRXY=       14898
 NonZer=      259200 LenScr=      720896 LnRSAI=           0
 LnScr1=           0 LExtra=           0 Total=       974744
 MaxDsk=          -1 SrtSym=           F ITran=            4
 DoSDTr:  NPSUse=  8
 JobTyp=2 Pass  1:  I=   1 to   3.
 (rs|ai) integrals will be sorted in core.
 Complete sort for first half transformation.
 First half transformation complete.
 Complete sort for second half transformation.
 Second half transformation complete.
 Spin components of T(2) and E(2):
     alpha-alpha T2 =       0.9432300448D-02 E2=     -0.2540128610D-01
     alpha-beta  T2 =       0.4354326432D-01 E2=     -0.1270359022D+00
     beta-beta   T2 =       0.4587188877D-02 E2=     -0.1209705508D-01
 ANorm=    0.1029379187D+01
 E2 =    -0.1681795937D+00 EUMP2 =    -0.45964837802467D+03
 (S**2,0)=  0.75000D+00           (S**2,1)=  0.75000D+00
 E(PUHF)=      -0.45948019843D+03        E(PMP2)=      -0.45964837802D+03
 Leave Link  804 at Mon Oct  5 21:20:07 2020, MaxMem=   268435456 cpu:               3.9 elap:               0.6
 (Enter /applis/site/cecic/gaussian16/B.01/nehalem/g16/l913.exe)
 CIDS:  MDV=   268435456.
 Frozen-core window:  NFC=   5 NFV=   0.
 IFCWin=0 IBDFC=1 NFBD=     0     0 NFCmp=     0     0 NFFFC=     0     0
 Using original routines for 1st iteration.
 Using DD4UQ or CC4UQ for 2nd and later iterations.
 Keep R2 and R3 ints in memory in symmetry-blocked form, NReq=4749949.
 FoFCou: FMM=F IPFlag=           0 FMFlag=           0 FMFlg1=           0
         NFxFlg=           0 DoJE=F BraDBF=F KetDBF=F FulRan=T
         wScrn=  0.000000 ICntrl=       600 IOpCl=  0 I1Cent=           0 NGrid=           0
         NMat0=    1 NMatS0=   1275 NMatT0=    0 NMatD0=    1 NMtDS0=    0 NMtDT0=    0
 Petite list used in FoFCou.
 CIDS: In Core Option IDoMem=           1.
 CCSD(T)
 =======
 Iterations=  50 Convergence= 0.100D-06
 Produce multiple copies of IABC intergrals
 Iteration Nr.   1
 **********************
 DD1Dir will call FoFMem   1 times, MxPair=        34
 NAB=    12 NAA=     6 NBB=     3.
 DD1Dir will call FoFMem   1 times, MxPair=        34
 NAB=    12 NAA=     6 NBB=     3.
 MP4(R+Q)=  0.25313587D-01
 Maximum subspace dimension=  5
 A-vector RMS=  3.1544683D-04 Max=  1.1215698D-03 conv= 1.00D-05.
 RLE energy=       -0.1641083432
 E3=       -0.21162077D-01        EROMP3=      -0.45966954010D+03
 E4(SDQ)=  -0.68114568D-03        ROMP4(SDQ)=  -0.45967022125D+03
 VARIATIONAL ENERGIES WITH THE FIRST-ORDER WAVEFUNCTION:
 DE(Corr)= -0.16400429     E(Corr)=     -459.64420272    
 NORM(A)=   0.10277620D+01
 Iteration Nr.   2
 **********************
 DD1Dir will call FoFMem   1 times, MxPair=        34
 NAB=    12 NAA=     6 NBB=     3.
 A-vector RMS=  1.8376025D-03 Max=  5.3337947D-03 conv= 1.00D-05.
 RLE energy=       -0.1704409577
 DE(Corr)= -0.18476371     E(CORR)=     -459.66496214     Delta=-2.08D-02
 NORM(A)=   0.10300067D+01
 Iteration Nr.   3
 **********************
 DD1Dir will call FoFMem   1 times, MxPair=        34
 NAB=    12 NAA=     6 NBB=     3.
 A-vector RMS=  1.3893202D-03 Max=  4.1916137D-03 conv= 1.00D-05.
 RLE energy=       -0.1835799528
 DE(Corr)= -0.18589265     E(CORR)=     -459.66609108     Delta=-1.13D-03
 NORM(A)=   0.10353584D+01
 Iteration Nr.   4
 **********************
 DD1Dir will call FoFMem   1 times, MxPair=        34
 NAB=    12 NAA=     6 NBB=     3.
 A-vector RMS=  4.7052108D-04 Max=  1.4150834D-03 conv= 1.00D-05.
 RLE energy=       -0.1874991305
 DE(Corr)= -0.18843748     E(CORR)=     -459.66863591     Delta=-2.54D-03
 NORM(A)=   0.10372121D+01
 Iteration Nr.   5
 **********************
 DD1Dir will call FoFMem   1 times, MxPair=        34
 NAB=    12 NAA=     6 NBB=     3.
 A-vector RMS=  1.5915045D-04 Max=  4.7722655D-04 conv= 1.00D-05.
 RLE energy=       -0.1895640864
 DE(Corr)= -0.18925213     E(CORR)=     -459.66945056     Delta=-8.15D-04
 NORM(A)=   0.10381908D+01
 Iteration Nr.   6
 **********************
 DD1Dir will call FoFMem   1 times, MxPair=        34
 NAB=    12 NAA=     6 NBB=     3.
 A-vector RMS=  9.6683160D-06 Max=  9.6457232D-05 conv= 1.00D-05.
 RLE energy=       -0.1896592623
 DE(Corr)= -0.18964434     E(CORR)=     -459.66984277     Delta=-3.92D-04
 NORM(A)=   0.10382367D+01
 Iteration Nr.   7
 **********************
 DD1Dir will call FoFMem   1 times, MxPair=        34
 NAB=    12 NAA=     6 NBB=     3.
 A-vector RMS=  3.0452646D-06 Max=  3.3080018D-05 conv= 1.00D-05.
 RLE energy=       -0.1896628414
 DE(Corr)= -0.18966272     E(CORR)=     -459.66986115     Delta=-1.84D-05
 NORM(A)=   0.10382388D+01
 Iteration Nr.   8
 **********************
 DD1Dir will call FoFMem   1 times, MxPair=        34
 NAB=    12 NAA=     6 NBB=     3.
 A-vector RMS=  1.2348122D-06 Max=  8.5850625D-06 conv= 1.00D-05.
 RLE energy=       -0.1896636596
 DE(Corr)= -0.18966320     E(CORR)=     -459.66986163     Delta=-4.80D-07
 NORM(A)=   0.10382396D+01
 Iteration Nr.   9
 **********************
 DD1Dir will call FoFMem   1 times, MxPair=        34
 NAB=    12 NAA=     6 NBB=     3.
 A-vector RMS=  4.1713312D-07 Max=  2.1362017D-06 conv= 1.00D-05.
 RLE energy=       -0.1896635065
 DE(Corr)= -0.18966357     E(CORR)=     -459.66986200     Delta=-3.72D-07
 NORM(A)=   0.10382395D+01
 Iteration Nr.  10
 **********************
 DD1Dir will call FoFMem   1 times, MxPair=        34
 NAB=    12 NAA=     6 NBB=     3.
 A-vector RMS=  1.1620960D-07 Max=  5.6654719D-07 conv= 1.00D-05.
 RLE energy=       -0.1896635155
 DE(Corr)= -0.18966352     E(CORR)=     -459.66986195     Delta= 5.33D-08
 NORM(A)=   0.10382395D+01
 CI/CC converged in   10 iterations to DelEn= 5.33D-08 Conv= 1.00D-07 ErrA1= 1.16D-07 Conv= 1.00D-05
 Wavefunction amplitudes converged. E(Corr)=     -459.66986195    
 Largest amplitude= 3.78D-02
 Time for triples=     1258.30 seconds.
 T4(CCSD)= -0.62770764D-02
 T5(CCSD)= -0.64630657D-04
 CCSD(T)= -0.45967620366D+03
 Discarding MO integrals.
 Leave Link  913 at Mon Oct  5 21:23:10 2020, MaxMem=   268435456 cpu:            1311.6 elap:             183.6
 (Enter /applis/site/cecic/gaussian16/B.01/nehalem/g16/l601.exe)
 Copying SCF densities to generalized density rwf, IOpCl= 0 IROHF=1.
 SCF density gives NOpUse=  8 NOpAll= 48.
 Marking SCF density as not fully symmetric.

 **********************************************************************

            Population analysis using the SCF Density.

 **********************************************************************

 Orbital symmetries:
       Occupied  (A1G) (A1G) (T1U) (T1U) (T1U) (A1G) (?A) (?A)
                 (?A)
       Virtual   (?A) (?A) (?A) (?B) (?B) (T2G) (T2G) (?B) (T2G)
                 (?A) (?A) (?A) (?B) (T2G) (T2G) (?B) (T2G) (?B)
                 (?A) (?A) (?A) (?A) (A2U) (?A) (?A) (?B) (T2G)
                 (T2G) (?B) (T2G) (T1U) (T1U) (T1U) (?A) (?A) (?A)
                 (?A) (A2U) (?A) (?A) (A1G)
 Unable to determine electronic state:  an orbital has unidentified symmetry.
 Alpha  occ. eigenvalues -- -104.89107 -10.61355  -8.09810  -8.07425  -8.07425
 Alpha  occ. eigenvalues --   -1.13214  -0.56988  -0.50691  -0.50691
 Alpha virt. eigenvalues --    0.10654   0.11424   0.11424   0.12194   0.31596
 Alpha virt. eigenvalues --    0.32359   0.32359   0.34195   0.34195   0.58758
 Alpha virt. eigenvalues --    0.61785   0.61785   0.85557   0.86929   0.86929
 Alpha virt. eigenvalues --    0.88895   0.90460   0.90460   1.14157   1.14567
 Alpha virt. eigenvalues --    1.14567   1.15809   1.15809   1.17821   1.17821
 Alpha virt. eigenvalues --    2.44213   2.45456   2.45456   2.49187   2.49187
 Alpha virt. eigenvalues --    2.59045   2.63916   2.63916   2.97872   2.98544
 Alpha virt. eigenvalues --    2.98544   3.00568   3.00568   3.03878   3.03878
 Alpha virt. eigenvalues --    5.00276
          Condensed to atoms (all electrons):
               1
     1  Cl  17.000000
          Atomic-Atomic Spin Densities.
               1
     1  Cl   1.000000
 Mulliken charges and spin densities:
               1          2
     1  Cl   0.000000   1.000000
 Sum of Mulliken charges =   0.00000   1.00000
 Mulliken charges and spin densities with hydrogens summed into heavy atoms:
               1          2
     1  Cl   0.000000   1.000000
 Electronic spatial extent (au):  <R**2>=             27.6794
 Charge=              0.0000 electrons
 Dipole moment (field-independent basis, Debye):
    X=              0.0000    Y=              0.0000    Z=              0.0000  Tot=              0.0000
 Quadrupole moment (field-independent basis, Debye-Ang):
   XX=            -13.1435   YY=            -10.9428   ZZ=            -13.1435
   XY=             -0.0000   XZ=              0.0000   YZ=              0.0000
 Traceless Quadrupole moment (field-independent basis, Debye-Ang):
   XX=             -0.7336   YY=              1.4672   ZZ=             -0.7336
   XY=             -0.0000   XZ=              0.0000   YZ=              0.0000
 Octapole moment (field-independent basis, Debye-Ang**2):
  XXX=              0.0000  YYY=              0.0000  ZZZ=              0.0000  XYY=              0.0000
  XXY=              0.0000  XXZ=              0.0000  XZZ=              0.0000  YZZ=              0.0000
  YYZ=              0.0000  XYZ=              0.0000
 Hexadecapole moment (field-independent basis, Debye-Ang**3):
 XXXX=            -15.4507 YYYY=            -10.8844 ZZZZ=            -15.4507 XXXY=             -0.0000
 XXXZ=              0.0000 YYYX=             -0.0000 YYYZ=              0.0000 ZZZX=              0.0000
 ZZZY=              0.0000 XXYY=             -4.3891 XXZZ=             -5.1502 YYZZ=             -4.3891
 XXYZ=              0.0000 YYXZ=              0.0000 ZZXY=             -0.0000
 N-N= 0.000000000000D+00 E-N=-1.094313873621D+03  KE= 4.594648096863D+02
 Symmetry AG   KE= 3.240829154675D+02
 Symmetry B1G  KE= 3.120523363958D-37
 Symmetry B2G  KE=-1.813680356283D-53
 Symmetry B3G  KE= 3.120523363959D-37
 Symmetry AU   KE= 2.256078740387D-36
 Symmetry B1U  KE= 4.588967936398D+01
 Symmetry B2U  KE= 4.360253549082D+01
 Symmetry B3U  KE= 4.588967936398D+01
 Symmetry AG   SP= 5.344060121520D-16
 Symmetry B1G  SP= 4.318492298093D-53
 Symmetry B2G  SP= 6.834726945102D-54
 Symmetry B3G  SP= 3.745661765988D-53
 Symmetry AU   SP= 4.176194859530D-53
 Symmetry B1U  SP= 7.675736126415D-16
 Symmetry B2U  SP= 1.000000000000D+00
 Symmetry B3U  SP= 7.871662248839D-16
                          Isotropic Fermi Contact Couplings
        Atom                 a.u.       MegaHertz       Gauss      10(-4) cm-1
     1  Cl(35)            -0.00000      -0.00000      -0.00000      -0.00000
 --------------------------------------------------------
       Center         ----  Spin Dipole Couplings  ----
                      3XX-RR        3YY-RR        3ZZ-RR
 --------------------------------------------------------
     1   Atom       -2.778287      5.556573     -2.778287
 --------------------------------------------------------
                        XY            XZ            YZ
 --------------------------------------------------------
     1   Atom        0.000000      0.000000      0.000000
 --------------------------------------------------------


 ---------------------------------------------------------------------------------
              Anisotropic Spin Dipole Couplings in Principal Axis System
 ---------------------------------------------------------------------------------

       Atom             a.u.   MegaHertz   Gauss  10(-4) cm-1        Axes

              Baa    -2.7783  -145.409   -51.886   -48.503  0.0000  0.0000  1.0000
     1 Cl(35) Bbb    -2.7783  -145.409   -51.886   -48.503  1.0000  0.0000  0.0000
              Bcc     5.5566   290.818   103.771    97.006 -0.0000  1.0000  0.0000
 

 ---------------------------------------------------------------------------------

 No NMR shielding tensors so no spin-rotation constants.
 Leave Link  601 at Mon Oct  5 21:23:11 2020, MaxMem=   268435456 cpu:               2.3 elap:               0.4
 (Enter /applis/site/cecic/gaussian16/B.01/nehalem/g16/l9999.exe)
 1\1\GINC-DAHU134\SP\ROCCSD(T)-FC\Aug-CC-pVTZ\Cl1(2)\TINACCIL\05-Oct-20
 20\0\\#P ROCCSD(T)/aug-cc-pvtz\\Title\\0,2\Cl\\Version=ES64L-G16RevB.0
 1\HF=-459.4801984\MP2=-459.648378\MP3=-459.6695401\PUHF=-459.4801984\P
 MP2-0=-459.648378\MP4SDQ=-459.6702212\CCSD=-459.669862\CCSD(T)=-459.67
 62037\RMSD=3.109e-09\PG=OH [O(Cl1)]\\@


 LENDING MONEY TO FRIENDS CAUSES THEM TO LOSE THEIR MEMORIES.

    --  PETER'S THEORY OF RECIPROCAL INHIBITION OF FISCAL RECALL
 Job cpu time:       0 days  0 hours 22 minutes 16.3 seconds.
 Elapsed time:       0 days  0 hours  3 minutes  8.0 seconds.
 File lengths (MBytes):  RWF=     23 Int=      0 D2E=      0 Chk=      2 Scr=      1
 Normal termination of Gaussian 16 at Mon Oct  5 21:23:11 2020.
