4
 energy: -10.077822640779 gnorm: 0.231457388723 xtb: 6.2.2 (9d81278992624c895f80dd42a50cac0aa55982e2)
C         1.47196600000000   -0.03541300000000   -0.24579200000000
C         0.19459900000000   -0.01530000000000    0.56668400000000
C        -0.89012800000000   -0.67466900000000   -0.18972000000000
O        -0.77643800000000    0.72538100000000   -0.13117200000000
4
 energy: -10.135897357454 gnorm: 0.166804492398 xtb: 6.2.2 (9d81278992624c895f80dd42a50cac0aa55982e2)
C         1.49461207626661   -0.05326713491824   -0.16968839959850
C         0.26129406370052   -0.01849053463733    0.43976885808458
C        -0.90382181466144   -0.63759181944004   -0.16225286723463
O        -0.85208532530568    0.70934848899560   -0.10782759125145
4
 energy: -10.159124407068 gnorm: 0.275401558406 xtb: 6.2.2 (9d81278992624c895f80dd42a50cac0aa55982e2)
C         1.49100259304246   -0.07350120534674   -0.04964975773069
C         0.38318839729644   -0.01130797764976    0.25514761936972
C        -0.93317415605416   -0.56789209336865   -0.13213256786548
O        -0.94101783428474    0.65270027636516   -0.07336529377356
4
 energy: -10.179258954048 gnorm: 0.091440571263 xtb: 6.2.2 (9d81278992624c895f80dd42a50cac0aa55982e2)
C         1.64703029644077   -0.09381242526697   -0.02216848307938
C         0.37749418334211    0.00547042367064    0.17473027227311
C        -0.99317064426079   -0.55809456017270   -0.11413845471791
O        -1.03135483552208    0.64643556176903   -0.03842333447581
4
 energy: -10.182785316228 gnorm: 0.038621358894 xtb: 6.2.2 (9d81278992624c895f80dd42a50cac0aa55982e2)
C         1.62256600582220   -0.09623017962324   -0.01576310925141
C         0.38295903379734    0.00962537661015    0.16590017414685
C        -0.98239572987448   -0.56584045918247   -0.11554059950126
O        -1.02313030974506    0.65244426219556   -0.03459646539419
4
 energy: -10.184605522003 gnorm: 0.033159028269 xtb: 6.2.2 (9d81278992624c895f80dd42a50cac0aa55982e2)
C         1.61865326083380   -0.09606961092941    0.01156047899425
C         0.39838307563760    0.01266591391659    0.11587100463640
C        -0.99061422726096   -0.56360022630747   -0.10532972014557
O        -1.02642310921044    0.64700292332029   -0.02210176348508
4
 energy: -10.185499474694 gnorm: 0.029535246119 xtb: 6.2.2 (9d81278992624c895f80dd42a50cac0aa55982e2)
C         1.62263669148370   -0.10386545213076    0.02602234828440
C         0.39878119236693    0.02217179235645    0.08250399743291
C        -0.98734933505707   -0.56712895260492   -0.10105993593253
O        -1.03406954879356    0.64882161237923   -0.00746640978479
4
 energy: -10.186715817253 gnorm: 0.015942432671 xtb: 6.2.2 (9d81278992624c895f80dd42a50cac0aa55982e2)
C         1.61954493408119   -0.10932785712921    0.04850990964037
C         0.38778554871493    0.03461359510259    0.02386009483155
C        -0.98020669941681   -0.57325658233362   -0.08915995047134
O        -1.02712478337932    0.64796984436023    0.01678994599942
4
 energy: -10.187193551112 gnorm: 0.008493252114 xtb: 6.2.2 (9d81278992624c895f80dd42a50cac0aa55982e2)
C         1.60663972855056   -0.10171768609012    0.05225272977994
C         0.37188678358952    0.03484430997507    0.00603318211302
C        -0.97773428751403   -0.58027429911840   -0.08154812289507
O        -1.00079322462605    0.64714667523345    0.02326221100211
4
 energy: -10.187270200335 gnorm: 0.004332103011 xtb: 6.2.2 (9d81278992624c895f80dd42a50cac0aa55982e2)
C         1.60633967048239   -0.09413606228464    0.05139876793017
C         0.36879073251278    0.03096620683618    0.00660231095145
C        -0.98554269519172   -0.58179473276759   -0.07889500975644
O        -0.98958870780345    0.64496358821605    0.02089393087482
4
 energy: -10.187294585358 gnorm: 0.002776754396 xtb: 6.2.2 (9d81278992624c895f80dd42a50cac0aa55982e2)
C         1.60699901620798   -0.09249334994396    0.04870372921071
C         0.36893984631092    0.03075125487786    0.01286047418762
C        -0.98850088777492   -0.58218870588882   -0.08051617075239
O        -0.98743897474398    0.64392980095492    0.01895196735407
4
 energy: -10.187309660348 gnorm: 0.001599271688 xtb: 6.2.2 (9d81278992624c895f80dd42a50cac0aa55982e2)
C         1.60726387397790   -0.09375333028572    0.04683146462109
C         0.36908531534357    0.03366009532405    0.01696493152934
C        -0.98877153815419   -0.58287503584485   -0.08325195865539
O        -0.98757865116727    0.64296727080652    0.01945556250496
4
 energy: -10.187323749566 gnorm: 0.001475177519 xtb: 6.2.2 (9d81278992624c895f80dd42a50cac0aa55982e2)
C         1.60647654684943   -0.09934023272925    0.04494532621268
C         0.36943388526978    0.04239883868723    0.02080411496134
C        -0.98572512835073   -0.58420900761897   -0.08912710887522
O        -0.99018630376848    0.64114940166098    0.02337766770120
4
 energy: -10.187327751937 gnorm: 0.000428926730 xtb: 6.2.2 (9d81278992624c895f80dd42a50cac0aa55982e2)
C         1.60565450839802   -0.10112509585654    0.04628893141281
C         0.36967462944305    0.04438791966289    0.01782033286387
C        -0.98391482673498   -0.58415796250474   -0.08941414189728
O        -0.99141531110610    0.64089413869839    0.02530487762061
