$hessian                                                                        
        0.8146903042  -0.1049117073   0.0175980144  -0.7084274917   0.1044512727
       -0.0135633023  -0.0424270562   0.0440750303   0.0025071205  -0.0638357563
       -0.0436145957  -0.0065418326
       -0.1049117073   0.0243918292  -0.0024038151   0.0946759889  -0.0303351293
        0.0024981614  -0.0004991854  -0.0099394644  -0.0012942375   0.0107349038
        0.0158827646   0.0011998912
        0.0175980144  -0.0024038151   0.0121829307  -0.0145620889   0.0028426446
       -0.0227780054  -0.0016325823   0.0002610207   0.0037948610  -0.0014033433
       -0.0006998502   0.0068002136
       -0.7084274917   0.0946759889  -0.0145620889   0.8949330711  -0.0687406550
        0.0230095734  -0.1296089257  -0.2272820700  -0.0257080971  -0.0568966537
        0.2013467361   0.0172606125
        0.1044512727  -0.0303351293   0.0028426446  -0.0687406550   0.0974631245
        0.0027925354  -0.0735891949  -0.0299417465  -0.0047702433   0.0378785773
       -0.0371862487  -0.0008649366
       -0.0135633023   0.0024981614  -0.0227780054   0.0230095734   0.0027925354
        0.0441289263  -0.0113244541  -0.0102522270  -0.0086764144   0.0018781830
        0.0049615302  -0.0126745066
       -0.0424270562  -0.0004991854  -0.0016325823  -0.1296089257  -0.0735891949
       -0.0113244541   0.1708070994   0.1342178801   0.0186303014   0.0012288825
       -0.0601294998  -0.0056732650
        0.0440750303  -0.0099394644   0.0002610207  -0.2272820700  -0.0299417465
       -0.0102522270   0.1342178801   0.6691655623   0.0674834758   0.0489891595
       -0.6292843514  -0.0574922695
        0.0025071205  -0.0012942375   0.0037948610  -0.0257080971  -0.0047702433
       -0.0086764144   0.0186303014   0.0674834758   0.0082385124   0.0045706752
       -0.0614189950  -0.0033569590
       -0.0638357563   0.0107349038  -0.0014033433  -0.0568966537   0.0378785773
        0.0018781830   0.0012288825   0.0489891595   0.0045706752   0.1195035276
       -0.0976026406  -0.0050455150
       -0.0436145957   0.0158827646  -0.0006998502   0.2013467361  -0.0371862487
        0.0049615302  -0.0601294998  -0.6292843514  -0.0614189950  -0.0976026406
        0.6505878355   0.0571573149
       -0.0065418326   0.0011998912   0.0068002136   0.0172606125  -0.0008649366
       -0.0126745066  -0.0056732650  -0.0574922695  -0.0033569590  -0.0050455150
        0.0571573149   0.0092312520
