 Entering Gaussian System
 *********************************************
 Gaussian 98:
 frequency output generated by the xtb code
 *********************************************
                         Standard orientation:
 --------------------------------------------------------------------
  Center     Atomic     Atomic              Coordinates (Angstroms)
  Number     Number      Type              X           Y           Z
 --------------------------------------------------------------------
    1          6             0        1.605654   -0.101133    0.046284
    2          6             0        0.369675    0.044386    0.017819
    3          6             0       -0.983918   -0.584153   -0.089410
    4          8             0       -0.991412    0.640899    0.025307
 --------------------------------------------------------------------
     1 basis functions        1 primitive gaussians
     1 alpha electrons        1 beta electrons

 Harmonic frequencies (cm**-1), IR intensities (KM/Mole),
 Raman scattering activities (A**4/amu), Raman depolarization ratios,
 reduced masses (AMU), force constants (mDyne/A) and normal coordinates:
                      1                      2                      3
                        a                      a                      a 
 Frequencies --   283.6781               360.7489               594.4426
 Red. masses --    12.5242                12.2158                13.9896
 Frc consts  --     0.0000                 0.0000                 0.0000
 IR Inten    --     0.2600                 0.2018                 0.2846
 Raman Activ --     0.0000                 0.0000                 0.0000
 Depolar     --     0.0000                 0.0000                 0.0000
 Atom AN      X      Y      Z        X      Y      Z        X      Y      Z
   1   6    -0.09  -0.52  -0.05    -0.01  -0.04   0.44     0.37  -0.01   0.01
   2   6     0.07   0.63   0.06     0.03   0.08  -0.85     0.34  -0.41  -0.03
   3   6     0.43  -0.05   0.01    -0.01  -0.01   0.14     0.08   0.27   0.03
   4   8    -0.36  -0.05  -0.02    -0.01  -0.02   0.23    -0.69   0.13  -0.01
                      4                      5                      6
                        a                      a                      a 
 Frequencies --   780.3509              1538.9606              1940.4213
 Red. masses --    12.3977                13.2819                12.3083
 Frc consts  --     0.0000                 0.0000                 0.0000
 IR Inten    --     1.0008                 1.5586                 0.4204
 Raman Activ --     0.0000                 0.0000                 0.0000
 Depolar     --     0.0000                 0.0000                 0.0000
 Atom AN      X      Y      Z        X      Y      Z        X      Y      Z
   1   6    -0.33   0.06  -0.01     0.42  -0.05   0.01    -0.58   0.08  -0.01
   2   6    -0.38  -0.40  -0.05    -0.19   0.07   0.00     0.68  -0.06   0.02
   3   6     0.70  -0.02   0.02    -0.13  -0.66  -0.07    -0.08  -0.33  -0.03
   4   8     0.01   0.31   0.03    -0.08   0.56   0.05    -0.02   0.27   0.02
