      -----------------------------------------------------------      
     |                   =====================                   |     
     |                           x T B                           |     
     |                   =====================                   |     
     |                         S. Grimme                         |     
     |          Mulliken Center for Theoretical Chemistry        |     
     |                    University of Bonn                     |     
      -----------------------------------------------------------      

   * xtb version 6.2.2 (9d81278992624c895f80dd42a50cac0aa55982e2) compiled by '@Darwin' on 04/03/2020

   xtb is free software: you can redistribute it and/or modify it under
   the terms of the GNU Lesser General Public License as published by
   the Free Software Foundation, either version 3 of the License, or
   (at your option) any later version.
   
   xtb is distributed in the hope that it will be useful,
   but WITHOUT ANY WARRANTY; without even the implied warranty of
   MERCHANTABILITY or FITNESS FOR A PARTICULAR PURPOSE.  See the
   GNU Lesser General Public License for more details.
   
   Cite this work as:
   * S. Grimme, C. Bannwarth, P. Shushkov, J. Chem. Theory Comput., 2017,
     13, 1989-2009. DOI: 10.1021/acs.jctc.7b00118
   * C. Bannwarth, S. Ehlert and S. Grimme., J. Chem. Theory Comput., 2019,
     15, 1652-1671. DOI: 10.1021/acs.jctc.8b01176
   * P. Pracht, E. Caldeweyher, S. Ehlert, S. Grimme, ChemRxiv, 2019, preprint.
     DOI: 10.26434/chemrxiv.8326202.v1
   
   for DFT-D4:
   * E. Caldeweyher, C. Bannwarth and S. Grimme, J. Chem. Phys., 2017,
     147, 034112. DOI: 10.1063/1.4993215
   * E. Caldeweyher, S. Ehlert, A. Hansen, H. Neugebauer, S. Spicher,
     C. Bannwarth and S. Grimme, J. Chem. Phys., 2019, 150, 154122.
     DOI: 10.1063/1.5090222
   
   for sTDA-xTB:
   * S. Grimme and C. Bannwarth, J. Chem. Phys., 2016, 145, 054103.
     DOI: 10.1063/1.4959605
   
   in the mass-spec context:
   * V. Asgeirsson, C. Bauer and S. Grimme, Chem. Sci., 2017, 8, 4879.
     DOI: 10.1039/c7sc00601b
   
   for metadynamics refer to:
   * S. Grimme, J. Chem. Theory Comput., 2019, 155, 2847-2862
     DOI: 10.1021/acs.jctc.9b00143
   
   with help from (in alphabetical order)
   C. Bannwarth, F. Bohle, G. Brandenburg, E. Caldeweyher, M. Checinski,
   S. Dohm, S. Ehlert, S. Ehrlich, F. März, H. Neugebauer, J. Pisarek,
   P. Pracht, P. Shushkov, and S. Spicher.
   
 * started run on 2020/05/12 at 11:44:59.332     

           -------------------------------------------------
          |                Calculation Setup                |
           -------------------------------------------------

          program call               : xtb --input H1C3N1_23_S_0.input H1C3N1_23_S_0.xyz --ohess --molden --namespace H1C3N1_23_S_0 output.out
          calculation namespace      : H1C3N1_23_S_0
          coordinate file            : H1C3N1_23_S_0.xyz
          number of atoms            :                     5
          number of electrons        :                    18
          charge                     :                     0
          spin                       :                   0.0
          first test random number   :      0.51575243655143

   ID    Z sym.   atoms
    1    6 C      1-3
    2    7 N      4
    3    1 H      5

           -------------------------------------------------
          |                 G F N 2 - x T B                 |
           -------------------------------------------------

        Reference                      10.1021/acs.jctc.8b01176
      * Hamiltonian:
        H0-scaling (s, p, d)           1.850000    2.230000    2.230000
        zeta-weighting                 0.500000
      * Dispersion:
        s8                             2.700000
        a1                             0.520000
        a2                             5.000000
        s9                             5.000000
      * Repulsion:
        kExp                           1.500000    1.000000
        rExp                           1.000000
      * Coulomb:
        alpha                          2.000000
        third order                    shell-resolved
        anisotropic                    true
        a3                             3.000000
        a5                             4.000000
        cn-shift                       1.200000
        cn-exp                         4.000000
        max-rad                        5.000000


          ...................................................
          :                      SETUP                      :
          :.................................................:
          :  # basis functions                  17          :
          :  # atomic orbitals                  17          :
          :  # shells                            9          :
          :  # electrons                        18          :
          :  max. iterations                   250          :
          :  Hamiltonian                  GFN2-xTB          :
          :  restarted?                      false          :
          :  GBSA solvation                  false          :
          :  PC potential                    false          :
          :  electronic temp.          300.0000000     K    :
          :  accuracy                    1.0000000          :
          :  -> integral cutoff          0.2500000E+02      :
          :  -> integral neglect         0.1000000E-07      :
          :  -> SCF convergence          0.1000000E-05 Eh   :
          :  -> wf. convergence          0.1000000E-03 e    :
          :  Broyden damping             0.4000000          :
          ...................................................

 iter      E             dE          RMSdq      gap      omega  full diag
   1     -9.4357932 -0.943579E+01  0.977E+00    0.25       0.0  T
   2     -9.1699059  0.265887E+00  0.971E+00    0.30       1.0  T
   3     -9.3499823 -0.180076E+00  0.622E+00    0.07       1.0  T
   4     -9.3342461  0.157362E-01  0.637E+00    0.16       1.0  T
   5     -9.5109567 -0.176711E+00  0.276E+00    0.01       1.0  T
   6     -9.4946673  0.162894E-01  0.369E+00    0.06       1.0  T
   7     -9.5230663 -0.283990E-01  0.104E+00    0.03       1.0  T
   8     -9.5258013 -0.273497E-02  0.113E+00    0.04       1.0  T
   9     -9.5256679  0.133357E-03  0.991E-01    0.04       1.0  T
  10     -9.5239335  0.173445E-02  0.173E+00    0.04       1.0  T
  11     -9.5273372 -0.340368E-02  0.435E-01    0.04       1.0  T
  12     -9.5274493 -0.112106E-03  0.112E-01    0.04       1.0  T
  13     -9.5274515 -0.218086E-05  0.316E-02    0.04       1.4  T
  14     -9.5274519 -0.451151E-06  0.199E-02    0.04       2.2  T
  15     -9.5274528 -0.884631E-06  0.162E-02    0.04       2.8  T
  16     -9.5274530 -0.220964E-06  0.349E-03    0.04      12.8  T
  17     -9.5274530 -0.203019E-07  0.959E-04    0.04      46.7  T
  18     -9.5274530 -0.209511E-09  0.328E-04    0.04     136.4  T

   *** convergence criteria satisfied after 18 iterations ***

         #    Occupation            Energy/Eh            Energy/eV
      -------------------------------------------------------------
         1        2.0000           -0.7158429             -19.4791
       ...           ...                  ...                  ...
         3        2.0000           -0.6262027             -17.0398
         4        2.0000           -0.5619777             -15.2922
         5        2.0000           -0.5427741             -14.7696
         6        2.0000           -0.5157190             -14.0334
         7        2.0000           -0.4938585             -13.4386
         8        2.0000           -0.4269228             -11.6172
         9        1.3640           -0.4061942             -11.0531 (HOMO)
        10        0.6360           -0.4047446             -11.0137 (LUMO)
        11                         -0.3870456             -10.5320
        12                         -0.2709671              -7.3734
        13                         -0.0171199              -0.4659
        14                         -0.0056979              -0.1550
       ...                                ...                  ...
        17                          0.2575725               7.0089
      -------------------------------------------------------------
                  HL-Gap            0.0014496 Eh            0.0394 eV
             Fermi-level           -0.4054694 Eh          -11.0334 eV

 SCC (total)                   0 d,  0 h,  0 min,  0.004 sec
 SCC setup                      ...        0 min,  0.000 sec (  1.839%)
 Dispersion                     ...        0 min,  0.000 sec (  0.331%)
 integral evaluation            ...        0 min,  0.001 sec ( 24.327%)
 zeroth order Hamiltonian       ...        0 min,  0.000 sec (  0.403%)
 iterations                     ...        0 min,  0.002 sec ( 41.753%)
 molecular gradient             ...        0 min,  0.001 sec ( 27.585%)
 printout                       ...        0 min,  0.000 sec (  3.504%)

         :::::::::::::::::::::::::::::::::::::::::::::::::::::
         ::                     SUMMARY                     ::
         :::::::::::::::::::::::::::::::::::::::::::::::::::::
         :: total energy              -9.460312981451 Eh    ::
         :: gradient norm              0.209893555160 Eh/a0 ::
         :: HOMO-LUMO gap              0.039444320080 eV    ::
         ::.................................................::
         :: SCC energy                -9.527453037598 Eh    ::
         :: -> isotropic ES           -0.002937253501 Eh    ::
         :: -> anisotropic ES          0.000018344604 Eh    ::
         :: -> anisotropic XC          0.007145971983 Eh    ::
         :: -> dispersion             -0.002154615702 Eh    ::
         :: repulsion energy           0.067140022100 Eh    ::
         :: add. restraining           0.000000000000 Eh    ::
         :::::::::::::::::::::::::::::::::::::::::::::::::::::

      ----------------------------------------------------------- 
     |                   =====================                   |
     |                        A N C O P T                        |
     |                   =====================                   |
     |               Approximate Normal Coordinate               |
     |                Rational Function Optimizer                |
      ----------------------------------------------------------- 

          ...................................................
          :                      SETUP                      :
          :.................................................:
          :   optimization level            normal          :
          :   max. optcycles                   200          :
          :   ANC micro-cycles                  20          :
          :   degrees of freedom                 9          :
          :.................................................:
          :   RF solver                   davidson          :
          :   write xtbopt.log                true          :
          :   linear?                        false          :
          :   energy convergence         0.5000000E-05 Eh   :
          :   grad. convergence          0.1000000E-02 Eh/α :
          :   maximium RF displ.         1.0000000          :
          :   Hlow (freq-cutoff)         0.1000000E-01      :
          :   Hmax (freq-cutoff)         5.0000000          :
          :   S6 in model hess.         20.0000000          :
          ...................................................

generating ANC from model Hessian ...
Using Lindh-Hessian (1995)
 Shifting diagonal of input Hessian by    0.0000000000000000     
 Lowest  eigenvalues of input Hessian
   -0.000000   -0.000000   -0.000000    0.000000    0.000000    0.000000
    0.025361    0.089330    0.108554    0.278017    0.693271    0.870946
    0.996034    1.059679    1.153835
 Highest eigenvalues
    0.278017    0.693271    0.870946    0.996034    1.059679    1.153835


........................................................................
.............................. CYCLE    1 ..............................
........................................................................
   1     -9.5274530 -0.952745E+01  0.156E-04    0.04       0.0  T
   2     -9.5274530  0.343841E-09  0.484E-04    0.04      92.4  T
   3     -9.5274530 -0.360840E-09  0.603E-05    0.04     741.9  T
     SCC iter.                  ...        0 min,  0.001 sec
     gradient                   ...        0 min,  0.001 sec
 * total energy  :    -9.4603130 Eh     change        0.6516032E-10 Eh
   gradient norm :     0.2098932 Eh/α   predicted     0.0000000E+00 (-100.00%)
   displ. norm   :     0.6696330 α      lambda       -0.9482262E-01
   maximum displ.:     0.5354961 α      in ANC's #1, #3, #2, ...

........................................................................
.............................. CYCLE    2 ..............................
........................................................................
   1     -9.6115782 -0.961158E+01  0.358E+00    1.37       0.0  T
   2     -9.6057617  0.581657E-02  0.253E+00    1.35       1.0  T
   3     -9.5698206  0.359411E-01  0.269E+00    1.31       1.0  T
   4     -9.6118197 -0.419991E-01  0.875E-01    1.33       1.0  T
   5     -9.6160287 -0.420904E-02  0.206E-01    1.32       1.0  T
   6     -9.6160078  0.208880E-04  0.167E-01    1.32       1.0  T
   7     -9.6161130 -0.105182E-03  0.540E-02    1.32       1.0  T
   8     -9.6161256 -0.125400E-04  0.137E-02    1.32       3.3  T
   9     -9.6161257 -0.166502E-06  0.206E-03    1.32      21.7  T
  10     -9.6161257 -0.260224E-08  0.391E-04    1.32     114.4  T
  11     -9.6161257 -0.101711E-09  0.150E-04    1.32     297.6  T
     SCC iter.                  ...        0 min,  0.001 sec
     gradient                   ...        0 min,  0.001 sec
 * total energy  :    -9.5402691 Eh     change       -0.7995616E-01 Eh
   gradient norm :     0.1856711 Eh/α   predicted    -0.6867095E-01 ( -14.11%)
   displ. norm   :     0.5516710 α      lambda       -0.8582730E-01
   maximum displ.:     0.2819196 α      in ANC's #7, #5, #3, ...

........................................................................
.............................. CYCLE    3 ..............................
........................................................................
   1     -9.7211295 -0.972113E+01  0.270E+00    2.56       0.0  T
   2     -9.7207771  0.352455E-03  0.180E+00    2.56       1.0  T
   3     -9.7158745  0.490257E-02  0.138E+00    2.41       1.0  T
   4     -9.7244539 -0.857946E-02  0.375E-01    2.55       1.0  T
   5     -9.7251165 -0.662595E-03  0.127E-01    2.52       1.0  T
   6     -9.7251414 -0.248643E-04  0.708E-02    2.50       1.0  T
   7     -9.7251561 -0.146821E-04  0.177E-02    2.51       2.5  T
   8     -9.7251566 -0.516686E-06  0.614E-03    2.51       7.3  T
   9     -9.7251566 -0.417183E-07  0.707E-04    2.51      63.3  T
  10     -9.7251566 -0.406665E-09  0.118E-04    2.51     378.8  T
     SCC iter.                  ...        0 min,  0.001 sec
     gradient                   ...        0 min,  0.001 sec
 * total energy  :    -9.5738063 Eh     change       -0.3353721E-01 Eh
   gradient norm :     0.1350808 Eh/α   predicted    -0.5597403E-01 (  66.90%)
   displ. norm   :     0.3797727 α      lambda       -0.2841989E-01
   maximum displ.:     0.3613303 α      in ANC's #1, #4, #8, ...

........................................................................
.............................. CYCLE    4 ..............................
........................................................................
   1     -9.6891208 -0.968912E+01  0.218E+00    2.97       0.0  T
   2     -9.6881666  0.954182E-03  0.152E+00    3.07       1.0  T
   3     -9.6882324 -0.657748E-04  0.103E+00    2.98       1.0  T
   4     -9.6928348 -0.460247E-02  0.247E-01    3.10       1.0  T
   5     -9.6930853 -0.250420E-03  0.107E-01    3.08       1.0  T
   6     -9.6930767  0.858207E-05  0.816E-02    3.09       1.0  T
   7     -9.6931060 -0.293626E-04  0.148E-02    3.08       3.0  T
   8     -9.6931066 -0.531626E-06  0.551E-03    3.08       8.1  T
   9     -9.6931066 -0.371490E-08  0.127E-03    3.08      35.3  T
  10     -9.6931066 -0.272709E-08  0.185E-04    3.08     241.1  T
  11     -9.6931066 -0.125393E-10  0.535E-05    3.08     836.1  T
     SCC iter.                  ...        0 min,  0.001 sec
     gradient                   ...        0 min,  0.001 sec
 * total energy  :    -9.5789732 Eh     change       -0.5166876E-02 Eh
   gradient norm :     0.0766658 Eh/α   predicted    -0.1625939E-01 ( 214.69%)
   displ. norm   :     0.1925969 α      lambda       -0.8658726E-02
   maximum displ.:     0.1867172 α      in ANC's #1, #2, #5, ...

........................................................................
.............................. CYCLE    5 ..............................
........................................................................
   1     -9.7077227 -0.970772E+01  0.984E-01    3.02       0.0  T
   2     -9.7076761  0.465642E-04  0.588E-01    2.99       1.0  T
   3     -9.7062866  0.138950E-02  0.490E-01    3.01       1.0  T
   4     -9.7079346 -0.164791E-02  0.560E-02    2.98       1.0  T
   5     -9.7079367 -0.217814E-05  0.506E-02    2.98       1.0  T
   6     -9.7079465 -0.980152E-05  0.673E-03    2.98       6.6  T
   7     -9.7079466 -0.299009E-07  0.355E-03    2.98      12.6  T
   8     -9.7079466 -0.105147E-07  0.148E-03    2.98      30.1  T
   9     -9.7079466 -0.333009E-08  0.351E-04    2.98     127.2  T
  10     -9.7079466 -0.121936E-09  0.458E-05    2.98     976.1  T
     SCC iter.                  ...        0 min,  0.001 sec
     gradient                   ...        0 min,  0.001 sec
 * total energy  :    -9.5836531 Eh     change       -0.4679848E-02 Eh
   gradient norm :     0.0201652 Eh/α   predicted    -0.4489954E-02 (  -4.06%)
   displ. norm   :     0.0616396 α      lambda       -0.8853377E-03
   maximum displ.:     0.0306390 α      in ANC's #2, #3, #5, ...

........................................................................
.............................. CYCLE    6 ..............................
........................................................................
   1     -9.7119565 -0.971196E+01  0.268E-01    3.11       0.0  T
   2     -9.7119317  0.248519E-04  0.170E-01    3.10       1.0  T
   3     -9.7118571  0.745683E-04  0.166E-01    3.11       1.0  T
   4     -9.7119911 -0.134001E-03  0.143E-02    3.10       3.1  T
   5     -9.7119912 -0.937961E-07  0.870E-03    3.10       5.1  T
   6     -9.7119913 -0.602536E-07  0.483E-03    3.10       9.3  T
   7     -9.7119914 -0.135214E-06  0.141E-03    3.10      31.6  T
   8     -9.7119914 -0.303371E-08  0.287E-04    3.10     155.8  T
   9     -9.7119914 -0.920934E-10  0.105E-04    3.10     427.4  T
     SCC iter.                  ...        0 min,  0.001 sec
     gradient                   ...        0 min,  0.001 sec
 * total energy  :    -9.5842731 Eh     change       -0.6200101E-03 Eh
   gradient norm :     0.0146993 Eh/α   predicted    -0.4443517E-03 ( -28.33%)
   displ. norm   :     0.0627606 α      lambda       -0.5965580E-03
   maximum displ.:     0.0367819 α      in ANC's #5, #3, #1, ...

........................................................................
.............................. CYCLE    7 ..............................
........................................................................
   1     -9.7141150 -0.971412E+01  0.319E-01    3.18       0.0  T
   2     -9.7141055  0.953180E-05  0.192E-01    3.17       1.0  T
   3     -9.7140074  0.980465E-04  0.179E-01    3.18       1.0  T
   4     -9.7141590 -0.151589E-03  0.310E-02    3.18       1.4  T
   5     -9.7141622 -0.320058E-05  0.131E-02    3.18       3.4  T
   6     -9.7141622 -0.227989E-07  0.806E-03    3.18       5.6  T
   7     -9.7141626 -0.347311E-06  0.127E-03    3.18      35.2  T
   8     -9.7141626 -0.117303E-08  0.307E-04    3.18     145.7  T
   9     -9.7141626 -0.119222E-09  0.108E-04    3.18     413.0  T
     SCC iter.                  ...        0 min,  0.001 sec
     gradient                   ...        0 min,  0.001 sec
 * total energy  :    -9.5846695 Eh     change       -0.3964376E-03 Eh
   gradient norm :     0.0113681 Eh/α   predicted    -0.2994541E-03 ( -24.46%)
   displ. norm   :     0.0435919 α      lambda       -0.2294593E-03
   maximum displ.:     0.0229381 α      in ANC's #5, #3, #1, ...

........................................................................
.............................. CYCLE    8 ..............................
........................................................................
   1     -9.7129499 -0.971295E+01  0.185E-01    3.18       0.0  T
   2     -9.7129511 -0.126740E-05  0.111E-01    3.18       1.0  T
   3     -9.7129228  0.283400E-04  0.874E-02    3.18       1.0  T
   4     -9.7129616 -0.388186E-04  0.204E-02    3.18       2.2  T
   5     -9.7129631 -0.148520E-05  0.833E-03    3.18       5.4  T
   6     -9.7129630  0.634454E-07  0.628E-03    3.18       7.1  T
   7     -9.7129632 -0.208970E-06  0.626E-04    3.18      71.4  T
   8     -9.7129633 -0.144396E-09  0.125E-04    3.18     357.8  T
     SCC iter.                  ...        0 min,  0.001 sec
     gradient                   ...        0 min,  0.001 sec
 * total energy  :    -9.5848108 Eh     change       -0.1412695E-03 Eh
   gradient norm :     0.0054750 Eh/α   predicted    -0.1149467E-03 ( -18.63%)
   displ. norm   :     0.0195375 α      lambda       -0.7064379E-04
   maximum displ.:     0.0124527 α      in ANC's #5, #2, #1, ...

........................................................................
.............................. CYCLE    9 ..............................
........................................................................
   1     -9.7138341 -0.971383E+01  0.713E-02    3.17       0.0  T
   2     -9.7138329  0.115129E-05  0.546E-02    3.17       1.0  T
   3     -9.7138371 -0.422177E-05  0.331E-02    3.17       1.4  T
   4     -9.7138395 -0.237016E-05  0.119E-02    3.17       3.7  T
   5     -9.7138401 -0.544923E-06  0.417E-03    3.17      10.7  T
   6     -9.7138401 -0.745727E-07  0.175E-03    3.17      25.6  T
   7     -9.7138401 -0.445167E-08  0.294E-04    3.17     152.1  T
   8     -9.7138401 -0.500275E-10  0.607E-05    3.17     736.8  T
     SCC iter.                  ...        0 min,  0.001 sec
     gradient                   ...        0 min,  0.001 sec
 * total energy  :    -9.5848411 Eh     change       -0.3027175E-04 Eh
   gradient norm :     0.0035331 Eh/α   predicted    -0.3533478E-04 (  16.73%)
   displ. norm   :     0.0119160 α      lambda       -0.2641065E-04
   maximum displ.:     0.0066031 α      in ANC's #3, #1, #2, ...

........................................................................
.............................. CYCLE   10 ..............................
........................................................................
   1     -9.7125653 -0.971257E+01  0.436E-02    3.16       0.0  T
   2     -9.7125650  0.231965E-06  0.268E-02    3.16       1.7  T
   3     -9.7125637  0.136530E-05  0.246E-02    3.16       1.8  T
   4     -9.7125662 -0.253833E-05  0.423E-03    3.16      10.6  T
   5     -9.7125663 -0.654572E-07  0.241E-03    3.16      18.6  T
   6     -9.7125663 -0.154036E-07  0.111E-03    3.16      40.5  T
   7     -9.7125663 -0.358117E-08  0.237E-04    3.16     188.7  T
   8     -9.7125663 -0.612967E-10  0.412E-05    3.16    1085.0  T
     SCC iter.                  ...        0 min,  0.001 sec
     gradient                   ...        0 min,  0.001 sec
 * total energy  :    -9.5848550 Eh     change       -0.1398758E-04 Eh
   gradient norm :     0.0022598 Eh/α   predicted    -0.1320887E-04 (  -5.57%)
   displ. norm   :     0.0035003 α      lambda       -0.6603044E-05
   maximum displ.:     0.0026719 α      in ANC's #6, #8, #1, ...

........................................................................
.............................. CYCLE   11 ..............................
........................................................................
   1     -9.7126822 -0.971268E+01  0.342E-02    3.16       0.0  T
   2     -9.7126821  0.122991E-06  0.208E-02    3.16       2.1  T
   3     -9.7126812  0.943667E-06  0.169E-02    3.16       2.6  T
   4     -9.7126828 -0.165863E-05  0.240E-03    3.16      18.6  T
   5     -9.7126828 -0.234771E-07  0.112E-03    3.16      39.9  T
   6     -9.7126828 -0.400496E-08  0.537E-04    3.16      83.3  T
   7     -9.7126828 -0.583880E-09  0.636E-05    3.16     702.8  T
     SCC iter.                  ...        0 min,  0.001 sec
     gradient                   ...        0 min,  0.001 sec
 * total energy  :    -9.5848599 Eh     change       -0.4806449E-05 Eh
   gradient norm :     0.0011487 Eh/α   predicted    -0.3301182E-05 ( -31.32%)
   displ. norm   :     0.0060441 α      lambda       -0.3305302E-05
   maximum displ.:     0.0035097 α      in ANC's #1, #6, #5, ...

........................................................................
.............................. CYCLE   12 ..............................
........................................................................
   1     -9.7130366 -0.971304E+01  0.450E-02    3.17       0.0  T
   2     -9.7130364  0.214540E-06  0.263E-02    3.17       1.7  T
   3     -9.7130344  0.202784E-05  0.233E-02    3.17       1.9  T
   4     -9.7130376 -0.319446E-05  0.282E-03    3.17      15.9  T
   5     -9.7130376 -0.302740E-07  0.138E-03    3.17      32.3  T
   6     -9.7130376 -0.354120E-08  0.298E-04    3.17     150.3  T
   7     -9.7130376 -0.314637E-09  0.911E-05    3.17     490.9  T
     SCC iter.                  ...        0 min,  0.001 sec
     gradient                   ...        0 min,  0.001 sec
 * total energy  :    -9.5848613 Eh     change       -0.1465488E-05 Eh
   gradient norm :     0.0006295 Eh/α   predicted    -0.1654061E-05 (  12.87%)
   displ. norm   :     0.0016114 α      lambda       -0.5010669E-06
   maximum displ.:     0.0011323 α      in ANC's #6, #1, #2, ...

   *** GEOMETRY OPTIMIZATION CONVERGED AFTER 12 ITERATIONS ***

------------------------------------------------------------------------
 total energy gain   :        -0.1245483 Eh      -78.1553 kcal/mol
 total RMSD          :         0.5302453 a0        0.2806 Å
 total power (kW/mol):       -27.2501349 (step)-9855.4546 (real)
------------------------------------------------------------------------

 ANCopt (total)                0 d,  0 h,  0 min,  0.033 sec
 optimizer setup                ...        0 min,  0.000 sec (  0.202%)
 model hessian                  ...        0 min,  0.000 sec (  0.297%)
 ANC generation                 ...        0 min,  0.000 sec (  0.169%)
 coordinate transformation      ...        0 min,  0.000 sec (  0.073%)
 single point calculation       ...        0 min,  0.032 sec ( 96.644%)
 optimization log               ...        0 min,  0.000 sec (  0.850%)
 hessian update                 ...        0 min,  0.000 sec (  0.074%)
 rational function              ...        0 min,  0.000 sec (  0.779%)

================
 final structure:
================
5
 xtb: 6.2.2 (9d81278992624c895f80dd42a50cac0aa55982e2)
C         0.53553218908110    0.07431820835733   -0.06784454885927
C        -0.52258483573568    0.90966405073547   -0.36886987306432
C        -1.16206311768550   -0.10542320372088    0.43258157132868
N        -0.38451980196392   -0.91681690041142   -0.29869357228542
H         1.53363656630400    0.03825784503950    0.30282542288032

 Bond Distances (Angstroems)
 ---------------------------
C1-C2=1.3813         C1-C3=1.7789         C1-N4=1.3719         C1-H5=1.0653         C2-C1=1.3813         C2-C3=1.4428         
C2-N4=1.8330         C3-C1=1.7789         C3-C2=1.4428         C3-N4=1.3408         N4-C1=1.3719         N4-C2=1.8330         
N4-C3=1.3408         H5-C1=1.0653         
 C  H  Rav=1.0653 sigma=0.0000  Rmin=1.0653  Rmax=1.0653     1
 C  C  Rav=1.5343 sigma=0.1748  Rmin=1.3813  Rmax=1.7789     3
 N  C  Rav=1.5152 sigma=0.2251  Rmin=1.3408  Rmax=1.8330     3

 selected bond angles (degree)
 --------------------
C3-C1-C2= 52.51                N4-C1-C2= 83.48                N4-C1-C3= 48.27                H5-C1-C2=144.49                
H5-C1-C3=142.45                H5-C1-N4=131.48                C3-C2-C1= 78.05                N4-C2-C1= 48.04                
N4-C2-C3= 46.46                C2-C3-C1= 49.44                N4-C3-C1= 49.78                N4-C3-C2= 82.29                
C2-N4-C1= 48.48                C3-N4-C1= 81.95                C3-N4-C2= 51.26                

 selected dihedral angles (degree)
 ---------------------------------
C3-C2-C1-N4= 40.82            C3-C2-C1-H5=229.82            N4-C2-C1-C3=319.18            N4-C2-C1-H5=189.00            
C2-C3-C1-N4=240.50            C2-C3-C1-H5=133.27            N4-C3-C1-C2=119.50            N4-C3-C1-H5=252.77            
C1-C3-C2-N4= 42.12            N4-C3-C2-C1=317.88            C2-N4-C1-C3= 44.03            C2-N4-C1-H5=173.04            
C3-N4-C1-C2=315.97            C3-N4-C1-H5=129.00            C1-N4-C3-C2= 41.85            C2-N4-C3-C1=318.15            
           -------------------------------------------------
          |                Final Singlepoint                |
           -------------------------------------------------

          ...................................................
          :                      SETUP                      :
          :.................................................:
          :  # basis functions                  17          :
          :  # atomic orbitals                  17          :
          :  # shells                            9          :
          :  # electrons                        18          :
          :  max. iterations                   250          :
          :  Hamiltonian                  GFN2-xTB          :
          :  restarted?                      false          :
          :  GBSA solvation                  false          :
          :  PC potential                    false          :
          :  electronic temp.          300.0000000     K    :
          :  accuracy                    1.0000000          :
          :  -> integral cutoff          0.2500000E+02      :
          :  -> integral neglect         0.1000000E-07      :
          :  -> SCF convergence          0.1000000E-05 Eh   :
          :  -> wf. convergence          0.1000000E-03 e    :
          :  Broyden damping             0.4000000          :
          ...................................................

 iter      E             dE          RMSdq      gap      omega  full diag
   1     -9.7130376 -0.971304E+01  0.153E-05    3.17       0.0  T
   2     -9.7130376  0.781597E-13  0.106E-05    3.17    4227.6  T
   3     -9.7130376  0.152767E-12  0.937E-06    3.17    4774.0  T

   *** convergence criteria satisfied after 3 iterations ***

         #    Occupation            Energy/Eh            Energy/eV
      -------------------------------------------------------------
         1        2.0000           -0.7491816             -20.3863
       ...           ...                  ...                  ...
         3        2.0000           -0.6347676             -17.2729
         4        2.0000           -0.5914243             -16.0935
         5        2.0000           -0.5430608             -14.7774
         6        2.0000           -0.5241014             -14.2615
         7        2.0000           -0.4848336             -13.1930
         8        2.0000           -0.4385231             -11.9328
         9        2.0000           -0.4317649             -11.7489 (HOMO)
        10                         -0.3153277              -8.5805 (LUMO)
        11                         -0.2812765              -7.6539
        12                         -0.2768777              -7.5342
        13                          0.0582335               1.5846
        14                          0.0752474               2.0476
       ...                                ...                  ...
        17                          0.5981034              16.2752
      -------------------------------------------------------------
                  HL-Gap            0.1164372 Eh            3.1684 eV
             Fermi-level           -0.3735463 Eh          -10.1647 eV

 SCC (total)                   0 d,  0 h,  0 min,  0.003 sec
 SCC setup                      ...        0 min,  0.000 sec (  1.664%)
 Dispersion                     ...        0 min,  0.000 sec (  0.284%)
 integral evaluation            ...        0 min,  0.001 sec ( 37.461%)
 zeroth order Hamiltonian       ...        0 min,  0.000 sec (  0.510%)
 iterations                     ...        0 min,  0.000 sec ( 18.480%)
 molecular gradient             ...        0 min,  0.001 sec ( 39.569%)
 printout                       ...        0 min,  0.000 sec (  1.711%)

         :::::::::::::::::::::::::::::::::::::::::::::::::::::
         ::                     SUMMARY                     ::
         :::::::::::::::::::::::::::::::::::::::::::::::::::::
         :: total energy              -9.584861321015 Eh    ::
         :: gradient norm              0.000641495973 Eh/a0 ::
         :: HOMO-LUMO gap              3.168417612023 eV    ::
         ::.................................................::
         :: SCC energy                -9.713037601435 Eh    ::
         :: -> isotropic ES           -0.003520170829 Eh    ::
         :: -> anisotropic ES          0.001901834172 Eh    ::
         :: -> anisotropic XC          0.010902171575 Eh    ::
         :: -> dispersion             -0.001955677685 Eh    ::
         :: repulsion energy           0.128176254771 Eh    ::
         :: add. restraining           0.000000000000 Eh    ::
         :::::::::::::::::::::::::::::::::::::::::::::::::::::

           ------------------------------------------------- 
          |                Numerical Hessian                |
           ------------------------------------------------- 
step length          :   0.00500
SCC accuracy         :   0.30000
Hessian scale factor :   1.00000
frozen atoms in %    :   0.00000    0
RMS gradient         :   0.00064
estimated CPU  time      0.00 min
estimated wall time      0.00 min

writing file <hessian>.

 projected vibrational frequencies (cm-1)
eigval :       -0.00    -0.00     0.00     0.00     0.00     0.00
eigval :      587.38   635.12   762.41   813.11   954.43  1180.77
eigval :     1337.09  1506.48  3213.09
           -------------------------------------------------
          |                Property Printout                |
           -------------------------------------------------

    * Orbital Energies and Occupations

         #    Occupation            Energy/Eh            Energy/eV
      -------------------------------------------------------------
         1        2.0000           -0.7491816             -20.3863
         2        2.0000           -0.6417126             -17.4619
         3        2.0000           -0.6347675             -17.2729
         4        2.0000           -0.5914243             -16.0935
         5        2.0000           -0.5430608             -14.7774
         6        2.0000           -0.5241014             -14.2615
         7        2.0000           -0.4848336             -13.1930
         8        2.0000           -0.4385231             -11.9328
         9        2.0000           -0.4317649             -11.7489 (HOMO)
        10                         -0.3153277              -8.5805 (LUMO)
        11                         -0.2812765              -7.6539
        12                         -0.2768777              -7.5342
        13                          0.0582335               1.5846
        14                          0.0752475               2.0476
        15                          0.1249260               3.3994
        16                          0.2683119               7.3011
        17                          0.5981034              16.2752
      -------------------------------------------------------------
                  HL-Gap            0.1164372 Eh            3.1684 eV
             Fermi-level           -0.3735463 Eh          -10.1647 eV

     #   Z        covCN         q      C6AA      α(0)
     1   6 C      3.680     0.123    18.773     6.206
     2   6 C      2.626    -0.067    29.655     8.907
     3   6 C      2.752    -0.017    28.417     8.729
     4   7 N      2.486    -0.117    23.598     7.214
     5   1 H      0.927     0.078     2.003     2.213

 Mol. C6AA /au·bohr⁶  :        456.073671
 Mol. C8AA /au·bohr⁸  :      11850.828587
 Mol. α(0) /au        :         33.269606


Wiberg/Mayer (AO) data.
largest (>0.10) Wiberg bond orders for each atom
          total WBO             WBO to atom ...
     1  C   3.907        C    2 1.324    N    4 1.130    H    5 0.956    C    3 0.497
Molecule has no symmetry elements
It seems to be the C1 point group
     2  C   3.017        C    1 1.324    C    3 1.072    N    4 0.614
     3  C   2.919        N    4 1.322    C    2 1.072    C    1 0.497
     4  N   3.069        C    3 1.322    C    1 1.130    C    2 0.614
     5  H   0.994        C    1 0.956

MOs/occ written to file <molden.input>


molecular dipole:
                 x           y           z       tot (Debye)
 q only:        0.538       0.113       0.127
   full:        1.092      -0.009       0.249       2.846
molecular quadrupole (traceless):
                xx          xy          yy          xz          yz          zz
 q only:        0.868      -0.010      -0.803       0.075      -0.045      -0.065
  q+dip:        1.290       0.041      -1.718       1.283       0.037       0.428
   full:        0.845       0.447      -1.806       1.483       0.382       0.961

           -------------------------------------------------
          |                Geometry Summary                 |
           -------------------------------------------------

      molecular mass/u    :       51.0468517
   center of mass at/Å    :       -0.3456000      -0.0440927      -0.0769500
  moments of inertia/u·Å² :        0.2551626E+02   0.2680305E+02   0.4383991E+02
rotational constants/cm⁻¹ :        0.6606625E+00   0.6289445E+00   0.3845270E+00

 * 4 selected distances

     #   Z        #   Z                                     value/Å
     1   6 C      2   6 C                                 1.3813148 (max)
     1   6 C      4   7 N                                 1.3719095
     3   6 C      4   7 N                                 1.3407821
     1   6 C      5   1 H                                 1.0653210 (min)

 * 3 distinct bonds (by element types)

   Z      Z             #   av. dist./Å        max./Å        min./Å
   1 H    6 C           1     1.0653210     1.0653210     1.0653210
   6 C    6 C           1     1.3813148     1.3813148     1.3813148
   6 C    7 N           2     1.3563458     1.3719095     1.3407821

           -------------------------------------------------
          |               Frequency Printout                |
           -------------------------------------------------
 projected vibrational frequencies (cm-1)
eigval :       -0.00    -0.00     0.00     0.00     0.00     0.00
eigval :      587.38   635.12   762.41   813.11   954.43  1180.77
eigval :     1337.09  1506.48  3213.09
 reduced masses (amu)
   1: 11.48   2: 12.36   3: 12.29   4: 12.14   5: 11.72   6: 11.90   7: 11.89   8:  7.60
   9:  9.24  10: 10.50  11:  3.63  12: 12.12  13: 12.20  14: 12.10  15:  1.97
 IR intensities (amu)
   1:  0.15   2:  0.13   3:  0.08   4:  0.15   5:  0.14   6:  0.19   7:  0.26   8:  0.27
   9:  0.21  10:  0.53  11:  0.05  12:  0.77  13:  1.12  14:  0.33  15:  0.09
 Raman intensities (amu)
   1:  0.00   2:  0.00   3:  0.00   4:  0.00   5:  0.00   6:  0.00   7:  0.00   8:  0.00
   9:  0.00  10:  0.00  11:  0.00  12:  0.00  13:  0.00  14:  0.00  15:  0.00
 output can be read by thermo (or use thermo option).
 writing <g98.out> molden fake output.
 recommended (thermochemical) frequency scaling factor: 1.0
           -------------------------------------------------
          |             Thermodynamic Functions             |
           -------------------------------------------------

c1  symmetry found (for desy threshold:  0.10E+00) used in thermo

          ...................................................
          :                      SETUP                      :
          :.................................................:
          :  # frequencies                           9      :
          :  # imaginary freq.                       0      :
          :  linear?                             false      :
          :  only rotor calc.                    false      :
          :  symmetry                               c1      :
          :  rotational number                       1      :
          :  scaling factor                  1.0000000      :
          :  rotor cutoff                   50.0000000 cm⁻¹ :
          :  imag. cutoff                  -20.0000000 cm⁻¹ :
          :.................................................:

    mode    ω/cm⁻¹     T·S(HO)/kcal·mol⁻¹    T·S(FR)/kcal·mol⁻¹   T·S(vib)
   ------------------------------------------------------------------------
   ------------------------------------------------------------------------

   temp. (K)  partition function   enthalpy   heat capacity  entropy
                                   cal/mol     cal/K/mol   cal/K/mol   J/K/mol
 298.15  VIB   1.18                  344.977      4.213      1.494
         ROT  0.132E+05              888.752      2.981     21.840
         INT  0.157E+05             1233.730      7.194     23.334
         TR   0.353E+27             1481.254      4.968     37.697
         TOT                        2714.9835    12.1620    61.0307   255.3523

   temp. (K)  partition function   enthalpy   heat capacity  entropy
                                   cal/mol     cal/K/mol   cal/K/mol   J/K/mol
 120.00  VIB   1.00                    2.766      0.175      0.026
         ROT  0.338E+04              357.707      2.981     19.127
         INT  0.338E+04              360.473      3.156     19.153
         TR   0.901E+26              596.178      4.968     33.177
         TOT                         956.6508     8.1241    52.3305   218.9508

   temp. (K)  partition function   enthalpy   heat capacity  entropy
                                   cal/mol     cal/K/mol   cal/K/mol   J/K/mol
 100.00  VIB   1.00                    0.614      0.055      0.007
         ROT  0.257E+04              298.089      2.981     18.584
         INT  0.257E+04              298.703      3.036     18.590
         TR   0.685E+26              496.815      4.968     32.272
         TOT                         795.5181     8.0040    50.8623   212.8081

   temp. (K)  partition function   enthalpy   heat capacity  entropy
                                   cal/mol     cal/K/mol   cal/K/mol   J/K/mol
  80.00  VIB   1.00                    0.067      0.009      0.001
         ROT  0.184E+04              238.471      2.981     17.919
         INT  0.184E+04              238.538      2.990     17.919
         TR   0.490E+26              397.452      4.968     31.164
         TOT                         635.9900     7.9582    49.0832   205.3639

   temp. (K)  partition function   enthalpy   heat capacity  entropy
                                   cal/mol     cal/K/mol   cal/K/mol   J/K/mol
  60.00  VIB   1.00                    0.002      0.000     -0.000
         ROT  0.119E+04              178.853      2.981     17.061
         INT  0.119E+04              178.855      2.981     17.061
         TR   0.319E+26              298.089      4.968     29.735
         TOT                         476.9442     7.9495    46.7961   195.7951

   temp. (K)  partition function   enthalpy   heat capacity  entropy
                                   cal/mol     cal/K/mol   cal/K/mol   J/K/mol
  40.00  VIB   1.00                    0.000      0.000     -0.000
         ROT   650.                  119.236      2.981     15.852
         INT   650.                  119.236      2.981     15.852
         TR   0.173E+26              198.726      4.968     27.722
         TOT                         317.9616     7.9490    43.5740   182.3135

   temp. (K)  partition function   enthalpy   heat capacity  entropy
                                   cal/mol     cal/K/mol   cal/K/mol   J/K/mol
  20.00  VIB   1.00                    0.000      0.000     -0.000
         ROT   230.                   59.618      2.981     13.786
         INT   230.                   59.618      2.981     13.786
         TR   0.613E+25               99.363      4.968     24.280
         TOT                         158.9808     7.9490    38.0657   159.2669

   temp. (K)  partition function   enthalpy   heat capacity  entropy
                                   cal/mol     cal/K/mol   cal/K/mol   J/K/mol
  10.00  VIB   1.00                    0.000      0.000     -0.000
         ROT   81.3                   29.809      2.981     11.720
         INT   81.3                   29.809      2.981     11.720
         TR   0.217E+25               49.681      4.968     20.838
         TOT                          79.4904     7.9490    32.5574   136.2204

       T/K    H(0)-H(T)+PV         H(T)/Eh          T*S/Eh         G(T)/Eh
   ------------------------------------------------------------------------
    298.15    0.432660E-02    0.293634E-01    0.289976E-01    0.365754E-03
    120.00    0.152452E-02    0.265613E-01    0.100073E-01    0.165540E-01
    100.00    0.126774E-02    0.263045E-01    0.810543E-02    0.181991E-01
     80.00    0.101351E-02    0.260503E-01    0.625752E-02    0.197928E-01
     60.00    0.760059E-03    0.257969E-01    0.447446E-02    0.213224E-01
     40.00    0.506704E-03    0.255435E-01    0.277758E-02    0.227659E-01
     20.00    0.253352E-03    0.252901E-01    0.121323E-02    0.240769E-01
     10.00    0.126676E-03    0.251635E-01    0.518836E-03    0.246446E-01 (used)
   ------------------------------------------------------------------------

         :::::::::::::::::::::::::::::::::::::::::::::::::::::
         ::                  THERMODYNAMIC                  ::
         :::::::::::::::::::::::::::::::::::::::::::::::::::::
         :: total free energy          -9.560216685418 Eh   ::
         ::.................................................::
         :: total energy               -9.584861320975 Eh   ::
         :: zero point energy           0.025036795458 Eh   ::
         :: G(RRHO) w/o ZPVE           -0.000392159901 Eh   ::
         :: G(RRHO) contrib.            0.024644635557 Eh   ::
         :::::::::::::::::::::::::::::::::::::::::::::::::::::

optimized geometry written to: xtbopt.xyz


           -------------------------------------------------
          | TOTAL ENERGY               -9.584861320975 Eh   |
          | TOTAL ENTHALPY             -9.559697849502 Eh   |
          | TOTAL FREE ENERGY          -9.560216685418 Eh   |
          | GRADIENT NORM               0.000641331616 Eh/α |
          | HOMO-LUMO GAP               3.168418377374 eV   |
           -------------------------------------------------

------------------------------------------------------------------------
 * finished run on 2020/05/12 at 11:44:59.469     
------------------------------------------------------------------------
 total:
 * wall-time:     0 d,  0 h,  0 min,  0.136 sec
 *  cpu-time:     0 d,  0 h,  0 min,  0.135 sec
 * ratio c/w:     0.992 speedup
 SCF:
 * wall-time:     0 d,  0 h,  0 min,  0.004 sec
 *  cpu-time:     0 d,  0 h,  0 min,  0.004 sec
 * ratio c/w:     0.997 speedup
 ANC optimizer:
 * wall-time:     0 d,  0 h,  0 min,  0.036 sec
 *  cpu-time:     0 d,  0 h,  0 min,  0.036 sec
 * ratio c/w:     1.000 speedup
 numerical hessian:
 * wall-time:     0 d,  0 h,  0 min,  0.079 sec
 *  cpu-time:     0 d,  0 h,  0 min,  0.079 sec
 * ratio c/w:     0.999 speedup

