5
 energy: -9.460312981386 gnorm: 0.209893150369 xtb: 6.2.2 (9d81278992624c895f80dd42a50cac0aa55982e2)
C         0.60474900000000    0.01949900000000   -0.41256200000000
C        -0.43366000000000    1.07083800000000   -0.10811000000000
C        -1.31872000000000   -0.09746500000000    0.24978700000000
N        -0.28503500000000   -1.07615000000000   -0.05564800000000
H         1.43266700000000    0.08327800000000    0.32653200000000
5
 energy: -9.540269136522 gnorm: 0.185803606411 xtb: 6.2.2 (9d81278992624c895f80dd42a50cac0aa55982e2)
C         0.59799787581478    0.04172511635790   -0.28831854618661
C        -0.49355020484959    1.04228267367070   -0.27696153864415
C        -1.20388050947573   -0.10135037624065    0.41169433170247
N        -0.36242502148017   -1.05558460777189   -0.22155862325468
H         1.46185885999071    0.07292719398395    0.37514337638297
5
 energy: -9.573806348221 gnorm: 0.136879258108 xtb: 6.2.2 (9d81278992624c895f80dd42a50cac0aa55982e2)
C         0.53272164615139    0.07384031036992   -0.11431467210571
C        -0.52118851217825    0.94560426062965   -0.32720014755101
C        -1.11132172416674   -0.12746761358201    0.38311145970154
N        -0.43392483886328   -0.94924188413615   -0.25191146665808
H         1.53371442905687    0.05726492671858    0.31031382661325
5
 energy: -9.578973223832 gnorm: 0.076870578711 xtb: 6.2.2 (9d81278992624c895f80dd42a50cac0aa55982e2)
C         0.55148336450500    0.07680401402517   -0.13244412724265
C        -0.51531395188302    0.91956357898140   -0.40702046383941
C        -1.08965130353347   -0.11184195960805    0.50715139599049
N        -0.41553139213120   -0.93539065772484   -0.34051161179754
H         1.46901428304270    0.05086502432633    0.37282380688911
5
 energy: -9.583653071824 gnorm: 0.020195806840 xtb: 6.2.2 (9d81278992624c895f80dd42a50cac0aa55982e2)
C         0.54424948220915    0.07819778205472   -0.13115876177845
C        -0.52158406811658    0.92646434101334   -0.36907159423662
C        -1.12632122343019   -0.11135750252000    0.45124902834641
N        -0.40053395391721   -0.93473546165710   -0.29582074952097
H         1.50419076325483    0.04143084110905    0.34480107718963
5
 energy: -9.584273081876 gnorm: 0.014808318753 xtb: 6.2.2 (9d81278992624c895f80dd42a50cac0aa55982e2)
C         0.54173021076488    0.07882014071632   -0.11173608547979
C        -0.52752283704176    0.91629966064457   -0.37070764797859
C        -1.13329653136250   -0.10928811353618    0.44568481823628
N        -0.39808537900822   -0.92306633174606   -0.29684561713015
H         1.51717553664760    0.03723464392135    0.33360353235225
5
 energy: -9.584669519471 gnorm: 0.011438264089 xtb: 6.2.2 (9d81278992624c895f80dd42a50cac0aa55982e2)
C         0.53932033400919    0.07603842157042   -0.09095419936359
C        -0.52924612367248    0.90738840196701   -0.37054224710042
C        -1.14546817589712   -0.10433890480790    0.44062226479738
N        -0.39099254144534   -0.91556269385797   -0.29937158286479
H         1.52638750700574    0.03647477512844    0.32024476453144
5
 energy: -9.584810789019 gnorm: 0.005521189870 xtb: 6.2.2 (9d81278992624c895f80dd42a50cac0aa55982e2)
C         0.53758435697234    0.07375910734894   -0.07598253331652
C        -0.52928358824254    0.90638048582361   -0.37025500521055
C        -1.15563135833567   -0.10177951139004    0.43681588263318
N        -0.38574356550113   -0.91503788231620   -0.30084554190949
H         1.53307515510699    0.03667780053369    0.31026619780338
5
 energy: -9.584841060771 gnorm: 0.003567600464 xtb: 6.2.2 (9d81278992624c895f80dd42a50cac0aa55982e2)
C         0.53596515171291    0.07189478679914   -0.07185790010091
C        -0.52430074679865    0.90718846548061   -0.36854543012169
C        -1.15848400494488   -0.10163355390655    0.43499768563642
N        -0.38300321760187   -0.91662635414745   -0.30073232877601
H         1.52982381763249    0.03917665577426    0.30613697336218
5
 energy: -9.584855048349 gnorm: 0.002271560885 xtb: 6.2.2 (9d81278992624c895f80dd42a50cac0aa55982e2)
C         0.53569621044750    0.07245594370977   -0.06877511262413
C        -0.52436097588543    0.90907254421234   -0.36882666631391
C        -1.16096005176992   -0.10288555112741    0.43374361122702
N        -0.38358234340096   -0.91756529804057   -0.30027432034035
H         1.53320816060881    0.03892236124588    0.30413148805137
5
 energy: -9.584859854799 gnorm: 0.001148809803 xtb: 6.2.2 (9d81278992624c895f80dd42a50cac0aa55982e2)
C         0.53568912292778    0.07322310854260   -0.06886994230190
C        -0.52378688192236    0.90952560337788   -0.36893519061935
C        -1.16111553732116   -0.10402497463671    0.43346660010914
N        -0.38406707427649   -0.91727609120489   -0.29963956667092
H         1.53328137059223    0.03855235392113    0.30397709948302
5
 energy: -9.584861320287 gnorm: 0.000641355653 xtb: 6.2.2 (9d81278992624c895f80dd42a50cac0aa55982e2)
C         0.53553218908110    0.07431820835733   -0.06784454885927
C        -0.52258483573568    0.90966405073547   -0.36886987306432
C        -1.16206311768550   -0.10542320372088    0.43258157132868
N        -0.38451980196392   -0.91681690041142   -0.29869357228542
H         1.53363656630400    0.03825784503950    0.30282542288032
