5
 energy: -9.584861321015 gnorm: 0.000641495973 xtb: 6.2.2 (9d81278992624c895f80dd42a50cac0aa55982e2)
C         0.53553234137650    0.07431528590638   -0.06784654792848
C        -0.52258136034317    0.90966614317677   -0.36886963655958
C        -1.16206215965796   -0.10541636418166    0.43258581168910
N        -0.38452564503277   -0.91681540836965   -0.29869062990847
H         1.53363782365391    0.03825034346117    0.30282000270395
