$hessian                                                                        
        0.3194221650   0.0609785935  -0.0555650032  -0.0033491970  -0.0591949218
        0.0328035971  -0.1397618669  -0.1287241292  -0.0409757407  -0.1763111012
        0.1269404575   0.0637371469
        0.0609785935   0.3084805820  -0.0382163320   0.0299239734  -0.2481848578
        0.0790109481  -0.1575595292   0.0231630990  -0.0188484619   0.0666569622
       -0.0834588232  -0.0219461542
       -0.0555650032  -0.0382163320   0.0593225248   0.0080050154   0.0451590656
       -0.0536069836   0.0113318913   0.0132758688   0.0461600707   0.0362280966
       -0.0202186023  -0.0518756118
       -0.0033491970   0.0299239734   0.0080050154   0.2103751971  -0.1534191433
        0.0576318334  -0.1882223700   0.0547543908  -0.0526728342  -0.0188036302
        0.0687407791  -0.0129640146
       -0.0591949218  -0.2481848578   0.0451590656  -0.1534191433   0.3990756081
       -0.0943603231   0.1451582348  -0.0528373872   0.0289187395   0.0674558303
       -0.0980533631   0.0202825181
        0.0328035971   0.0790109481  -0.0536069836   0.0576318334  -0.0943603231
        0.0777984212  -0.0896194990   0.0159859044  -0.0640737786  -0.0008159315
       -0.0006365294   0.0398823410
       -0.1397618669  -0.1575595292   0.0113318913  -0.1882223700   0.1451582348
       -0.0896194990   0.3500447213   0.0284646890   0.0888319928  -0.0220604845
       -0.0160633946  -0.0105443851
       -0.1287241292   0.0231630990   0.0132758688   0.0547543908  -0.0528373872
        0.0159859044   0.0284646890   0.2604092332   0.0425523491   0.0455050495
       -0.2307349450  -0.0718141223
       -0.0409757407  -0.0188484619   0.0461600707  -0.0526728342   0.0289187395
       -0.0640737786   0.0888319928   0.0425523491   0.0768022598   0.0048165821
       -0.0526226268  -0.0588885519
       -0.1763111012   0.0666569622   0.0362280966  -0.0188036302   0.0674558303
       -0.0008159315  -0.0220604845   0.0455050495   0.0048165821   0.2171752158
       -0.1796178420  -0.0402287472
        0.1269404575  -0.0834588232  -0.0202186023   0.0687407791  -0.0980533631
       -0.0006365294  -0.0160633946  -0.2307349450  -0.0526226268  -0.1796178420
        0.4122471314   0.0734777585
        0.0637371469  -0.0219461542  -0.0518756118  -0.0129640146   0.0202825181
        0.0398823410  -0.0105443851  -0.0718141223  -0.0588885519  -0.0402287472
        0.0734777585   0.0708818227
