[Molden Format]
[Title]
[Atoms] AU
C      1     6 -0.13809265701967E+01 -0.81340679191482E+00  0.21576163109645E+00
C      2     6 -0.98262757627011E+00  0.17345277950105E+01 -0.39682560923288E+00
C      3     6  0.13639483576213E+01  0.77983930311684E+00  0.38294077074401E+00
O      4     8  0.99960578884547E+00 -0.17009603062125E+01 -0.20187679260759E+00
[GTO]
           1 0
 s           4   1.0000000000000000     
   51.049363095579913      -0.16312063210127389     
   8.7911227406887544      -0.19911024581000730     
  0.70640422258929825       0.31882047753655751     
  0.26922813413411617       0.12706504184240380     
 p           4   1.0000000000000000     
   5.8263656140800002       0.73716451545209605     
   1.5106896018720002       0.68216371614850257     
  0.53256483288000001       0.35783053929253711     
  0.21202323690600003        5.3983030275847881E-002

           2 0
 s           4   1.0000000000000000     
   51.049363095579913      -0.16312063210127389     
   8.7911227406887544      -0.19911024581000730     
  0.70640422258929825       0.31882047753655751     
  0.26922813413411617       0.12706504184240380     
 p           4   1.0000000000000000     
   5.8263656140800002       0.73716451545209605     
   1.5106896018720002       0.68216371614850257     
  0.53256483288000001       0.35783053929253711     
  0.21202323690600003        5.3983030275847881E-002

           3 0
 s           4   1.0000000000000000     
   51.049363095579913      -0.16312063210127389     
   8.7911227406887544      -0.19911024581000730     
  0.70640422258929825       0.31882047753655751     
  0.26922813413411617       0.12706504184240380     
 p           4   1.0000000000000000     
   5.8263656140800002       0.73716451545209605     
   1.5106896018720002       0.68216371614850257     
  0.53256483288000001       0.35783053929253711     
  0.21202323690600003        5.3983030275847881E-002

           4 0
 s           4   1.0000000000000000     
   69.137961906196551      -0.20478756370077797     
   11.906129132707308      -0.24997023136827334     
  0.95670827744340703       0.40025880240639616     
  0.36462520496073686       0.15952206667693555     
 p           4   1.0000000000000000     
   8.2124193257781641        1.1321556799186829     
   2.1293576997098116        1.0476840782254817     
  0.75066448202360914       0.54956508217158984     
  0.29885246543283073        8.2908486592766617E-002

[MO]
Sym=     1a
Ene=  -0.80370895349125770     
Spin= Alpha
Occup=     2.00000000
           1 -0.22962407895486633     
           2 -0.15890257423837301     
           3   6.2996325648579515E-003
           4   2.0848587756179211E-002
           5 -0.10268787352544882     
           6  -3.6514141718002234E-002
           7   6.4289742440233666E-002
           8  -1.3174120959429773E-002
           9 -0.22962291906388260     
          10   7.0805551459632299E-002
          11  0.13963147938552567     
          12   3.4838899755611212E-002
          13 -0.59692685076194985     
          14  0.10193953853847562     
          15 -0.17052898535322950     
          16  -4.8543703363326765E-002
Sym=     2a
Ene=  -0.71406096884180081     
Spin= Alpha
Occup=     2.00000000
           1 -0.21058070010029745     
           2   1.7363804894523899E-002
           3 -0.20848748802041206     
           4   7.9820804843458923E-003
           5 -0.35576268314300818     
           6  -5.7725056957791766E-002
           7  0.10458054138459499     
           8  -4.8892935774802693E-002
           9 -0.21058094674965369     
          10  0.17126913768830238     
          11 -0.11915219438095155     
          12   1.7355927924666021E-002
          13  0.56159614396260904     
          14  0.14769323655219280     
          15 -0.25351806298156437     
          16  -8.8893230613530903E-003
Sym=     3a
Ene=  -0.68021106080141547     
Spin= Alpha
Occup=     2.00000000
           1 -0.35750099348998443     
           2  -4.3388011838549012E-002
           3  0.17017622910077307     
           4   5.6400621091888641E-002
           5  -1.0759619785783301E-007
           6   8.6506992623336013E-002
           7   5.0212564344015546E-002
           8   5.2688184069670978E-003
           9  0.35750026351298048     
          10  0.13114424396985991     
          11 -0.11923877309509645     
          12  -5.1055541418073322E-002
          13   2.0012030817140086E-006
          14  0.55539746587354344     
          15  0.32237572333599557     
          16   3.3826832780860190E-002
Sym=     4a
Ene=  -0.63031753612396801     
Spin= Alpha
Occup=     2.00000000
           1   7.5117585487517874E-002
           2   8.3336869226740273E-002
           3  -8.8034996720511377E-002
           4  0.29695458114401657     
           5 -0.22563198930112904     
           6  -1.9162462722465017E-002
           7   2.0048068839832685E-002
           8  0.12357471529785312     
           9   7.5118218914931797E-002
          10   8.2616227525665713E-003
          11 -0.13161087176194949     
          12  0.29238021049612917     
          13 -0.21473898053727011     
          14 -0.10213534756028582     
          15  0.10653777542585016     
          16  0.66161394598601408     
Sym=     5a
Ene=  -0.59349639601878523     
Spin= Alpha
Occup=     2.00000000
           1   2.6912299012599193E-002
           2 -0.13316870914276460     
           3  0.17804525696242948     
           4  0.15699778029761322     
           5  0.41314919041402132     
           6  -4.8316047464362431E-002
           7   6.8277406281323325E-002
           8  0.14254160581096761     
           9   2.6907604705060331E-002
          10 -0.10294163556573283     
          11  0.19558610584367922     
          12  0.15883803529389623     
          13  0.32349341962589157     
          14  0.30493617745255186     
          15 -0.54793224453647882     
          16  0.21522626928934471     
Sym=     6a
Ene=  -0.57955450078728821     
Spin= Alpha
Occup=     2.00000000
           1 -0.32085118508013261     
           2  0.26623450723596764     
           3 -0.21782781703971094     
           4   2.5986961146147781E-002
           5   3.4497221898120248E-006
           6  0.40516840200105847     
           7  0.23517826276094581     
           8   2.4677759931392176E-002
           9  0.32085148055581858     
          10  -5.5319312430321066E-002
          11  0.34025595506395967     
          12  -1.3139898081467958E-002
          13   1.3471552363921920E-006
          14 -0.24195636320213201     
          15 -0.14044624709232767     
          16  -1.4736190032918886E-002
Sym=     7a
Ene=  -0.48589808490069342     
Spin= Alpha
Occup=     2.00000000
           1  0.45580535742644673     
           2 -0.36732982208956144     
           3 -0.18263659280702330     
           4   6.7404975017608643E-002
           5 -0.31592017933639788     
           6   9.3742600891122324E-002
           7 -0.18417830076379632     
           8  0.21612075539413711     
           9  0.45580694931823373     
          10  0.33269377722284360     
          11  0.22368752409631001     
          12  0.11003991241217334     
          13  -1.2144313656612464E-002
          14   6.6761095444916541E-002
          15  -8.7738174706549432E-002
          16 -0.25997228255730642     
Sym=     8a
Ene=  -0.46749296270291918     
Spin= Alpha
Occup=     2.00000000
           1 -0.17781110608632264     
           2  0.19591885699793807     
           3  0.24237421111292881     
           4  0.23247457477796102     
           5 -0.31122406525706908     
           6   5.4262440208183549E-002
           7 -0.14735962116730195     
           8  0.51344243207455498     
           9 -0.17781231922099003     
          10 -0.32736320924661905     
          11  -6.1361185885837971E-002
          12  0.20060315567914402     
          13   6.1369838872483512E-002
          14   1.1233280433980633E-002
          15   2.8965471586849392E-002
          16 -0.46049239562081651     
Sym=     9a
Ene=  -0.41783244290744392     
Spin= Alpha
Occup=     1.00000000
           1  -4.9298367296949704E-002
           2   3.3614433335127314E-002
           3  0.18368219628746688     
           4 -0.16043345364358313     
           5 -0.36312201824082896     
           6  0.37141630234911388     
           7 -0.61569627890542900     
           8 -0.23054719420990682     
           9  -4.9294685424570300E-002
          10 -0.16100762804479699     
          11   7.0713741962896981E-002
          12 -0.17227867736299959     
          13  -3.2156666037978753E-002
          14  0.15417273942558296     
          15 -0.29828219016262419     
          16  0.31131551252640632     
Sym=    10a
Ene=  -0.41449628269177452     
Spin= Alpha
Occup=     1.00000000
           1  0.26324370901479921     
           2 -0.23742751363966422     
           3 -0.22633756755522405     
           4  0.53558177087684278     
           5  -2.4888367066102709E-006
           6  0.26890314484354338     
           7  0.15607687054969988     
           8   1.6375237533871257E-002
           9 -0.26324472494480389     
          10 -0.26410755968428423     
          11  -6.4772806197945620E-002
          12 -0.56613162053228239     
          13  -2.1622421170917374E-007
          14  0.18151840561725027     
          15  0.10535876623199836     
          16   1.1056955257487969E-002
Sym=    11a
Ene=  -0.30776520485422915     
Spin= Alpha
Occup=     0.00000000
           1   9.6686437399841896E-002
           2 -0.35787167731359404     
           3 -0.34530415493713851     
           4 -0.51040793551808361     
           5  -7.7870937682551675E-008
           6  0.30922054635795970     
           7  0.17948509296998402     
           8   1.8833278448902702E-002
           9  -9.6686314078098093E-002
          10 -0.52140251405789784     
          11 -0.16506470256685335     
          12  0.45685603017597076     
          13  -6.4603964422015600E-008
          14  0.28325003938890492     
          15  0.16441076211577971     
          16   1.7252023367329235E-002
Sym=    12a
Ene=  -0.26734168850273698     
Spin= Alpha
Occup=     0.00000000
           1  -8.0640548528204084E-002
           2  -6.4328915023047509E-002
           3  -1.9478247484334996E-002
           4 -0.52333194339271227     
           5  -6.1821030051994512E-002
           6  -9.5206202432780704E-002
           7   8.3308758511165676E-002
           8  0.76922573404832695     
           9  -8.0640448248220517E-002
          10   9.6056888903299983E-002
          11   7.3617007590798797E-002
          12 -0.51356290769149338     
          13   3.1829489408849373E-002
          14  -4.6490607347103710E-002
          15   3.9032751503586191E-002
          16  0.39133841228631161     
Sym=    13a
Ene=    8.3539597844191280E-002
Spin= Alpha
Occup=     0.00000000
           1  0.37666881071192881     
           2  0.68072961746663185     
           3 -0.32949966316480311     
           4  -4.4184699093680481E-002
           5  -2.0431735662567178E-005
           6 -0.24415911215465169     
           7 -0.14171262481042071     
           8  -1.4883332688730287E-002
           9 -0.37669373297792363     
          10   4.5456271225317549E-002
          11  0.75110806781843953     
          12   8.8428454624246838E-002
          13   4.4469499289848422E-005
          14  0.67062878844631868     
          15  0.38931208289697272     
          16   4.0859389166908372E-002
Sym=    14a
Ene=   0.10475365170400627     
Spin= Alpha
Occup=     0.00000000
           1 -0.19690657229048691     
           2 -0.54147288906860991     
           3  0.46337216320824576     
           4   8.0128131128796048E-002
           5 -0.33392012604428339     
           6  -5.1959371968869669E-002
           7  0.11088979552778012     
           8 -0.20337151449339153     
           9 -0.19685560573273753     
          10 -0.14221671453047169     
          11  0.69502580755979304     
          12  0.10443342397707898     
          13  0.71545317839360356     
          14 -0.35424451156215175     
          15  0.58858982375407964     
          16  0.20594882427802244     
Sym=    15a
Ene=   0.12705671699079055     
Spin= Alpha
Occup=     0.00000000
           1 -0.56339916065044393     
           2 -0.20244285053906938     
           3 -0.61885125708583599     
           4  0.14118737185677618     
           5  -1.1414505548821647E-006
           6 -0.76566484583963723     
           7 -0.44442372301899236     
           8  -4.6633691815253057E-002
           9  0.56340203831434621     
          10 -0.62262642161504123     
          11  0.13994419239545058     
          12 -0.19144035812382992     
          13  -1.7072322693703776E-006
          14  -3.7673323212225260E-002
          15  -2.1869180972652530E-002
          16  -2.2950793316813185E-003
Sym=    16a
Ene=   0.41780888512454362     
Spin= Alpha
Occup=     0.00000000
           1 -0.55675590016934118     
           2 -0.24072344914473029     
           3 -0.49979495179391387     
           4  0.20226168165414740     
           5  0.84988137448141166     
           6  0.42583544946377999     
           7 -0.76151111956080153     
           8  0.26560204385214942     
           9 -0.55675097754753822     
          10  0.53280407437787636     
          11  -5.0803768106186663E-002
          12  0.24937280492347810     
          13  0.23204107676124633     
          14 -0.18264896083824875     
          15  0.31330378356004412     
          16   1.3024019911448647E-002
