4
 energy: -10.067157948957 gnorm: 0.159429287591 xtb: 6.2.2 (9d81278992624c895f80dd42a50cac0aa55982e2)
C        -0.84561200000000   -0.52996600000000   -0.05054400000000
C        -0.54174400000000    0.94001700000000   -0.06385100000000
C         0.87940800000000    0.47132400000000    0.05452800000000
O         0.50794800000000   -0.88137500000000    0.05986700000000
4
 energy: -10.088518748182 gnorm: 0.093128170274 xtb: 6.2.2 (9d81278992624c895f80dd42a50cac0aa55982e2)
C        -0.81005391663662   -0.48252374024793   -0.04902798498392
C        -0.52575600618502    0.91227651555967   -0.06197538685894
C         0.82069951450733    0.46404974556272    0.05030216636365
O         0.51511040831430   -0.89380252087446    0.06070120547921
4
 energy: -10.088871465233 gnorm: 0.146330966497 xtb: 6.2.2 (9d81278992624c895f80dd42a50cac0aa55982e2)
C        -0.72163338453357   -0.40146613844076   -0.04367459038610
C        -0.52009460011459    0.90252201905769   -0.06196372344749
C         0.70653426622757    0.42751634726517    0.04331593591037
O         0.53519371842060   -0.92857222788211    0.06232237792323
4
 energy: -10.097573518794 gnorm: 0.030179914207 xtb: 6.2.2 (9d81278992624c895f80dd42a50cac0aa55982e2)
C        -0.76164191160011   -0.44643227719982   -0.04125751162028
C        -0.52858370774869    0.91767680960230   -0.06701586099141
C         0.76493011842472    0.43966881931889    0.05172689325935
O         0.52529550092407   -0.91091335172138    0.05654647935234
4
 energy: -10.114109179104 gnorm: 0.060582744703 xtb: 6.2.2 (9d81278992624c895f80dd42a50cac0aa55982e2)
C        -0.77210581772949   -0.45291729000821    0.06500738642684
C        -0.52448122386089    0.92107969306189   -0.16680021204113
C         0.76603633904049    0.43989934123947    0.15869656295387
O         0.53055070254989   -0.90806174429315   -0.05690373733958
4
 energy: -10.060944767640 gnorm: 0.217255748487 xtb: 6.2.2 (9d81278992624c895f80dd42a50cac0aa55982e2)
C        -0.76583861177329   -0.44873092410633    0.27821065909298
C        -0.51480828379889    0.92524470636722   -0.36530545108307
C         0.73995596309511    0.42530866751676    0.36992958460174
O         0.54069093247707   -0.90182244977764   -0.28283479261165
4
 energy: -10.115687039091 gnorm: 0.062650525221 xtb: 6.2.2 (9d81278992624c895f80dd42a50cac0aa55982e2)
C        -0.74273025563017   -0.43748632732800    0.15188976365895
C        -0.51871462236028    0.91944484645916   -0.24590290610806
C         0.73033201279017    0.41755378794429    0.24161492076426
O         0.53111286520029   -0.89951230707545   -0.14760177831515
4
 energy: -10.119231010526 gnorm: 0.005806021334 xtb: 6.2.2 (9d81278992624c895f80dd42a50cac0aa55982e2)
C        -0.72842193513304   -0.42994481979855    0.11272917031122
C        -0.52032431368717    0.91829552296954   -0.20852373262988
C         0.72032276312930    0.41098010287567    0.20097312309027
O         0.52842348569091   -0.89933080604665   -0.10517856077161
4
 energy: -10.119252081244 gnorm: 0.000935417285 xtb: 6.2.2 (9d81278992624c895f80dd42a50cac0aa55982e2)
C        -0.73026751276734   -0.43049282646456    0.11443650103867
C        -0.52008076382682    0.91805322634480   -0.21021407034057
C         0.72155000280858    0.41221586535828    0.20286761763922
O         0.52879827378559   -0.89977626523852   -0.10709004833733
4
 energy: -10.119252782440 gnorm: 0.000195010506 xtb: 6.2.2 (9d81278992624c895f80dd42a50cac0aa55982e2)
C        -0.73075308345374   -0.43044040289875    0.11417284668793
C        -0.51998824136362    0.91787030981952   -0.20999130170876
C         0.72176758654187    0.41267665115455    0.20264678750694
O         0.52897373827549   -0.90010655807531   -0.10682833248611
