 Entering Gaussian System
 *********************************************
 Gaussian 98:
 frequency output generated by the xtb code
 *********************************************
                         Standard orientation:
 --------------------------------------------------------------------
  Center     Atomic     Atomic              Coordinates (Angstroms)
  Number     Number      Type              X           Y           Z
 --------------------------------------------------------------------
    1          6             0       -0.730755   -0.430436    0.114176
    2          6             0       -0.519984    0.917873   -0.209991
    3          6             0        0.721770    0.412673    0.202644
    4          8             0        0.528969   -0.900110   -0.106829
 --------------------------------------------------------------------
     1 basis functions        1 primitive gaussians
     1 alpha electrons        1 beta electrons

 Harmonic frequencies (cm**-1), IR intensities (KM/Mole),
 Raman scattering activities (A**4/amu), Raman depolarization ratios,
 reduced masses (AMU), force constants (mDyne/A) and normal coordinates:
                      1                      2                      3
                        a                      a                      a 
 Frequencies --   585.5153               693.2103               811.7991
 Red. masses --    12.7564                13.3395                12.1462
 Frc consts  --     0.0000                 0.0000                 0.0000
 IR Inten    --     0.4556                 0.8937                 1.7100
 Raman Activ --     0.0000                 0.0000                 0.0000
 Depolar     --     0.0000                 0.0000                 0.0000
 Atom AN      X      Y      Z        X      Y      Z        X      Y      Z
   1   6    -0.17  -0.09  -0.50    -0.48   0.30   0.06     0.24   0.45  -0.15
   2   6    -0.04   0.03   0.48    -0.12  -0.07  -0.01    -0.55  -0.32  -0.03
   3   6     0.21   0.13  -0.48     0.03  -0.56  -0.09     0.49  -0.02   0.19
   4   8     0.00  -0.05   0.43     0.50   0.29   0.03    -0.16  -0.09  -0.01
                      4                      5                      6
                        a                      a                      a 
 Frequencies --   836.2773              1220.5604              1421.6488
 Red. masses --    13.0208                13.6724                12.2324
 Frc consts  --     0.0000                 0.0000                 0.0000
 IR Inten    --     0.2201                 1.6972                 0.3856
 Raman Activ --     0.0000                 0.0000                 0.0000
 Depolar     --     0.0000                 0.0000                 0.0000
 Atom AN      X      Y      Z        X      Y      Z        X      Y      Z
   1   6     0.39   0.23  -0.06     0.39  -0.33  -0.05     0.32   0.39  -0.10
   2   6    -0.29   0.49   0.05    -0.12   0.21  -0.07     0.30  -0.53   0.20
   3   6    -0.39  -0.22  -0.11     0.10  -0.50  -0.07    -0.48  -0.08  -0.15
   4   8     0.24  -0.43   0.10    -0.32   0.53   0.17    -0.12   0.20   0.05
