4
 energy: -10.119252784309 gnorm: 0.000195438351 xtb: 6.2.2 (9d81278992624c895f80dd42a50cac0aa55982e2)
C        -0.73075493867787   -0.43043637741088    0.11417614875675
C        -0.51998416841106    0.91787266595748   -0.20999108859169
C         0.72177045466754    0.41267322566368    0.20264354780460
O         0.52896865242138   -0.90010951421028   -0.10682860796967
