 Entering Gaussian System, Link 0=g16
 Initial command:
 /applis/site/cecic/gaussian16/B.01/nehalem/g16/l1.exe "/bettik/tinaccil/g16/12567595_HCO_2/Gau-15835.inp" -scrdir="/bettik/tinaccil/g16/12567595_HCO_2/"
 Entering Link 1 = /applis/site/cecic/gaussian16/B.01/nehalem/g16/l1.exe PID=     15839.
  
 Copyright (c) 1988-2017, Gaussian, Inc.  All Rights Reserved.
  
 This is part of the Gaussian(R) 16 program.  It is based on
 the Gaussian(R) 09 system (copyright 2009, Gaussian, Inc.),
 the Gaussian(R) 03 system (copyright 2003, Gaussian, Inc.),
 the Gaussian(R) 98 system (copyright 1998, Gaussian, Inc.),
 the Gaussian(R) 94 system (copyright 1995, Gaussian, Inc.),
 the Gaussian 92(TM) system (copyright 1992, Gaussian, Inc.),
 the Gaussian 90(TM) system (copyright 1990, Gaussian, Inc.),
 the Gaussian 88(TM) system (copyright 1988, Gaussian, Inc.),
 the Gaussian 86(TM) system (copyright 1986, Carnegie Mellon
 University), and the Gaussian 82(TM) system (copyright 1983,
 Carnegie Mellon University). Gaussian is a federally registered
 trademark of Gaussian, Inc.
  
 This software contains proprietary and confidential information,
 including trade secrets, belonging to Gaussian, Inc.
  
 This software is provided under written license and may be
 used, copied, transmitted, or stored only in accord with that
 written license.
  
 The following legend is applicable only to US Government
 contracts under FAR:
  
                    RESTRICTED RIGHTS LEGEND
  
 Use, reproduction and disclosure by the US Government is
 subject to restrictions as set forth in subparagraphs (a)
 and (c) of the Commercial Computer Software - Restricted
 Rights clause in FAR 52.227-19.
  
 Gaussian, Inc.
 340 Quinnipiac St., Bldg. 40, Wallingford CT 06492
  
  
 ---------------------------------------------------------------
 Warning -- This program may not be used in any manner that
 competes with the business of Gaussian, Inc. or will provide
 assistance to any competitor of Gaussian, Inc.  The licensee
 of this program is prohibited from giving any competitor of
 Gaussian, Inc. access to this program.  By using this program,
 the user acknowledges that Gaussian, Inc. is engaged in the
 business of creating and licensing software in the field of
 computational chemistry and represents and warrants to the
 licensee that it is not a competitor of Gaussian, Inc. and that
 it will not use this program in any manner prohibited above.
 ---------------------------------------------------------------
  

 Cite this work as:
 Gaussian 16, Revision B.01,
 M. J. Frisch, G. W. Trucks, H. B. Schlegel, G. E. Scuseria, 
 M. A. Robb, J. R. Cheeseman, G. Scalmani, V. Barone, 
 G. A. Petersson, H. Nakatsuji, X. Li, M. Caricato, A. V. Marenich, 
 J. Bloino, B. G. Janesko, R. Gomperts, B. Mennucci, H. P. Hratchian, 
 J. V. Ortiz, A. F. Izmaylov, J. L. Sonnenberg, D. Williams-Young, 
 F. Ding, F. Lipparini, F. Egidi, J. Goings, B. Peng, A. Petrone, 
 T. Henderson, D. Ranasinghe, V. G. Zakrzewski, J. Gao, N. Rega, 
 G. Zheng, W. Liang, M. Hada, M. Ehara, K. Toyota, R. Fukuda, 
 J. Hasegawa, M. Ishida, T. Nakajima, Y. Honda, O. Kitao, H. Nakai, 
 T. Vreven, K. Throssell, J. A. Montgomery, Jr., J. E. Peralta, 
 F. Ogliaro, M. J. Bearpark, J. J. Heyd, E. N. Brothers, K. N. Kudin, 
 V. N. Staroverov, T. A. Keith, R. Kobayashi, J. Normand, 
 K. Raghavachari, A. P. Rendell, J. C. Burant, S. S. Iyengar, 
 J. Tomasi, M. Cossi, J. M. Millam, M. Klene, C. Adamo, R. Cammi, 
 J. W. Ochterski, R. L. Martin, K. Morokuma, O. Farkas, 
 J. B. Foresman, and D. J. Fox, Gaussian, Inc., Wallingford CT, 2016.
 
 ******************************************
 Gaussian 16:  ES64L-G16RevB.01 20-Dec-2017
                 2-Oct-2020 
 ******************************************
 %nosave
 %nproc=8
 Will use up to    8 processors via shared memory.
 %mem=2gb
 %chk=input
 --------------------------------------------------------
 #P M062X/cc-pvtz nosymm opt(noeigentest) optcyc=120 freq
 --------------------------------------------------------
 1/6=120,11=1,18=20,19=15,26=3,38=1/1,3;
 2/9=110,12=2,15=1,17=6,18=5,40=1/2;
 3/5=16,6=1,11=2,25=1,30=1,71=1,74=-55/1,2,3;
 4//1;
 5/5=2,38=5/2;
 6/7=2,8=2,9=2,10=2,28=1/1;
 7/30=1/1,2,3,16;
 1/6=120,11=1,18=20,19=15,26=3/3(2);
 2/9=110,15=1/2;
 99//99;
 2/9=110,15=1/2;
 3/5=16,6=1,11=2,25=1,30=1,71=1,74=-55/1,2,3;
 4/5=5,16=3,69=1/1;
 5/5=2,38=5/2;
 7/30=1/1,2,3,16;
 1/6=120,11=1,18=20,19=15,26=3/3(-5);
 2/9=110,15=1/2;
 6/7=2,8=2,9=2,10=2,19=2,28=1/1;
 99/9=1/99;
 Leave Link    1 at Fri Oct  2 21:28:10 2020, MaxMem=   268435456 cpu:               0.9 elap:               0.1
 (Enter /applis/site/cecic/gaussian16/B.01/nehalem/g16/l101.exe)
 -----
 Title
 -----
 Symbolic Z-matrix:
 Charge =  0 Multiplicity = 2
 C
 O                    1    B1
 H                    1    B2       2    A2
       Variables:
  B1                    1.21945                  
  B2                    1.08442                  
  A2                  120.01111                  
 
 ITRead=  0  0  0
 MicOpt= -1 -1 -1
 NAtoms=      3 NQM=        3 NQMF=       0 NMMI=      0 NMMIF=      0
                NMic=       0 NMicF=      0.
                    Isotopes and Nuclear Properties:
 (Nuclear quadrupole moments (NQMom) in fm**2, nuclear magnetic moments (NMagM)
  in nuclear magnetons)

  Atom         1           2           3
 IAtWgt=          12          16           1
 AtmWgt=  12.0000000  15.9949146   1.0078250
 NucSpn=           0           0           1
 AtZEff=  -0.0000000  -0.0000000  -0.0000000
 NQMom=    0.0000000   0.0000000   0.0000000
 NMagM=    0.0000000   0.0000000   2.7928460
 AtZNuc=   6.0000000   8.0000000   1.0000000
 Leave Link  101 at Fri Oct  2 21:28:10 2020, MaxMem=   268435456 cpu:               2.2 elap:               0.4
 (Enter /applis/site/cecic/gaussian16/B.01/nehalem/g16/l103.exe)

 GradGradGradGradGradGradGradGradGradGradGradGradGradGradGradGradGradGrad
 Berny optimization.
 Initialization pass.
                           ----------------------------
                           !    Initial Parameters    !
                           ! (Angstroms and Degrees)  !
 --------------------------                            --------------------------
 ! Name  Definition              Value          Derivative Info.                !
 --------------------------------------------------------------------------------
 ! R1    R(1,2)                  1.2195         estimate D2E/DX2                !
 ! R2    R(1,3)                  1.0844         estimate D2E/DX2                !
 ! A1    A(2,1,3)              120.0111         estimate D2E/DX2                !
 --------------------------------------------------------------------------------
 Trust Radius=3.00D-01 FncErr=1.00D-07 GrdErr=1.00D-06 EigMax=2.50D+02 EigMin=1.00D-04
 Number of steps in this run=    100 maximum allowed number of steps=    100.
 GradGradGradGradGradGradGradGradGradGradGradGradGradGradGradGradGradGrad

 Leave Link  103 at Fri Oct  2 21:28:10 2020, MaxMem=   268435456 cpu:               0.3 elap:               0.1
 (Enter /applis/site/cecic/gaussian16/B.01/nehalem/g16/l202.exe)
                          Input orientation:                          
 ---------------------------------------------------------------------
 Center     Atomic      Atomic             Coordinates (Angstroms)
 Number     Number       Type             X           Y           Z
 ---------------------------------------------------------------------
      1          6           0        0.000000    0.000000    0.000000
      2          8           0        0.000000    0.000000    1.219450
      3          1           0        0.939030    0.000000   -0.542392
 ---------------------------------------------------------------------
                    Distance matrix (angstroms):
                    1          2          3
     1  C    0.000000
     2  O    1.219450   0.000000
     3  H    1.084420   1.996463   0.000000
 Symmetry turned off by external request.
 Stoichiometry    CHO(2)
 Framework group  CS[SG(CHO)]
 Deg. of freedom     3
 Full point group                 CS      NOp   2
 Rotational constants (GHZ):         682.2351444          42.8059347          40.2787013
 Leave Link  202 at Fri Oct  2 21:28:11 2020, MaxMem=   268435456 cpu:               0.3 elap:               0.1
 (Enter /applis/site/cecic/gaussian16/B.01/nehalem/g16/l301.exe)
 Standard basis: CC-pVTZ (5D, 7F)
 Ernie: Thresh=  0.10000D-02 Tol=  0.10000D-05 Strict=F.
 Ernie:  6 primitive shells out of 60 were deleted.
    74 basis functions,   121 primitive gaussians,    85 cartesian basis functions
     8 alpha electrons        7 beta electrons
       nuclear repulsion energy        25.8778267692 Hartrees.
 IExCor= 4336 DFT=T Ex+Corr=M062X ExCW=0 ScaHFX=  0.540000
 ScaDFX=  1.000000  1.000000  1.000000  1.000000 ScalE2=  1.000000  1.000000
 IRadAn=      5 IRanWt=     -1 IRanGd=            0 ICorTp=0 IEmpDi=  4
 NAtoms=    3 NActive=    3 NUniq=    3 SFac= 1.00D+00 NAtFMM=   60 NAOKFM=F Big=F
 Integral buffers will be    131072 words long.
 Raffenetti 2 integral format.
 Two-electron integral symmetry is turned off.
 Leave Link  301 at Fri Oct  2 21:28:11 2020, MaxMem=   268435456 cpu:               0.8 elap:               0.2
 (Enter /applis/site/cecic/gaussian16/B.01/nehalem/g16/l302.exe)
 NPDir=0 NMtPBC=     1 NCelOv=     1 NCel=       1 NClECP=     1 NCelD=      1
         NCelK=      1 NCelE2=     1 NClLst=     1 CellRange=     0.0.
 One-electron integrals computed using PRISM.
 NBasis=    74 RedAO= T EigKep=  2.25D-03  NBF=    74
 NBsUse=    74 1.00D-06 EigRej= -1.00D+00 NBFU=    74
 Precomputing XC quadrature grid using
 IXCGrd= 4 IRadAn=           5 IRanWt=          -1 IRanGd=           0 AccXCQ= 0.00D+00.
 Generated NRdTot=       0 NPtTot=           0 NUsed=           0 NTot=          32
 NSgBfM=    85    85    85    85    85 MxSgAt=     3 MxSgA2=     3.
 Leave Link  302 at Fri Oct  2 21:28:11 2020, MaxMem=   268435456 cpu:               1.9 elap:               0.3
 (Enter /applis/site/cecic/gaussian16/B.01/nehalem/g16/l303.exe)
 DipDrv:  MaxL=1.
 Leave Link  303 at Fri Oct  2 21:28:11 2020, MaxMem=   268435456 cpu:               0.9 elap:               0.2
 (Enter /applis/site/cecic/gaussian16/B.01/nehalem/g16/l401.exe)
 ExpMin= 1.03D-01 ExpMax= 1.53D+04 ExpMxC= 5.22D+02 IAcc=3 IRadAn=         5 AccDes= 0.00D+00
 Harris functional with IExCor= 1009 and IRadAn=       5 diagonalized for initial guess.
 HarFok:  IExCor= 1009 AccDes= 0.00D+00 IRadAn=         5 IDoV= 1 UseB2=F ITyADJ=14
 ICtDFT=  3500011 ScaDFX=  1.000000  1.000000  1.000000  1.000000
 FoFCou: FMM=F IPFlag=           0 FMFlag=      100000 FMFlg1=           0
         NFxFlg=           0 DoJE=T BraDBF=F KetDBF=T FulRan=T
         wScrn=  0.000000 ICntrl=       500 IOpCl=  0 I1Cent=   200000004 NGrid=           0
         NMat0=    1 NMatS0=      1 NMatT0=    0 NMatD0=    1 NMtDS0=    0 NMtDT0=    0
 Symmetry not used in FoFCou.
 Harris En= -113.756597733371    
 JPrj=0 DoOrth=F DoCkMO=F.
 Initial guess <Sx>= 0.0000 <Sy>= 0.0000 <Sz>= 0.5000 <S**2>= 0.7500 S= 0.5000
 Leave Link  401 at Fri Oct  2 21:28:12 2020, MaxMem=   268435456 cpu:               2.4 elap:               0.4
 (Enter /applis/site/cecic/gaussian16/B.01/nehalem/g16/l502.exe)
 Keep R1 and R2 ints in memory in canonical form, NReq=14989008.
 FoFCou: FMM=F IPFlag=           0 FMFlag=           0 FMFlg1=           0
         NFxFlg=           0 DoJE=F BraDBF=F KetDBF=F FulRan=T
         wScrn=  0.000000 ICntrl=       600 IOpCl=  0 I1Cent=           0 NGrid=           0
         NMat0=    1 NMatS0=   2775 NMatT0=    0 NMatD0=    1 NMtDS0=    0 NMtDT0=    0
 Symmetry not used in FoFCou.
 Two-electron integral symmetry not used.
 UHF open shell SCF:
 Using DIIS extrapolation, IDIIS=  1040.
 NGot=   268435456 LenX=   260716254 LenY=   260708588
 Requested convergence on RMS density matrix=1.00D-08 within 128 cycles.
 Requested convergence on MAX density matrix=1.00D-06.
 Requested convergence on             energy=1.00D-06.
 No special actions if energy rises.
 Integral accuracy reduced to 1.0D-05 until final iterations.

 Cycle   1  Pass 0  IDiag  1:
 E= -113.813207541940    
 DIIS: error= 3.35D-02 at cycle   1 NSaved=   1.
 NSaved= 1 IEnMin= 1 EnMin= -113.813207541940     IErMin= 1 ErrMin= 3.35D-02
 ErrMax= 3.35D-02  0.00D+00 EMaxC= 1.00D-01 BMatC= 2.06D-01 BMatP= 2.06D-01
 IDIUse=3 WtCom= 6.65D-01 WtEn= 3.35D-01
 Coeff-Com:  0.100D+01
 Coeff-En:   0.100D+01
 Coeff:      0.100D+01
 Gap=     0.288 Goal=   None    Shift=    0.000
 Gap=     0.370 Goal=   None    Shift=    0.000
 GapD=    0.288 DampG=1.000 DampE=0.500 DampFc=0.5000 IDamp=-1.
 Damping current iteration by 5.00D-01
 RMSDP=2.82D-03 MaxDP=5.77D-02              OVMax= 1.35D-01

 Cycle   2  Pass 0  IDiag  1:
 E= -113.822058008488     Delta-E=       -0.008850466548 Rises=F Damp=T
 DIIS: error= 1.12D-02 at cycle   2 NSaved=   2.
 NSaved= 2 IEnMin= 2 EnMin= -113.822058008488     IErMin= 2 ErrMin= 1.12D-02
 ErrMax= 1.12D-02  0.00D+00 EMaxC= 1.00D-01 BMatC= 3.74D-02 BMatP= 2.06D-01
 IDIUse=3 WtCom= 8.88D-01 WtEn= 1.12D-01
 Coeff-Com:  0.126D+00 0.874D+00
 Coeff-En:   0.290D+00 0.710D+00
 Coeff:      0.144D+00 0.856D+00
 Gap=     0.291 Goal=   None    Shift=    0.000
 Gap=     0.399 Goal=   None    Shift=    0.000
 RMSDP=8.34D-04 MaxDP=1.02D-02 DE=-8.85D-03 OVMax= 1.04D-01

 Cycle   3  Pass 0  IDiag  1:
 E= -113.839412843750     Delta-E=       -0.017354835262 Rises=F Damp=F
 DIIS: error= 8.47D-03 at cycle   3 NSaved=   3.
 NSaved= 3 IEnMin= 3 EnMin= -113.839412843750     IErMin= 3 ErrMin= 8.47D-03
 ErrMax= 8.47D-03  0.00D+00 EMaxC= 1.00D-01 BMatC= 1.33D-02 BMatP= 3.74D-02
 IDIUse=3 WtCom= 9.15D-01 WtEn= 8.47D-02
 Coeff-Com: -0.110D+00 0.358D+00 0.752D+00
 Coeff-En:   0.000D+00 0.000D+00 0.100D+01
 Coeff:     -0.100D+00 0.327D+00 0.773D+00
 Gap=     0.281 Goal=   None    Shift=    0.000
 Gap=     0.397 Goal=   None    Shift=    0.000
 RMSDP=5.31D-04 MaxDP=2.17D-02 DE=-1.74D-02 OVMax= 2.78D-02

 Cycle   4  Pass 0  IDiag  1:
 E= -113.841823865990     Delta-E=       -0.002411022239 Rises=F Damp=F
 DIIS: error= 3.00D-03 at cycle   4 NSaved=   4.
 NSaved= 4 IEnMin= 4 EnMin= -113.841823865990     IErMin= 4 ErrMin= 3.00D-03
 ErrMax= 3.00D-03  0.00D+00 EMaxC= 1.00D-01 BMatC= 1.55D-03 BMatP= 1.33D-02
 IDIUse=3 WtCom= 9.70D-01 WtEn= 3.00D-02
 Coeff-Com: -0.177D-01 0.250D-01 0.293D+00 0.699D+00
 Coeff-En:   0.000D+00 0.000D+00 0.724D-01 0.928D+00
 Coeff:     -0.172D-01 0.242D-01 0.287D+00 0.706D+00
 Gap=     0.282 Goal=   None    Shift=    0.000
 Gap=     0.399 Goal=   None    Shift=    0.000
 RMSDP=1.26D-04 MaxDP=2.82D-03 DE=-2.41D-03 OVMax= 7.33D-03

 Cycle   5  Pass 0  IDiag  1:
 E= -113.842141689248     Delta-E=       -0.000317823258 Rises=F Damp=F
 DIIS: error= 2.40D-04 at cycle   5 NSaved=   5.
 NSaved= 5 IEnMin= 5 EnMin= -113.842141689248     IErMin= 5 ErrMin= 2.40D-04
 ErrMax= 2.40D-04  0.00D+00 EMaxC= 1.00D-01 BMatC= 6.95D-06 BMatP= 1.55D-03
 IDIUse=3 WtCom= 9.98D-01 WtEn= 2.40D-03
 Coeff-Com:  0.522D-02-0.141D-01-0.429D-01-0.411D-01 0.109D+01
 Coeff-En:   0.000D+00 0.000D+00 0.000D+00 0.000D+00 0.100D+01
 Coeff:      0.521D-02-0.140D-01-0.428D-01-0.410D-01 0.109D+01
 Gap=     0.283 Goal=   None    Shift=    0.000
 Gap=     0.399 Goal=   None    Shift=    0.000
 RMSDP=3.66D-05 MaxDP=1.86D-03 DE=-3.18D-04 OVMax= 1.03D-03

 Cycle   6  Pass 0  IDiag  1:
 E= -113.842145114877     Delta-E=       -0.000003425630 Rises=F Damp=F
 DIIS: error= 7.94D-05 at cycle   6 NSaved=   6.
 NSaved= 6 IEnMin= 6 EnMin= -113.842145114877     IErMin= 6 ErrMin= 7.94D-05
 ErrMax= 7.94D-05  0.00D+00 EMaxC= 1.00D-01 BMatC= 5.12D-07 BMatP= 6.95D-06
 IDIUse=1 WtCom= 1.00D+00 WtEn= 0.00D+00
 Coeff-Com:  0.957D-03-0.189D-02-0.192D-01-0.406D-01 0.719D-01 0.989D+00
 Coeff:      0.957D-03-0.189D-02-0.192D-01-0.406D-01 0.719D-01 0.989D+00
 Gap=     0.283 Goal=   None    Shift=    0.000
 Gap=     0.399 Goal=   None    Shift=    0.000
 RMSDP=8.52D-06 MaxDP=3.73D-04 DE=-3.43D-06 OVMax= 5.53D-04

 Initial convergence to 1.0D-05 achieved.  Increase integral accuracy.
 Cycle   7  Pass 1  IDiag  1:
 E= -113.842151671909     Delta-E=       -0.000006557032 Rises=F Damp=F
 DIIS: error= 4.25D-05 at cycle   1 NSaved=   1.
 NSaved= 1 IEnMin= 1 EnMin= -113.842151671909     IErMin= 1 ErrMin= 4.25D-05
 ErrMax= 4.25D-05  0.00D+00 EMaxC= 1.00D-01 BMatC= 2.77D-07 BMatP= 2.77D-07
 IDIUse=1 WtCom= 1.00D+00 WtEn= 0.00D+00
 Coeff-Com:  0.100D+01
 Coeff:      0.100D+01
 Gap=     0.283 Goal=   None    Shift=    0.000
 Gap=     0.399 Goal=   None    Shift=    0.000
 RMSDP=8.52D-06 MaxDP=3.73D-04 DE=-6.56D-06 OVMax= 2.83D-04

 Cycle   8  Pass 1  IDiag  1:
 E= -113.842151810336     Delta-E=       -0.000000138426 Rises=F Damp=F
 DIIS: error= 2.16D-05 at cycle   2 NSaved=   2.
 NSaved= 2 IEnMin= 2 EnMin= -113.842151810336     IErMin= 2 ErrMin= 2.16D-05
 ErrMax= 2.16D-05  0.00D+00 EMaxC= 1.00D-01 BMatC= 4.78D-08 BMatP= 2.77D-07
 IDIUse=1 WtCom= 1.00D+00 WtEn= 0.00D+00
 Coeff-Com: -0.669D-01 0.107D+01
 Coeff:     -0.669D-01 0.107D+01
 Gap=     0.283 Goal=   None    Shift=    0.000
 Gap=     0.399 Goal=   None    Shift=    0.000
 RMSDP=2.12D-06 MaxDP=4.34D-05 DE=-1.38D-07 OVMax= 1.62D-04

 Cycle   9  Pass 1  IDiag  1:
 E= -113.842151866433     Delta-E=       -0.000000056097 Rises=F Damp=F
 DIIS: error= 2.58D-05 at cycle   3 NSaved=   3.
 NSaved= 3 IEnMin= 3 EnMin= -113.842151866433     IErMin= 2 ErrMin= 2.16D-05
 ErrMax= 2.58D-05  0.00D+00 EMaxC= 1.00D-01 BMatC= 5.01D-08 BMatP= 4.78D-08
 IDIUse=1 WtCom= 1.00D+00 WtEn= 0.00D+00
 Coeff-Com: -0.122D+00 0.600D+00 0.522D+00
 Coeff:     -0.122D+00 0.600D+00 0.522D+00
 Gap=     0.283 Goal=   None    Shift=    0.000
 Gap=     0.399 Goal=   None    Shift=    0.000
 RMSDP=1.01D-06 MaxDP=2.97D-05 DE=-5.61D-08 OVMax= 1.16D-04

 Cycle  10  Pass 1  IDiag  1:
 E= -113.842151889263     Delta-E=       -0.000000022830 Rises=F Damp=F
 DIIS: error= 1.29D-05 at cycle   4 NSaved=   4.
 NSaved= 4 IEnMin= 4 EnMin= -113.842151889263     IErMin= 4 ErrMin= 1.29D-05
 ErrMax= 1.29D-05  0.00D+00 EMaxC= 1.00D-01 BMatC= 1.52D-08 BMatP= 4.78D-08
 IDIUse=1 WtCom= 1.00D+00 WtEn= 0.00D+00
 Coeff-Com:  0.345D-01-0.101D+01 0.434D-01 0.193D+01
 Coeff:      0.345D-01-0.101D+01 0.434D-01 0.193D+01
 Gap=     0.283 Goal=   None    Shift=    0.000
 Gap=     0.399 Goal=   None    Shift=    0.000
 RMSDP=2.90D-06 MaxDP=6.78D-05 DE=-2.28D-08 OVMax= 2.75D-04

 Cycle  11  Pass 1  IDiag  1:
 E= -113.842151924994     Delta-E=       -0.000000035731 Rises=F Damp=F
 DIIS: error= 5.25D-06 at cycle   5 NSaved=   5.
 NSaved= 5 IEnMin= 5 EnMin= -113.842151924994     IErMin= 5 ErrMin= 5.25D-06
 ErrMax= 5.25D-06  0.00D+00 EMaxC= 1.00D-01 BMatC= 1.95D-09 BMatP= 1.52D-08
 IDIUse=1 WtCom= 1.00D+00 WtEn= 0.00D+00
 Coeff-Com:  0.291D-01-0.409D+00-0.130D+00 0.651D+00 0.860D+00
 Coeff:      0.291D-01-0.409D+00-0.130D+00 0.651D+00 0.860D+00
 Gap=     0.283 Goal=   None    Shift=    0.000
 Gap=     0.399 Goal=   None    Shift=    0.000
 RMSDP=7.50D-07 MaxDP=1.84D-05 DE=-3.57D-08 OVMax= 7.54D-05

 Cycle  12  Pass 1  IDiag  1:
 E= -113.842151926905     Delta-E=       -0.000000001911 Rises=F Damp=F
 DIIS: error= 5.05D-07 at cycle   6 NSaved=   6.
 NSaved= 6 IEnMin= 6 EnMin= -113.842151926905     IErMin= 6 ErrMin= 5.05D-07
 ErrMax= 5.05D-07  0.00D+00 EMaxC= 1.00D-01 BMatC= 4.08D-11 BMatP= 1.95D-09
 IDIUse=1 WtCom= 1.00D+00 WtEn= 0.00D+00
 Coeff-Com:  0.845D-03 0.250D-01-0.141D-01-0.653D-01 0.903D-01 0.963D+00
 Coeff:      0.845D-03 0.250D-01-0.141D-01-0.653D-01 0.903D-01 0.963D+00
 Gap=     0.283 Goal=   None    Shift=    0.000
 Gap=     0.399 Goal=   None    Shift=    0.000
 RMSDP=9.07D-08 MaxDP=1.48D-06 DE=-1.91D-09 OVMax= 5.47D-06

 Cycle  13  Pass 1  IDiag  1:
 E= -113.842151926928     Delta-E=       -0.000000000024 Rises=F Damp=F
 DIIS: error= 1.24D-07 at cycle   7 NSaved=   7.
 NSaved= 7 IEnMin= 7 EnMin= -113.842151926928     IErMin= 7 ErrMin= 1.24D-07
 ErrMax= 1.24D-07  0.00D+00 EMaxC= 1.00D-01 BMatC= 2.98D-12 BMatP= 4.08D-11
 IDIUse=1 WtCom= 1.00D+00 WtEn= 0.00D+00
 Coeff-Com: -0.173D-02 0.280D-01 0.592D-02-0.423D-01-0.502D-01 0.392D-01
 Coeff-Com:  0.102D+01
 Coeff:     -0.173D-02 0.280D-01 0.592D-02-0.423D-01-0.502D-01 0.392D-01
 Coeff:      0.102D+01
 Gap=     0.283 Goal=   None    Shift=    0.000
 Gap=     0.399 Goal=   None    Shift=    0.000
 RMSDP=1.91D-08 MaxDP=3.40D-07 DE=-2.36D-11 OVMax= 7.00D-07

 Cycle  14  Pass 1  IDiag  1:
 E= -113.842151926929     Delta-E=       -0.000000000001 Rises=F Damp=F
 DIIS: error= 3.98D-08 at cycle   8 NSaved=   8.
 NSaved= 8 IEnMin= 8 EnMin= -113.842151926929     IErMin= 8 ErrMin= 3.98D-08
 ErrMax= 3.98D-08  0.00D+00 EMaxC= 1.00D-01 BMatC= 2.89D-13 BMatP= 2.98D-12
 IDIUse=1 WtCom= 1.00D+00 WtEn= 0.00D+00
 Coeff-Com:  0.737D-04-0.449D-02-0.103D-02 0.112D-01-0.215D-02-0.745D-01
 Coeff-Com: -0.122D+00 0.119D+01
 Coeff:      0.737D-04-0.449D-02-0.103D-02 0.112D-01-0.215D-02-0.745D-01
 Coeff:     -0.122D+00 0.119D+01
 Gap=     0.283 Goal=   None    Shift=    0.000
 Gap=     0.399 Goal=   None    Shift=    0.000
 RMSDP=7.14D-09 MaxDP=1.23D-07 DE=-1.02D-12 OVMax= 3.49D-07

 SCF Done:  E(UM062X) =  -113.842151927     A.U. after   14 cycles
            NFock= 14  Conv=0.71D-08     -V/T= 2.0063
 <Sx>= 0.0000 <Sy>= 0.0000 <Sz>= 0.5000 <S**2>= 0.7540 S= 0.5020
 <L.S>= 0.000000000000E+00
 KE= 1.131339573595D+02 PE=-3.190112349661D+02 EE= 6.615729891049D+01
 Annihilation of the first spin contaminant:
 S**2 before annihilation     0.7540,   after     0.7500
 Leave Link  502 at Fri Oct  2 21:28:15 2020, MaxMem=   268435456 cpu:              23.3 elap:               3.3
 (Enter /applis/site/cecic/gaussian16/B.01/nehalem/g16/l601.exe)
 Copying SCF densities to generalized density rwf, IOpCl= 1 IROHF=0.

 **********************************************************************

            Population analysis using the SCF Density.

 **********************************************************************

 Alpha  occ. eigenvalues --  -19.69731 -10.65370  -1.21815  -0.72525  -0.58687
 Alpha  occ. eigenvalues --   -0.51677  -0.49978  -0.29797
 Alpha virt. eigenvalues --   -0.01525   0.10557   0.19262   0.33310   0.33415
 Alpha virt. eigenvalues --    0.37770   0.47459   0.53504   0.57959   0.60644
 Alpha virt. eigenvalues --    0.65516   0.69655   0.74983   0.83545   0.93729
 Alpha virt. eigenvalues --    1.04076   1.10647   1.14724   1.35948   1.45380
 Alpha virt. eigenvalues --    1.61566   1.62210   1.89456   1.93920   2.04688
 Alpha virt. eigenvalues --    2.07970   2.12415   2.27550   2.46591   2.60667
 Alpha virt. eigenvalues --    2.69802   2.72423   2.85746   2.91738   2.93857
 Alpha virt. eigenvalues --    2.99896   3.10275   3.15915   3.22555   3.27439
 Alpha virt. eigenvalues --    3.39771   3.57736   3.73218   3.78537   3.79353
 Alpha virt. eigenvalues --    4.04957   4.24061   4.38540   4.65419   4.70192
 Alpha virt. eigenvalues --    4.79829   5.14602   5.16895   5.16902   5.51103
 Alpha virt. eigenvalues --    5.62589   6.00076   6.02060   6.24261   6.27731
 Alpha virt. eigenvalues --    6.35883   6.74419   6.81380   6.92696   9.10577
 Alpha virt. eigenvalues --   11.55565
  Beta  occ. eigenvalues --  -19.68950 -10.64622  -1.19492  -0.69163  -0.55306
  Beta  occ. eigenvalues --   -0.48725  -0.45033
  Beta virt. eigenvalues --   -0.05127   0.00166   0.08946   0.18407   0.31977
  Beta virt. eigenvalues --    0.32760   0.38585   0.47505   0.54733   0.58426
  Beta virt. eigenvalues --    0.61543   0.67107   0.69625   0.75768   0.83852
  Beta virt. eigenvalues --    0.93689   1.03550   1.10901   1.14681   1.36262
  Beta virt. eigenvalues --    1.45080   1.62620   1.63263   1.90230   1.98734
  Beta virt. eigenvalues --    2.06217   2.09169   2.15385   2.30538   2.47773
  Beta virt. eigenvalues --    2.61982   2.71246   2.75710   2.88303   2.96565
  Beta virt. eigenvalues --    2.98954   3.03172   3.13916   3.16547   3.25650
  Beta virt. eigenvalues --    3.30248   3.40258   3.57936   3.74629   3.78072
  Beta virt. eigenvalues --    3.80444   4.05293   4.25201   4.39968   4.67451
  Beta virt. eigenvalues --    4.72562   4.82858   5.15994   5.17738   5.17887
  Beta virt. eigenvalues --    5.51450   5.63475   6.01117   6.01977   6.26957
  Beta virt. eigenvalues --    6.30545   6.38031   6.74139   6.83802   6.93261
  Beta virt. eigenvalues --    9.10762  11.55762
          Condensed to atoms (all electrons):
               1          2          3
     1  C    5.123429   0.569668   0.261450
     2  O    0.569668   7.666938  -0.059570
     3  H    0.261450  -0.059570   0.666535
          Atomic-Atomic Spin Densities.
               1          2          3
     1  C    0.875258  -0.181729  -0.120133
     2  O   -0.181729   0.472551  -0.005963
     3  H   -0.120133  -0.005963   0.267841
 Mulliken charges and spin densities:
               1          2
     1  C    0.045452   0.573397
     2  O   -0.177037   0.284859
     3  H    0.131585   0.141745
 Sum of Mulliken charges =  -0.00000   1.00000
 Mulliken charges and spin densities with hydrogens summed into heavy atoms:
               1          2
     1  C    0.177037   0.715141
     2  O   -0.177037   0.284859
 Electronic spatial extent (au):  <R**2>=             73.0810
 Charge=             -0.0000 electrons
 Dipole moment (field-independent basis, Debye):
    X=              1.0676    Y=             -0.0000    Z=             -1.5270  Tot=              1.8631
 Quadrupole moment (field-independent basis, Debye-Ang):
   XX=            -11.1608   YY=            -11.0084   ZZ=            -13.3376
   XY=              0.0000   XZ=             -0.6123   YZ=             -0.0000
 Traceless Quadrupole moment (field-independent basis, Debye-Ang):
   XX=              0.6748   YY=              0.8272   ZZ=             -1.5020
   XY=              0.0000   XZ=             -0.6123   YZ=             -0.0000
 Octapole moment (field-independent basis, Debye-Ang**2):
  XXX=             -0.5616  YYY=             -0.0000  ZZZ=            -20.5185  XYY=             -0.4240
  XXY=              0.0000  XXZ=             -6.4338  XZZ=             -0.0803  YZZ=              0.0000
  YYZ=             -5.9468  XYZ=             -0.0000
 Hexadecapole moment (field-independent basis, Debye-Ang**3):
 XXXX=            -14.3179 YYYY=             -9.6749 ZZZZ=            -62.0762 XXXY=              0.0000
 XXXZ=              0.3348 YYYX=             -0.0000 YYYZ=             -0.0000 ZZZX=              0.7722
 ZZZY=              0.0000 XXYY=             -4.1655 XXZZ=            -12.2714 YYZZ=            -11.3603
 XXYZ=             -0.0000 YYXZ=              0.2934 ZZXY=              0.0000
 N-N= 2.587782676919D+01 E-N=-3.190112343320D+02  KE= 1.131339573595D+02
                          Isotropic Fermi Contact Couplings
        Atom                 a.u.       MegaHertz       Gauss      10(-4) cm-1
     1  C(13)              0.37763     424.52741     151.48194     141.60710
     2  O(17)              0.07010     -42.49670     -15.16388     -14.17537
     3  H(1)               0.07316     327.03327     116.69360     109.08656
 --------------------------------------------------------
       Center         ----  Spin Dipole Couplings  ----
                      3XX-RR        3YY-RR        3ZZ-RR
 --------------------------------------------------------
     1   Atom        0.430991     -0.314126     -0.116865
     2   Atom        1.582748     -0.892991     -0.689757
     3   Atom        0.026911     -0.036627      0.009715
 --------------------------------------------------------
                        XY            XZ            YZ
 --------------------------------------------------------
     1   Atom       -0.000000      0.413217     -0.000000
     2   Atom       -0.000000      0.500060      0.000000
     3   Atom        0.000000     -0.042050     -0.000000
 --------------------------------------------------------


 ---------------------------------------------------------------------------------
              Anisotropic Spin Dipole Couplings in Principal Axis System
 ---------------------------------------------------------------------------------

       Atom             a.u.   MegaHertz   Gauss  10(-4) cm-1        Axes

              Baa    -0.3387   -45.451   -16.218   -15.161 -0.4730  0.0000  0.8811
     1 C(13)  Bbb    -0.3141   -42.153   -15.041   -14.061  0.0000  1.0000 -0.0000
              Bcc     0.6528    87.603    31.259    29.221  0.8811 -0.0000  0.4730
 
              Baa    -0.8930    64.616    23.057    21.554  0.0000  1.0000 -0.0000
     2 O(17)  Bbb    -0.7949    57.520    20.525    19.187 -0.2058  0.0000  0.9786
              Bcc     1.6879  -122.137   -43.581   -40.740  0.9786 -0.0000  0.2058
 
              Baa    -0.0366   -19.542    -6.973    -6.519 -0.0000  1.0000  0.0000
     3 H(1)   Bbb    -0.0246   -13.129    -4.685    -4.379  0.6323 -0.0000  0.7747
              Bcc     0.0612    32.672    11.658    10.898  0.7747  0.0000 -0.6323
 

 ---------------------------------------------------------------------------------

 No NMR shielding tensors so no spin-rotation constants.
 Leave Link  601 at Fri Oct  2 21:28:16 2020, MaxMem=   268435456 cpu:               2.0 elap:               0.3
 (Enter /applis/site/cecic/gaussian16/B.01/nehalem/g16/l701.exe)
 ... and contract with generalized density number  0.
 Compute integral first derivatives.
 Leave Link  701 at Fri Oct  2 21:28:16 2020, MaxMem=   268435456 cpu:               1.0 elap:               0.2
 (Enter /applis/site/cecic/gaussian16/B.01/nehalem/g16/l702.exe)
 L702 exits ... SP integral derivatives will be done elsewhere.
 Leave Link  702 at Fri Oct  2 21:28:16 2020, MaxMem=   268435456 cpu:               0.3 elap:               0.1
 (Enter /applis/site/cecic/gaussian16/B.01/nehalem/g16/l703.exe)
 Integral derivatives from FoFJK, PRISM(SPDF).
 Compute integral first derivatives, UseDBF=F ICtDFT=           0.
 Calling FoFJK, ICntrl=      2127 FMM=F ISym2X=0 I1Cent= 0 IOpClX= 1 NMat=1 NMatS=1 NMatT=0.
 FoFJK:  IHMeth= 1 ICntrl=    2127 DoSepK=F KAlg= 0 I1Cent=           0 FoldK=F
 IRaf=         0 NMat=       1 IRICut=       1 DoRegI=T DoRafI=F ISym2E= 0 IDoP0=0 IntGTp=1.
 FoFCou: FMM=F IPFlag=           0 FMFlag=      100000 FMFlg1=         800
         NFxFlg=           0 DoJE=F BraDBF=F KetDBF=F FulRan=T
         wScrn=  0.000000 ICntrl=      2127 IOpCl=  1 I1Cent=           0 NGrid=           0
         NMat0=    1 NMatS0=      1 NMatT0=    0 NMatD0=    1 NMtDS0=    0 NMtDT0=    0
 Symmetry not used in FoFCou.
 Leave Link  703 at Fri Oct  2 21:28:17 2020, MaxMem=   268435456 cpu:               5.9 elap:               0.8
 (Enter /applis/site/cecic/gaussian16/B.01/nehalem/g16/l716.exe)
 Dipole        = 4.20008700D-01-5.25812666D-16-6.00752952D-01
 -------------------------------------------------------------------
 Center     Atomic                   Forces (Hartrees/Bohr)
 Number     Number              X              Y              Z
 -------------------------------------------------------------------
      1        6          -0.009775790   -0.000000000    0.094961858
      2        8          -0.004014801    0.000000000   -0.081776243
      3        1           0.013790591    0.000000000   -0.013185615
 -------------------------------------------------------------------
 Cartesian Forces:  Max     0.094961858 RMS     0.042401302
 Leave Link  716 at Fri Oct  2 21:28:17 2020, MaxMem=   268435456 cpu:               0.9 elap:               0.2
 (Enter /applis/site/cecic/gaussian16/B.01/nehalem/g16/l103.exe)

 GradGradGradGradGradGradGradGradGradGradGradGradGradGradGradGradGradGrad
 Berny optimization.
 FormGI is forming the generalized inverse of G from B-inverse, IUseBI=4.
 Internal  Forces:  Max     0.081777081 RMS     0.048706072
 Search for a local minimum.
 Step number   1 out of a maximum of  100
 All quantities printed in internal units (Hartrees-Bohrs-Radians)
 RMS Force = .48706D-01 SwitMx=.10000D-02 MixMth= 1
 Mixed Optimization -- RFO/linear search
 Second derivative matrix not updated -- first step.
 The second derivative matrix:
                          R1        R2        A1
           R1           0.95627
           R2           0.00000   0.35466
           A1           0.00000   0.00000   0.16000
 ITU=  0
     Eigenvalues ---    0.16000   0.35466   0.95627
 RFO step:  Lambda=-8.38803677D-03 EMin= 1.60000000D-01
 Linear search not attempted -- first point.
 Iteration  1 RMS(Cart)=  0.04610666 RMS(Int)=  0.00097709
 Iteration  2 RMS(Cart)=  0.00072244 RMS(Int)=  0.00000019
 Iteration  3 RMS(Cart)=  0.00000022 RMS(Int)=  0.00000000
 ITry= 1 IFail=0 DXMaxC= 6.07D-02 DCOld= 1.00D+10 DXMaxT= 3.00D-01 DXLimC= 3.00D+00 Rises=F
 Variable       Old X    -DE/DX   Delta X   Delta X   Delta X     New X
                                 (Linear)    (Quad)   (Total)
    R1        2.30443  -0.08178   0.00000  -0.08477  -0.08477   2.21965
    R2        2.04926   0.01854   0.00000   0.05106   0.05106   2.10032
    A1        2.09459   0.00926   0.00000   0.05498   0.05498   2.14957
         Item               Value     Threshold  Converged?
 Maximum Force            0.081777     0.000450     NO 
 RMS     Force            0.048706     0.000300     NO 
 Maximum Displacement     0.060707     0.001800     NO 
 RMS     Displacement     0.046111     0.001200     NO 
 Predicted change in Energy=-4.247771D-03
 Lowest energy point so far.  Saving SCF results.
 GradGradGradGradGradGradGradGradGradGradGradGradGradGradGradGradGradGrad

 Leave Link  103 at Fri Oct  2 21:28:17 2020, MaxMem=   268435456 cpu:               1.0 elap:               0.2
 (Enter /applis/site/cecic/gaussian16/B.01/nehalem/g16/l202.exe)
                          Input orientation:                          
 ---------------------------------------------------------------------
 Center     Atomic      Atomic             Coordinates (Angstroms)
 Number     Number       Type             X           Y           Z
 ---------------------------------------------------------------------
      1          6           0        0.005769    0.000000    0.032125
      2          8           0       -0.012048    0.000000    1.206580
      3          1           0        0.945309    0.000000   -0.561647
 ---------------------------------------------------------------------
                    Distance matrix (angstroms):
                    1          2          3
     1  C    0.000000
     2  O    1.174590   0.000000
     3  H    1.111441   2.010760   0.000000
 Symmetry turned off by external request.
 Stoichiometry    CHO(2)
 Framework group  CS[SG(CHO)]
 Deg. of freedom     3
 Full point group                 CS      NOp   2
 Rotational constants (GHZ):         709.2980652          45.2022760          42.4941980
 Leave Link  202 at Fri Oct  2 21:28:17 2020, MaxMem=   268435456 cpu:               0.3 elap:               0.2
 (Enter /applis/site/cecic/gaussian16/B.01/nehalem/g16/l301.exe)
 Standard basis: CC-pVTZ (5D, 7F)
 Ernie: Thresh=  0.10000D-02 Tol=  0.10000D-05 Strict=F.
 Ernie:  6 primitive shells out of 60 were deleted.
    74 basis functions,   121 primitive gaussians,    85 cartesian basis functions
     8 alpha electrons        7 beta electrons
       nuclear repulsion energy        26.5870858265 Hartrees.
 IExCor= 4336 DFT=T Ex+Corr=M062X ExCW=0 ScaHFX=  0.540000
 ScaDFX=  1.000000  1.000000  1.000000  1.000000 ScalE2=  1.000000  1.000000
 IRadAn=      5 IRanWt=     -1 IRanGd=            0 ICorTp=0 IEmpDi=  4
 NAtoms=    3 NActive=    3 NUniq=    3 SFac= 1.00D+00 NAtFMM=   60 NAOKFM=F Big=F
 Integral buffers will be    131072 words long.
 Raffenetti 2 integral format.
 Two-electron integral symmetry is turned off.
 Leave Link  301 at Fri Oct  2 21:28:18 2020, MaxMem=   268435456 cpu:               0.6 elap:               0.1
 (Enter /applis/site/cecic/gaussian16/B.01/nehalem/g16/l302.exe)
 NPDir=0 NMtPBC=     1 NCelOv=     1 NCel=       1 NClECP=     1 NCelD=      1
         NCelK=      1 NCelE2=     1 NClLst=     1 CellRange=     0.0.
 One-electron integrals computed using PRISM.
 NBasis=    74 RedAO= T EigKep=  2.48D-03  NBF=    74
 NBsUse=    74 1.00D-06 EigRej= -1.00D+00 NBFU=    74
 Precomputing XC quadrature grid using
 IXCGrd= 4 IRadAn=           5 IRanWt=          -1 IRanGd=           0 AccXCQ= 0.00D+00.
 Generated NRdTot=       0 NPtTot=           0 NUsed=           0 NTot=          32
 NSgBfM=    85    85    85    85    85 MxSgAt=     3 MxSgA2=     3.
 Leave Link  302 at Fri Oct  2 21:28:18 2020, MaxMem=   268435456 cpu:               1.2 elap:               0.2
 (Enter /applis/site/cecic/gaussian16/B.01/nehalem/g16/l303.exe)
 DipDrv:  MaxL=1.
 Leave Link  303 at Fri Oct  2 21:28:18 2020, MaxMem=   268435456 cpu:               0.3 elap:               0.1
 (Enter /applis/site/cecic/gaussian16/B.01/nehalem/g16/l401.exe)
 Initial guess from the checkpoint file:  "input.chk"
 B after Tr=     0.003381    0.000000    0.007875
         Rot=    0.999990    0.000000    0.004466    0.000000 Ang=   0.51 deg.
 Guess basis will be translated and rotated to current coordinates.
 JPrj=2 DoOrth=T DoCkMO=T.
 Initial guess <Sx>= 0.0000 <Sy>= 0.0000 <Sz>= 0.5000 <S**2>= 0.7540 S= 0.5020
 Generating alternative initial guess.
 ExpMin= 1.03D-01 ExpMax= 1.53D+04 ExpMxC= 5.22D+02 IAcc=3 IRadAn=         5 AccDes= 0.00D+00
 Harris functional with IExCor= 1009 and IRadAn=       5 diagonalized for initial guess.
 HarFok:  IExCor= 1009 AccDes= 0.00D+00 IRadAn=         5 IDoV= 1 UseB2=F ITyADJ=14
 ICtDFT=  3500011 ScaDFX=  1.000000  1.000000  1.000000  1.000000
 FoFCou: FMM=F IPFlag=           0 FMFlag=      100000 FMFlg1=           0
         NFxFlg=           0 DoJE=T BraDBF=F KetDBF=T FulRan=T
         wScrn=  0.000000 ICntrl=       500 IOpCl=  0 I1Cent=   200000004 NGrid=           0
         NMat0=    1 NMatS0=      1 NMatT0=    0 NMatD0=    1 NMtDS0=    0 NMtDT0=    0
 Symmetry not used in FoFCou.
 Harris En= -113.762239666810    
 Leave Link  401 at Fri Oct  2 21:28:18 2020, MaxMem=   268435456 cpu:               2.4 elap:               0.3
 (Enter /applis/site/cecic/gaussian16/B.01/nehalem/g16/l502.exe)
 Keep R1 and R2 ints in memory in canonical form, NReq=14989008.
 FoFCou: FMM=F IPFlag=           0 FMFlag=           0 FMFlg1=           0
         NFxFlg=           0 DoJE=F BraDBF=F KetDBF=F FulRan=T
         wScrn=  0.000000 ICntrl=       600 IOpCl=  0 I1Cent=           0 NGrid=           0
         NMat0=    1 NMatS0=   2775 NMatT0=    0 NMatD0=    1 NMtDS0=    0 NMtDT0=    0
 Symmetry not used in FoFCou.
 Two-electron integral symmetry not used.
 UHF open shell SCF:
 Using DIIS extrapolation, IDIIS=  1040.
 NGot=   268435456 LenX=   260716254 LenY=   260708588
 Requested convergence on RMS density matrix=1.00D-08 within 128 cycles.
 Requested convergence on MAX density matrix=1.00D-06.
 Requested convergence on             energy=1.00D-06.
 No special actions if energy rises.
 Integral accuracy reduced to 1.0D-05 until final iterations.

 Cycle   1  Pass 0  IDiag  1:
 E= -113.845147608923    
 DIIS: error= 4.43D-03 at cycle   1 NSaved=   1.
 NSaved= 1 IEnMin= 1 EnMin= -113.845147608923     IErMin= 1 ErrMin= 4.43D-03
 ErrMax= 4.43D-03  0.00D+00 EMaxC= 1.00D-01 BMatC= 8.27D-03 BMatP= 8.27D-03
 IDIUse=3 WtCom= 9.56D-01 WtEn= 4.43D-02
 Coeff-Com:  0.100D+01
 Coeff-En:   0.100D+01
 Coeff:      0.100D+01
 Gap=     1.481 Goal=   None    Shift=    0.000
 Gap=     1.697 Goal=   None    Shift=    0.000
 GapD=    1.481 DampG=2.000 DampE=1.000 DampFc=2.0000 IDamp=-1.
 RMSDP=5.57D-04 MaxDP=1.35D-02              OVMax= 1.80D-02

 Cycle   2  Pass 0  IDiag  1:
 E= -113.846577308559     Delta-E=       -0.001429699636 Rises=F Damp=F
 DIIS: error= 3.03D-03 at cycle   2 NSaved=   2.
 NSaved= 2 IEnMin= 2 EnMin= -113.846577308559     IErMin= 2 ErrMin= 3.03D-03
 ErrMax= 3.03D-03  0.00D+00 EMaxC= 1.00D-01 BMatC= 3.26D-03 BMatP= 8.27D-03
 IDIUse=3 WtCom= 9.70D-01 WtEn= 3.03D-02
 Coeff-Com:  0.341D+00 0.659D+00
 Coeff-En:   0.000D+00 0.100D+01
 Coeff:      0.330D+00 0.670D+00
 Gap=     0.282 Goal=   None    Shift=    0.000
 Gap=     0.421 Goal=   None    Shift=    0.000
 RMSDP=3.28D-04 MaxDP=8.58D-03 DE=-1.43D-03 OVMax= 1.36D-02

 Cycle   3  Pass 0  IDiag  1:
 E= -113.846864560288     Delta-E=       -0.000287251729 Rises=F Damp=F
 DIIS: error= 2.19D-03 at cycle   3 NSaved=   3.
 NSaved= 3 IEnMin= 3 EnMin= -113.846864560288     IErMin= 3 ErrMin= 2.19D-03
 ErrMax= 2.19D-03  0.00D+00 EMaxC= 1.00D-01 BMatC= 1.56D-03 BMatP= 3.26D-03
 IDIUse=3 WtCom= 9.78D-01 WtEn= 2.19D-02
 Coeff-Com:  0.144D-01 0.403D+00 0.582D+00
 Coeff-En:   0.000D+00 0.332D+00 0.668D+00
 Coeff:      0.141D-01 0.402D+00 0.584D+00
 Gap=     0.282 Goal=   None    Shift=    0.000
 Gap=     0.424 Goal=   None    Shift=    0.000
 RMSDP=1.29D-04 MaxDP=3.57D-03 DE=-2.87D-04 OVMax= 7.89D-03

 Cycle   4  Pass 0  IDiag  1:
 E= -113.847135955923     Delta-E=       -0.000271395635 Rises=F Damp=F
 DIIS: error= 7.20D-04 at cycle   4 NSaved=   4.
 NSaved= 4 IEnMin= 4 EnMin= -113.847135955923     IErMin= 4 ErrMin= 7.20D-04
 ErrMax= 7.20D-04  0.00D+00 EMaxC= 1.00D-01 BMatC= 6.02D-05 BMatP= 1.56D-03
 IDIUse=3 WtCom= 9.93D-01 WtEn= 7.20D-03
 Coeff-Com: -0.287D-01 0.541D-01 0.208D+00 0.767D+00
 Coeff-En:   0.000D+00 0.000D+00 0.000D+00 0.100D+01
 Coeff:     -0.285D-01 0.537D-01 0.206D+00 0.769D+00
 Gap=     0.281 Goal=   None    Shift=    0.000
 Gap=     0.424 Goal=   None    Shift=    0.000
 RMSDP=3.88D-05 MaxDP=7.96D-04 DE=-2.71D-04 OVMax= 1.71D-03

 Cycle   5  Pass 0  IDiag  1:
 E= -113.847151794860     Delta-E=       -0.000015838938 Rises=F Damp=F
 DIIS: error= 1.05D-04 at cycle   5 NSaved=   5.
 NSaved= 5 IEnMin= 5 EnMin= -113.847151794860     IErMin= 5 ErrMin= 1.05D-04
 ErrMax= 1.05D-04  0.00D+00 EMaxC= 1.00D-01 BMatC= 2.24D-06 BMatP= 6.02D-05
 IDIUse=3 WtCom= 9.99D-01 WtEn= 1.05D-03
 Coeff-Com:  0.145D-02-0.356D-01-0.522D-01 0.161D-02 0.108D+01
 Coeff-En:   0.000D+00 0.000D+00 0.000D+00 0.000D+00 0.100D+01
 Coeff:      0.145D-02-0.356D-01-0.521D-01 0.161D-02 0.108D+01
 Gap=     0.281 Goal=   None    Shift=    0.000
 Gap=     0.424 Goal=   None    Shift=    0.000
 RMSDP=2.96D-05 MaxDP=1.10D-03 DE=-1.58D-05 OVMax= 1.09D-03

 Cycle   6  Pass 0  IDiag  1:
 E= -113.847153656118     Delta-E=       -0.000001861258 Rises=F Damp=F
 DIIS: error= 4.51D-05 at cycle   6 NSaved=   6.
 NSaved= 6 IEnMin= 6 EnMin= -113.847153656118     IErMin= 6 ErrMin= 4.51D-05
 ErrMax= 4.51D-05  0.00D+00 EMaxC= 1.00D-01 BMatC= 3.16D-07 BMatP= 2.24D-06
 IDIUse=1 WtCom= 1.00D+00 WtEn= 0.00D+00
 Coeff-Com:  0.235D-02 0.389D-03-0.103D-01-0.101D+00-0.155D+00 0.126D+01
 Coeff:      0.235D-02 0.389D-03-0.103D-01-0.101D+00-0.155D+00 0.126D+01
 Gap=     0.281 Goal=   None    Shift=    0.000
 Gap=     0.424 Goal=   None    Shift=    0.000
 RMSDP=1.06D-05 MaxDP=2.77D-04 DE=-1.86D-06 OVMax= 4.70D-04

 Cycle   7  Pass 0  IDiag  1:
 E= -113.847153978859     Delta-E=       -0.000000322741 Rises=F Damp=F
 DIIS: error= 1.75D-05 at cycle   7 NSaved=   7.
 NSaved= 7 IEnMin= 7 EnMin= -113.847153978859     IErMin= 7 ErrMin= 1.75D-05
 ErrMax= 1.75D-05  0.00D+00 EMaxC= 1.00D-01 BMatC= 2.81D-08 BMatP= 3.16D-07
 IDIUse=1 WtCom= 1.00D+00 WtEn= 0.00D+00
 Coeff-Com: -0.646D-03 0.373D-02 0.904D-02 0.188D-01-0.696D-01-0.261D+00
 Coeff-Com:  0.130D+01
 Coeff:     -0.646D-03 0.373D-02 0.904D-02 0.188D-01-0.696D-01-0.261D+00
 Coeff:      0.130D+01
 Gap=     0.281 Goal=   None    Shift=    0.000
 Gap=     0.424 Goal=   None    Shift=    0.000
 RMSDP=2.51D-06 MaxDP=5.25D-05 DE=-3.23D-07 OVMax= 2.24D-04

 Initial convergence to 1.0D-05 achieved.  Increase integral accuracy.
 Cycle   8  Pass 1  IDiag  1:
 E= -113.847145232892     Delta-E=        0.000008745966 Rises=F Damp=F
 DIIS: error= 3.69D-05 at cycle   1 NSaved=   1.
 NSaved= 1 IEnMin= 1 EnMin= -113.847145232892     IErMin= 1 ErrMin= 3.69D-05
 ErrMax= 3.69D-05  0.00D+00 EMaxC= 1.00D-01 BMatC= 2.71D-07 BMatP= 2.71D-07
 IDIUse=1 WtCom= 1.00D+00 WtEn= 0.00D+00
 Coeff-Com:  0.100D+01
 Coeff:      0.100D+01
 Gap=     0.281 Goal=   None    Shift=    0.000
 Gap=     0.424 Goal=   None    Shift=    0.000
 RMSDP=2.51D-06 MaxDP=5.25D-05 DE= 8.75D-06 OVMax= 6.36D-05

 Cycle   9  Pass 1  IDiag  1:
 E= -113.847145271711     Delta-E=       -0.000000038819 Rises=F Damp=F
 DIIS: error= 7.63D-06 at cycle   2 NSaved=   2.
 NSaved= 2 IEnMin= 2 EnMin= -113.847145271711     IErMin= 2 ErrMin= 7.63D-06
 ErrMax= 7.63D-06  0.00D+00 EMaxC= 1.00D-01 BMatC= 8.06D-09 BMatP= 2.71D-07
 IDIUse=1 WtCom= 1.00D+00 WtEn= 0.00D+00
 Coeff-Com: -0.283D-01 0.103D+01
 Coeff:     -0.283D-01 0.103D+01
 Gap=     0.281 Goal=   None    Shift=    0.000
 Gap=     0.424 Goal=   None    Shift=    0.000
 RMSDP=8.16D-07 MaxDP=1.53D-05 DE=-3.88D-08 OVMax= 5.95D-05

 Cycle  10  Pass 1  IDiag  1:
 E= -113.847145272295     Delta-E=       -0.000000000584 Rises=F Damp=F
 DIIS: error= 9.87D-06 at cycle   3 NSaved=   3.
 NSaved= 3 IEnMin= 3 EnMin= -113.847145272295     IErMin= 2 ErrMin= 7.63D-06
 ErrMax= 9.87D-06  0.00D+00 EMaxC= 1.00D-01 BMatC= 1.68D-08 BMatP= 8.06D-09
 IDIUse=1 WtCom= 1.00D+00 WtEn= 0.00D+00
 Coeff-Com: -0.412D-01 0.642D+00 0.399D+00
 Coeff:     -0.412D-01 0.642D+00 0.399D+00
 Gap=     0.281 Goal=   None    Shift=    0.000
 Gap=     0.424 Goal=   None    Shift=    0.000
 RMSDP=3.47D-07 MaxDP=7.52D-06 DE=-5.84D-10 OVMax= 2.74D-05

 Cycle  11  Pass 1  IDiag  1:
 E= -113.847145275304     Delta-E=       -0.000000003009 Rises=F Damp=F
 DIIS: error= 2.16D-06 at cycle   4 NSaved=   4.
 NSaved= 4 IEnMin= 4 EnMin= -113.847145275304     IErMin= 4 ErrMin= 2.16D-06
 ErrMax= 2.16D-06  0.00D+00 EMaxC= 1.00D-01 BMatC= 4.52D-10 BMatP= 8.06D-09
 IDIUse=1 WtCom= 1.00D+00 WtEn= 0.00D+00
 Coeff-Com:  0.137D-01-0.324D+00-0.152D+00 0.146D+01
 Coeff:      0.137D-01-0.324D+00-0.152D+00 0.146D+01
 Gap=     0.281 Goal=   None    Shift=    0.000
 Gap=     0.424 Goal=   None    Shift=    0.000
 RMSDP=3.13D-07 MaxDP=5.83D-06 DE=-3.01D-09 OVMax= 2.58D-05

 Cycle  12  Pass 1  IDiag  1:
 E= -113.847145276047     Delta-E=       -0.000000000743 Rises=F Damp=F
 DIIS: error= 1.54D-06 at cycle   5 NSaved=   5.
 NSaved= 5 IEnMin= 5 EnMin= -113.847145276047     IErMin= 5 ErrMin= 1.54D-06
 ErrMax= 1.54D-06  0.00D+00 EMaxC= 1.00D-01 BMatC= 1.39D-10 BMatP= 4.52D-10
 IDIUse=1 WtCom= 1.00D+00 WtEn= 0.00D+00
 Coeff-Com:  0.540D-02-0.475D-01-0.854D-01-0.322D+00 0.145D+01
 Coeff:      0.540D-02-0.475D-01-0.854D-01-0.322D+00 0.145D+01
 Gap=     0.281 Goal=   None    Shift=    0.000
 Gap=     0.424 Goal=   None    Shift=    0.000
 RMSDP=2.02D-07 MaxDP=4.46D-06 DE=-7.43D-10 OVMax= 1.79D-05

 Cycle  13  Pass 1  IDiag  1:
 E= -113.847145276273     Delta-E=       -0.000000000226 Rises=F Damp=F
 DIIS: error= 4.99D-07 at cycle   6 NSaved=   6.
 NSaved= 6 IEnMin= 6 EnMin= -113.847145276273     IErMin= 6 ErrMin= 4.99D-07
 ErrMax= 4.99D-07  0.00D+00 EMaxC= 1.00D-01 BMatC= 2.26D-11 BMatP= 1.39D-10
 IDIUse=1 WtCom= 1.00D+00 WtEn= 0.00D+00
 Coeff-Com: -0.152D-02 0.669D-01 0.148D-01-0.448D+00 0.364D+00 0.100D+01
 Coeff:     -0.152D-02 0.669D-01 0.148D-01-0.448D+00 0.364D+00 0.100D+01
 Gap=     0.281 Goal=   None    Shift=    0.000
 Gap=     0.424 Goal=   None    Shift=    0.000
 RMSDP=8.37D-08 MaxDP=1.83D-06 DE=-2.26D-10 OVMax= 7.10D-06

 Cycle  14  Pass 1  IDiag  1:
 E= -113.847145276303     Delta-E=       -0.000000000031 Rises=F Damp=F
 DIIS: error= 1.20D-07 at cycle   7 NSaved=   7.
 NSaved= 7 IEnMin= 7 EnMin= -113.847145276303     IErMin= 7 ErrMin= 1.20D-07
 ErrMax= 1.20D-07  0.00D+00 EMaxC= 1.00D-01 BMatC= 1.48D-12 BMatP= 2.26D-11
 IDIUse=1 WtCom= 1.00D+00 WtEn= 0.00D+00
 Coeff-Com: -0.364D-04-0.150D-01 0.516D-02 0.177D+00-0.285D+00-0.287D+00
 Coeff-Com:  0.140D+01
 Coeff:     -0.364D-04-0.150D-01 0.516D-02 0.177D+00-0.285D+00-0.287D+00
 Coeff:      0.140D+01
 Gap=     0.281 Goal=   None    Shift=    0.000
 Gap=     0.424 Goal=   None    Shift=    0.000
 RMSDP=2.92D-08 MaxDP=6.17D-07 DE=-3.09D-11 OVMax= 1.60D-06

 Cycle  15  Pass 1  IDiag  1:
 E= -113.847145276306     Delta-E=       -0.000000000002 Rises=F Damp=F
 DIIS: error= 3.66D-08 at cycle   8 NSaved=   8.
 NSaved= 8 IEnMin= 8 EnMin= -113.847145276306     IErMin= 8 ErrMin= 3.66D-08
 ErrMax= 3.66D-08  0.00D+00 EMaxC= 1.00D-01 BMatC= 8.52D-14 BMatP= 1.48D-12
 IDIUse=1 WtCom= 1.00D+00 WtEn= 0.00D+00
 Coeff-Com:  0.942D-04-0.604D-03-0.191D-02-0.119D-01 0.399D-01 0.855D-03
 Coeff-Com: -0.271D+00 0.124D+01
 Coeff:      0.942D-04-0.604D-03-0.191D-02-0.119D-01 0.399D-01 0.855D-03
 Coeff:     -0.271D+00 0.124D+01
 Gap=     0.281 Goal=   None    Shift=    0.000
 Gap=     0.424 Goal=   None    Shift=    0.000
 RMSDP=4.30D-09 MaxDP=9.09D-08 DE=-2.07D-12 OVMax= 3.64D-07

 SCF Done:  E(UM062X) =  -113.847145276     A.U. after   15 cycles
            NFock= 15  Conv=0.43D-08     -V/T= 2.0050
 <Sx>= 0.0000 <Sy>= 0.0000 <Sz>= 0.5000 <S**2>= 0.7537 S= 0.5018
 <L.S>= 0.000000000000E+00
 KE= 1.132753323168D+02 PE=-3.205088421333D+02 EE= 6.679927871374D+01
 Annihilation of the first spin contaminant:
 S**2 before annihilation     0.7537,   after     0.7500
 Leave Link  502 at Fri Oct  2 21:28:21 2020, MaxMem=   268435456 cpu:              23.1 elap:               3.2
 (Enter /applis/site/cecic/gaussian16/B.01/nehalem/g16/l701.exe)
 ... and contract with generalized density number  0.
 Compute integral first derivatives.
 Leave Link  701 at Fri Oct  2 21:28:22 2020, MaxMem=   268435456 cpu:               1.4 elap:               0.2
 (Enter /applis/site/cecic/gaussian16/B.01/nehalem/g16/l702.exe)
 L702 exits ... SP integral derivatives will be done elsewhere.
 Leave Link  702 at Fri Oct  2 21:28:22 2020, MaxMem=   268435456 cpu:               0.5 elap:               0.1
 (Enter /applis/site/cecic/gaussian16/B.01/nehalem/g16/l703.exe)
 Integral derivatives from FoFJK, PRISM(SPDF).
 Compute integral first derivatives, UseDBF=F ICtDFT=           0.
 Calling FoFJK, ICntrl=      2127 FMM=F ISym2X=0 I1Cent= 0 IOpClX= 1 NMat=1 NMatS=1 NMatT=0.
 FoFJK:  IHMeth= 1 ICntrl=    2127 DoSepK=F KAlg= 0 I1Cent=           0 FoldK=F
 IRaf=         0 NMat=       1 IRICut=       1 DoRegI=T DoRafI=F ISym2E= 0 IDoP0=0 IntGTp=1.
 FoFCou: FMM=F IPFlag=           0 FMFlag=      100000 FMFlg1=         800
         NFxFlg=           0 DoJE=F BraDBF=F KetDBF=F FulRan=T
         wScrn=  0.000000 ICntrl=      2127 IOpCl=  1 I1Cent=           0 NGrid=           0
         NMat0=    1 NMatS0=      1 NMatT0=    0 NMatD0=    1 NMtDS0=    0 NMtDT0=    0
 Symmetry not used in FoFCou.
 Leave Link  703 at Fri Oct  2 21:28:22 2020, MaxMem=   268435456 cpu:               5.4 elap:               0.7
 (Enter /applis/site/cecic/gaussian16/B.01/nehalem/g16/l716.exe)
 Dipole        = 4.02583340D-01 2.35658551D-16-5.45411583D-01
 -------------------------------------------------------------------
 Center     Atomic                   Forces (Hartrees/Bohr)
 Number     Number              X              Y              Z
 -------------------------------------------------------------------
      1        6          -0.002499284    0.000000000    0.014544974
      2        8          -0.000956357   -0.000000000   -0.010945537
      3        1           0.003455641    0.000000000   -0.003599437
 -------------------------------------------------------------------
 Cartesian Forces:  Max     0.014544974 RMS     0.006354522
 Leave Link  716 at Fri Oct  2 21:28:23 2020, MaxMem=   268435456 cpu:               0.4 elap:               0.1
 (Enter /applis/site/cecic/gaussian16/B.01/nehalem/g16/l103.exe)

 GradGradGradGradGradGradGradGradGradGradGradGradGradGradGradGradGradGrad
 Berny optimization.
 Using GEDIIS/GDIIS optimizer.
 FormGI is forming the generalized inverse of G from B-inverse, IUseBI=4.
 Internal  Forces:  Max     0.010931412 RMS     0.007053163
 Search for a local minimum.
 Step number   2 out of a maximum of  100
 All quantities printed in internal units (Hartrees-Bohrs-Radians)
 RMS Force = .70532D-02 SwitMx=.10000D-02 MixMth= 1
 Mixed Optimization -- RFO/linear search
 Update second derivatives using D2CorX and points    1    2
 DE= -4.99D-03 DEPred=-4.25D-03 R= 1.18D+00
 TightC=F SS=  1.41D+00  RLast= 1.13D-01 DXNew= 5.0454D-01 3.3963D-01
 Trust test= 1.18D+00 RLast= 1.13D-01 DXMaxT set to 3.40D-01
 The second derivative matrix:
                          R1        R2        A1
           R1           0.87192
           R2           0.04021   0.34154
           A1           0.01849  -0.00617   0.15710
 ITU=  1  0
 Use linear search instead of GDIIS.
     Eigenvalues ---    0.15634   0.33882   0.87541
 RFO step:  Lambda=-1.67382547D-05 EMin= 1.56342102D-01
 Quartic linear search produced a step of  0.16187.
 Iteration  1 RMS(Cart)=  0.01075186 RMS(Int)=  0.00005271
 Iteration  2 RMS(Cart)=  0.00003850 RMS(Int)=  0.00000000
 Iteration  3 RMS(Cart)=  0.00000000 RMS(Int)=  0.00000000
 ITry= 1 IFail=0 DXMaxC= 1.19D-02 DCOld= 1.00D+10 DXMaxT= 3.40D-01 DXLimC= 3.00D+00 Rises=F
 Variable       Old X    -DE/DX   Delta X   Delta X   Delta X     New X
                                 (Linear)    (Quad)   (Total)
    R1        2.21965  -0.01093  -0.01372   0.00152  -0.01220   2.20745
    R2        2.10032   0.00485   0.00827   0.00566   0.01393   2.11425
    A1        2.14957   0.00250   0.00890   0.00447   0.01337   2.16294
         Item               Value     Threshold  Converged?
 Maximum Force            0.010931     0.000450     NO 
 RMS     Force            0.007053     0.000300     NO 
 Maximum Displacement     0.011903     0.001800     NO 
 RMS     Displacement     0.010752     0.001200     NO 
 Predicted change in Energy=-1.332585D-04
 Lowest energy point so far.  Saving SCF results.
 GradGradGradGradGradGradGradGradGradGradGradGradGradGradGradGradGradGrad

 Leave Link  103 at Fri Oct  2 21:28:23 2020, MaxMem=   268435456 cpu:               0.3 elap:               0.1
 (Enter /applis/site/cecic/gaussian16/B.01/nehalem/g16/l202.exe)
                          Input orientation:                          
 ---------------------------------------------------------------------
 Center     Atomic      Atomic             Coordinates (Angstroms)
 Number     Number       Type             X           Y           Z
 ---------------------------------------------------------------------
      1          6           0        0.007183    0.000000    0.038424
      2          8           0       -0.015736    0.000000    1.206332
      3          1           0        0.947583    0.000000   -0.567698
 ---------------------------------------------------------------------
                    Distance matrix (angstroms):
                    1          2          3
     1  C    0.000000
     2  O    1.168133   0.000000
     3  H    1.118810   2.018704   0.000000
 Symmetry turned off by external request.
 Stoichiometry    CHO(2)
 Framework group  CS[SG(CHO)]
 Deg. of freedom     3
 Full point group                 CS      NOp   2
 Rotational constants (GHZ):         715.9714901          45.4822497          42.7655580
 Leave Link  202 at Fri Oct  2 21:28:23 2020, MaxMem=   268435456 cpu:               0.1 elap:               0.0
 (Enter /applis/site/cecic/gaussian16/B.01/nehalem/g16/l301.exe)
 Standard basis: CC-pVTZ (5D, 7F)
 Ernie: Thresh=  0.10000D-02 Tol=  0.10000D-05 Strict=F.
 Ernie:  6 primitive shells out of 60 were deleted.
    74 basis functions,   121 primitive gaussians,    85 cartesian basis functions
     8 alpha electrons        7 beta electrons
       nuclear repulsion energy        26.6795170954 Hartrees.
 IExCor= 4336 DFT=T Ex+Corr=M062X ExCW=0 ScaHFX=  0.540000
 ScaDFX=  1.000000  1.000000  1.000000  1.000000 ScalE2=  1.000000  1.000000
 IRadAn=      5 IRanWt=     -1 IRanGd=            0 ICorTp=0 IEmpDi=  4
 NAtoms=    3 NActive=    3 NUniq=    3 SFac= 1.00D+00 NAtFMM=   60 NAOKFM=F Big=F
 Integral buffers will be    131072 words long.
 Raffenetti 2 integral format.
 Two-electron integral symmetry is turned off.
 Leave Link  301 at Fri Oct  2 21:28:23 2020, MaxMem=   268435456 cpu:               0.5 elap:               0.1
 (Enter /applis/site/cecic/gaussian16/B.01/nehalem/g16/l302.exe)
 NPDir=0 NMtPBC=     1 NCelOv=     1 NCel=       1 NClECP=     1 NCelD=      1
         NCelK=      1 NCelE2=     1 NClLst=     1 CellRange=     0.0.
 One-electron integrals computed using PRISM.
 NBasis=    74 RedAO= T EigKep=  2.55D-03  NBF=    74
 NBsUse=    74 1.00D-06 EigRej= -1.00D+00 NBFU=    74
 Precomputing XC quadrature grid using
 IXCGrd= 4 IRadAn=           5 IRanWt=          -1 IRanGd=           0 AccXCQ= 0.00D+00.
 Generated NRdTot=       0 NPtTot=           0 NUsed=           0 NTot=          32
 NSgBfM=    85    85    85    85    85 MxSgAt=     3 MxSgA2=     3.
 Leave Link  302 at Fri Oct  2 21:28:23 2020, MaxMem=   268435456 cpu:               1.2 elap:               0.2
 (Enter /applis/site/cecic/gaussian16/B.01/nehalem/g16/l303.exe)
 DipDrv:  MaxL=1.
 Leave Link  303 at Fri Oct  2 21:28:23 2020, MaxMem=   268435456 cpu:               0.4 elap:               0.1
 (Enter /applis/site/cecic/gaussian16/B.01/nehalem/g16/l401.exe)
 Initial guess from the checkpoint file:  "input.chk"
 B after Tr=     0.000585    0.000000    0.003473
         Rot=    0.999999    0.000000    0.001260    0.000000 Ang=   0.14 deg.
 Guess basis will be translated and rotated to current coordinates.
 JPrj=2 DoOrth=T DoCkMO=T.
 Initial guess <Sx>= 0.0000 <Sy>= 0.0000 <Sz>= 0.5000 <S**2>= 0.7537 S= 0.5019
 Leave Link  401 at Fri Oct  2 21:28:23 2020, MaxMem=   268435456 cpu:               1.0 elap:               0.2
 (Enter /applis/site/cecic/gaussian16/B.01/nehalem/g16/l502.exe)
 Keep R1 and R2 ints in memory in canonical form, NReq=14989008.
 FoFCou: FMM=F IPFlag=           0 FMFlag=           0 FMFlg1=           0
         NFxFlg=           0 DoJE=F BraDBF=F KetDBF=F FulRan=T
         wScrn=  0.000000 ICntrl=       600 IOpCl=  0 I1Cent=           0 NGrid=           0
         NMat0=    1 NMatS0=   2775 NMatT0=    0 NMatD0=    1 NMtDS0=    0 NMtDT0=    0
 Symmetry not used in FoFCou.
 Two-electron integral symmetry not used.
 UHF open shell SCF:
 Using DIIS extrapolation, IDIIS=  1040.
 NGot=   268435456 LenX=   260716254 LenY=   260708588
 Requested convergence on RMS density matrix=1.00D-08 within 128 cycles.
 Requested convergence on MAX density matrix=1.00D-06.
 Requested convergence on             energy=1.00D-06.
 No special actions if energy rises.

 Cycle   1  Pass 1  IDiag  1:
 E= -113.847204707060    
 DIIS: error= 8.19D-04 at cycle   1 NSaved=   1.
 NSaved= 1 IEnMin= 1 EnMin= -113.847204707060     IErMin= 1 ErrMin= 8.19D-04
 ErrMax= 8.19D-04  0.00D+00 EMaxC= 1.00D-01 BMatC= 2.67D-04 BMatP= 2.67D-04
 IDIUse=3 WtCom= 9.92D-01 WtEn= 8.19D-03
 Coeff-Com:  0.100D+01
 Coeff-En:   0.100D+01
 Coeff:      0.100D+01
 Gap=     1.481 Goal=   None    Shift=    0.000
 Gap=     1.691 Goal=   None    Shift=    0.000
 RMSDP=1.05D-04 MaxDP=2.85D-03              OVMax= 3.23D-03

 Cycle   2  Pass 1  IDiag  1:
 E= -113.847250636568     Delta-E=       -0.000045929508 Rises=F Damp=F
 DIIS: error= 5.70D-04 at cycle   2 NSaved=   2.
 NSaved= 2 IEnMin= 2 EnMin= -113.847250636568     IErMin= 2 ErrMin= 5.70D-04
 ErrMax= 5.70D-04  0.00D+00 EMaxC= 1.00D-01 BMatC= 1.08D-04 BMatP= 2.67D-04
 IDIUse=3 WtCom= 9.94D-01 WtEn= 5.70D-03
 Coeff-Com:  0.342D+00 0.658D+00
 Coeff-En:   0.000D+00 0.100D+01
 Coeff:      0.340D+00 0.660D+00
 Gap=     0.281 Goal=   None    Shift=    0.000
 Gap=     0.428 Goal=   None    Shift=    0.000
 RMSDP=5.97D-05 MaxDP=1.41D-03 DE=-4.59D-05 OVMax= 2.53D-03

 Cycle   3  Pass 1  IDiag  1:
 E= -113.847260635447     Delta-E=       -0.000009998879 Rises=F Damp=F
 DIIS: error= 4.07D-04 at cycle   3 NSaved=   3.
 NSaved= 3 IEnMin= 3 EnMin= -113.847260635447     IErMin= 3 ErrMin= 4.07D-04
 ErrMax= 4.07D-04  0.00D+00 EMaxC= 1.00D-01 BMatC= 5.14D-05 BMatP= 1.08D-04
 IDIUse=3 WtCom= 9.96D-01 WtEn= 4.07D-03
 Coeff-Com:  0.386D-02 0.403D+00 0.593D+00
 Coeff-En:   0.000D+00 0.328D+00 0.672D+00
 Coeff:      0.384D-02 0.403D+00 0.594D+00
 Gap=     0.281 Goal=   None    Shift=    0.000
 Gap=     0.428 Goal=   None    Shift=    0.000
 RMSDP=2.36D-05 MaxDP=6.56D-04 DE=-1.00D-05 OVMax= 1.41D-03

 Cycle   4  Pass 1  IDiag  1:
 E= -113.847269757020     Delta-E=       -0.000009121573 Rises=F Damp=F
 DIIS: error= 1.09D-04 at cycle   4 NSaved=   4.
 NSaved= 4 IEnMin= 4 EnMin= -113.847269757020     IErMin= 4 ErrMin= 1.09D-04
 ErrMax= 1.09D-04  0.00D+00 EMaxC= 1.00D-01 BMatC= 1.37D-06 BMatP= 5.14D-05
 IDIUse=3 WtCom= 9.99D-01 WtEn= 1.09D-03
 Coeff-Com: -0.257D-01 0.514D-01 0.179D+00 0.796D+00
 Coeff-En:   0.000D+00 0.000D+00 0.000D+00 0.100D+01
 Coeff:     -0.257D-01 0.513D-01 0.178D+00 0.796D+00
 Gap=     0.280 Goal=   None    Shift=    0.000
 Gap=     0.428 Goal=   None    Shift=    0.000
 RMSDP=7.30D-06 MaxDP=1.83D-04 DE=-9.12D-06 OVMax= 2.85D-04

 Cycle   5  Pass 1  IDiag  1:
 E= -113.847270170937     Delta-E=       -0.000000413917 Rises=F Damp=F
 DIIS: error= 1.98D-05 at cycle   5 NSaved=   5.
 NSaved= 5 IEnMin= 5 EnMin= -113.847270170937     IErMin= 5 ErrMin= 1.98D-05
 ErrMax= 1.98D-05  0.00D+00 EMaxC= 1.00D-01 BMatC= 7.90D-08 BMatP= 1.37D-06
 IDIUse=1 WtCom= 1.00D+00 WtEn= 0.00D+00
 Coeff-Com:  0.126D-02-0.393D-01-0.535D-01 0.148D-01 0.108D+01
 Coeff:      0.126D-02-0.393D-01-0.535D-01 0.148D-01 0.108D+01
 Gap=     0.280 Goal=   None    Shift=    0.000
 Gap=     0.428 Goal=   None    Shift=    0.000
 RMSDP=6.02D-06 MaxDP=2.04D-04 DE=-4.14D-07 OVMax= 2.35D-04

 Cycle   6  Pass 1  IDiag  1:
 E= -113.847270237783     Delta-E=       -0.000000066847 Rises=F Damp=F
 DIIS: error= 8.11D-06 at cycle   6 NSaved=   6.
 NSaved= 6 IEnMin= 6 EnMin= -113.847270237783     IErMin= 6 ErrMin= 8.11D-06
 ErrMax= 8.11D-06  0.00D+00 EMaxC= 1.00D-01 BMatC= 1.23D-08 BMatP= 7.90D-08
 IDIUse=1 WtCom= 1.00D+00 WtEn= 0.00D+00
 Coeff-Com:  0.238D-02-0.182D-02-0.101D-01-0.116D+00-0.842D-01 0.121D+01
 Coeff:      0.238D-02-0.182D-02-0.101D-01-0.116D+00-0.842D-01 0.121D+01
 Gap=     0.280 Goal=   None    Shift=    0.000
 Gap=     0.428 Goal=   None    Shift=    0.000
 RMSDP=2.14D-06 MaxDP=6.00D-05 DE=-6.68D-08 OVMax= 8.53D-05

 Cycle   7  Pass 1  IDiag  1:
 E= -113.847270249028     Delta-E=       -0.000000011245 Rises=F Damp=F
 DIIS: error= 3.01D-06 at cycle   7 NSaved=   7.
 NSaved= 7 IEnMin= 7 EnMin= -113.847270249028     IErMin= 7 ErrMin= 3.01D-06
 ErrMax= 3.01D-06  0.00D+00 EMaxC= 1.00D-01 BMatC= 9.82D-10 BMatP= 1.23D-08
 IDIUse=1 WtCom= 1.00D+00 WtEn= 0.00D+00
 Coeff-Com: -0.640D-03 0.461D-02 0.877D-02 0.205D-01-0.795D-01-0.261D+00
 Coeff-Com:  0.131D+01
 Coeff:     -0.640D-03 0.461D-02 0.877D-02 0.205D-01-0.795D-01-0.261D+00
 Coeff:      0.131D+01
 Gap=     0.280 Goal=   None    Shift=    0.000
 Gap=     0.428 Goal=   None    Shift=    0.000
 RMSDP=4.80D-07 MaxDP=9.87D-06 DE=-1.12D-08 OVMax= 4.17D-05

 Cycle   8  Pass 1  IDiag  1:
 E= -113.847270250372     Delta-E=       -0.000000001344 Rises=F Damp=F
 DIIS: error= 1.67D-06 at cycle   8 NSaved=   8.
 NSaved= 8 IEnMin= 8 EnMin= -113.847270250372     IErMin= 8 ErrMin= 1.67D-06
 ErrMax= 1.67D-06  0.00D+00 EMaxC= 1.00D-01 BMatC= 2.13D-10 BMatP= 9.82D-10
 IDIUse=1 WtCom= 1.00D+00 WtEn= 0.00D+00
 Coeff-Com: -0.733D-04-0.175D-02-0.904D-03 0.618D-02 0.368D-01-0.455D-01
 Coeff-Com: -0.437D+00 0.144D+01
 Coeff:     -0.733D-04-0.175D-02-0.904D-03 0.618D-02 0.368D-01-0.455D-01
 Coeff:     -0.437D+00 0.144D+01
 Gap=     0.280 Goal=   None    Shift=    0.000
 Gap=     0.428 Goal=   None    Shift=    0.000
 RMSDP=2.31D-07 MaxDP=5.80D-06 DE=-1.34D-09 OVMax= 1.72D-05

 Cycle   9  Pass 1  IDiag  1:
 E= -113.847270250663     Delta-E=       -0.000000000290 Rises=F Damp=F
 DIIS: error= 5.85D-07 at cycle   9 NSaved=   9.
 NSaved= 9 IEnMin= 9 EnMin= -113.847270250663     IErMin= 9 ErrMin= 5.85D-07
 ErrMax= 5.85D-07  0.00D+00 EMaxC= 1.00D-01 BMatC= 3.08D-11 BMatP= 2.13D-10
 IDIUse=1 WtCom= 1.00D+00 WtEn= 0.00D+00
 Coeff-Com:  0.123D-03-0.487D-03-0.136D-02-0.504D-02 0.794D-02 0.559D-01
 Coeff-Com: -0.173D+00-0.272D+00 0.139D+01
 Coeff:      0.123D-03-0.487D-03-0.136D-02-0.504D-02 0.794D-02 0.559D-01
 Coeff:     -0.173D+00-0.272D+00 0.139D+01
 Gap=     0.280 Goal=   None    Shift=    0.000
 Gap=     0.428 Goal=   None    Shift=    0.000
 RMSDP=1.15D-07 MaxDP=3.12D-06 DE=-2.90D-10 OVMax= 8.89D-06

 Cycle  10  Pass 1  IDiag  1:
 E= -113.847270250719     Delta-E=       -0.000000000056 Rises=F Damp=F
 DIIS: error= 1.93D-07 at cycle  10 NSaved=  10.
 NSaved=10 IEnMin=10 EnMin= -113.847270250719     IErMin=10 ErrMin= 1.93D-07
 ErrMax= 1.93D-07  0.00D+00 EMaxC= 1.00D-01 BMatC= 3.41D-12 BMatP= 3.08D-11
 IDIUse=1 WtCom= 1.00D+00 WtEn= 0.00D+00
 Coeff-Com: -0.348D-05 0.356D-03 0.275D-03-0.732D-03-0.685D-02 0.294D-02
 Coeff-Com:  0.809D-01-0.163D+00-0.200D+00 0.129D+01
 Coeff:     -0.348D-05 0.356D-03 0.275D-03-0.732D-03-0.685D-02 0.294D-02
 Coeff:      0.809D-01-0.163D+00-0.200D+00 0.129D+01
 Gap=     0.280 Goal=   None    Shift=    0.000
 Gap=     0.428 Goal=   None    Shift=    0.000
 RMSDP=3.27D-08 MaxDP=7.03D-07 DE=-5.62D-11 OVMax= 2.88D-06

 Cycle  11  Pass 1  IDiag  1:
 E= -113.847270250724     Delta-E=       -0.000000000005 Rises=F Damp=F
 DIIS: error= 7.03D-08 at cycle  11 NSaved=  11.
 NSaved=11 IEnMin=11 EnMin= -113.847270250724     IErMin=11 ErrMin= 7.03D-08
 ErrMax= 7.03D-08  0.00D+00 EMaxC= 1.00D-01 BMatC= 3.04D-13 BMatP= 3.41D-12
 IDIUse=1 WtCom= 1.00D+00 WtEn= 0.00D+00
 Coeff-Com: -0.746D-05-0.529D-04 0.435D-04 0.606D-03 0.105D-02-0.535D-02
 Coeff-Com: -0.696D-02 0.678D-01-0.950D-01-0.275D+00 0.131D+01
 Coeff:     -0.746D-05-0.529D-04 0.435D-04 0.606D-03 0.105D-02-0.535D-02
 Coeff:     -0.696D-02 0.678D-01-0.950D-01-0.275D+00 0.131D+01
 Gap=     0.280 Goal=   None    Shift=    0.000
 Gap=     0.428 Goal=   None    Shift=    0.000
 RMSDP=1.00D-08 MaxDP=2.05D-07 DE=-5.17D-12 OVMax= 8.11D-07

 Cycle  12  Pass 1  IDiag  1:
 E= -113.847270250724     Delta-E=       -0.000000000000 Rises=F Damp=F
 DIIS: error= 2.28D-08 at cycle  12 NSaved=  12.
 NSaved=12 IEnMin=12 EnMin= -113.847270250724     IErMin=12 ErrMin= 2.28D-08
 ErrMax= 2.28D-08  0.00D+00 EMaxC= 1.00D-01 BMatC= 4.15D-14 BMatP= 3.04D-13
 IDIUse=1 WtCom= 1.00D+00 WtEn= 0.00D+00
 Coeff-Com:  0.268D-05-0.386D-04-0.609D-04-0.252D-04 0.773D-03 0.913D-03
 Coeff-Com: -0.992D-02 0.722D-02 0.562D-01-0.121D+00-0.263D+00 0.133D+01
 Coeff:      0.268D-05-0.386D-04-0.609D-04-0.252D-04 0.773D-03 0.913D-03
 Coeff:     -0.992D-02 0.722D-02 0.562D-01-0.121D+00-0.263D+00 0.133D+01
 Gap=     0.280 Goal=   None    Shift=    0.000
 Gap=     0.428 Goal=   None    Shift=    0.000
 RMSDP=3.30D-09 MaxDP=9.12D-08 DE=-1.42D-13 OVMax= 2.78D-07

 SCF Done:  E(UM062X) =  -113.847270251     A.U. after   12 cycles
            NFock= 12  Conv=0.33D-08     -V/T= 2.0049
 <Sx>= 0.0000 <Sy>= 0.0000 <Sz>= 0.5000 <S**2>= 0.7537 S= 0.5018
 <L.S>= 0.000000000000E+00
 KE= 1.132936913098D+02 PE=-3.207018772296D+02 EE= 6.688139857361D+01
 Annihilation of the first spin contaminant:
 S**2 before annihilation     0.7537,   after     0.7500
 Leave Link  502 at Fri Oct  2 21:28:27 2020, MaxMem=   268435456 cpu:              23.9 elap:               3.2
 (Enter /applis/site/cecic/gaussian16/B.01/nehalem/g16/l701.exe)
 ... and contract with generalized density number  0.
 Compute integral first derivatives.
 Leave Link  701 at Fri Oct  2 21:28:27 2020, MaxMem=   268435456 cpu:               1.2 elap:               0.2
 (Enter /applis/site/cecic/gaussian16/B.01/nehalem/g16/l702.exe)
 L702 exits ... SP integral derivatives will be done elsewhere.
 Leave Link  702 at Fri Oct  2 21:28:27 2020, MaxMem=   268435456 cpu:               0.3 elap:               0.1
 (Enter /applis/site/cecic/gaussian16/B.01/nehalem/g16/l703.exe)
 Integral derivatives from FoFJK, PRISM(SPDF).
 Compute integral first derivatives, UseDBF=F ICtDFT=           0.
 Calling FoFJK, ICntrl=      2127 FMM=F ISym2X=0 I1Cent= 0 IOpClX= 1 NMat=1 NMatS=1 NMatT=0.
 FoFJK:  IHMeth= 1 ICntrl=    2127 DoSepK=F KAlg= 0 I1Cent=           0 FoldK=F
 IRaf=         0 NMat=       1 IRICut=       1 DoRegI=T DoRafI=F ISym2E= 0 IDoP0=0 IntGTp=1.
 FoFCou: FMM=F IPFlag=           0 FMFlag=      100000 FMFlg1=         800
         NFxFlg=           0 DoJE=F BraDBF=F KetDBF=F FulRan=T
         wScrn=  0.000000 ICntrl=      2127 IOpCl=  1 I1Cent=           0 NGrid=           0
         NMat0=    1 NMatS0=      1 NMatT0=    0 NMatD0=    1 NMtDS0=    0 NMtDT0=    0
 Symmetry not used in FoFCou.
 Leave Link  703 at Fri Oct  2 21:28:28 2020, MaxMem=   268435456 cpu:               5.6 elap:               0.7
 (Enter /applis/site/cecic/gaussian16/B.01/nehalem/g16/l716.exe)
 Dipole        = 3.99258604D-01-1.21818486D-15-5.37078172D-01
 -------------------------------------------------------------------
 Center     Atomic                   Forces (Hartrees/Bohr)
 Number     Number              X              Y              Z
 -------------------------------------------------------------------
      1        6          -0.000782603   -0.000000000    0.000198228
      2        8          -0.000186684    0.000000000    0.000652117
      3        1           0.000969288   -0.000000000   -0.000850344
 -------------------------------------------------------------------
 Cartesian Forces:  Max     0.000969288 RMS     0.000555225
 Leave Link  716 at Fri Oct  2 21:28:28 2020, MaxMem=   268435456 cpu:               0.6 elap:               0.1
 (Enter /applis/site/cecic/gaussian16/B.01/nehalem/g16/l103.exe)

 GradGradGradGradGradGradGradGradGradGradGradGradGradGradGradGradGradGrad
 Berny optimization.
 Using GEDIIS/GDIIS optimizer.
 FormGI is forming the generalized inverse of G from B-inverse, IUseBI=4.
 Internal  Forces:  Max     0.001276714 RMS     0.000858758
 Search for a local minimum.
 Step number   3 out of a maximum of  100
 All quantities printed in internal units (Hartrees-Bohrs-Radians)
 RMS Force = .85876D-03 SwitMx=.10000D-02 MixMth= 2
 Mixed Optimization -- En-DIIS/RFO-DIIS
 Update second derivatives using D2CorX and points    1    2    3
 DE= -1.25D-04 DEPred=-1.33D-04 R= 9.38D-01
 TightC=F SS=  1.41D+00  RLast= 2.28D-02 DXNew= 5.7119D-01 6.8520D-02
 Trust test= 9.38D-01 RLast= 2.28D-02 DXMaxT set to 3.40D-01
 The second derivative matrix:
                          R1        R2        A1
           R1           1.00838
           R2           0.05732   0.31491
           A1          -0.00599  -0.00875   0.16143
 ITU=  1  1  0
 Use linear search instead of GDIIS.
     Eigenvalues ---    0.16092   0.31065   1.01314
 RFO step:  Lambda=-5.44514867D-06 EMin= 1.60924729D-01
 Quartic linear search produced a step of  0.06805.
 Iteration  1 RMS(Cart)=  0.00293811 RMS(Int)=  0.00000259
 Iteration  2 RMS(Cart)=  0.00000209 RMS(Int)=  0.00000000
 Iteration  3 RMS(Cart)=  0.00000000 RMS(Int)=  0.00000000
 ITry= 1 IFail=0 DXMaxC= 3.54D-03 DCOld= 1.00D+10 DXMaxT= 3.40D-01 DXLimC= 3.00D+00 Rises=F
 Variable       Old X    -DE/DX   Delta X   Delta X   Delta X     New X
                                 (Linear)    (Quad)   (Total)
    R1        2.20745   0.00065  -0.00083   0.00127   0.00044   2.20789
    R2        2.11425   0.00128   0.00095   0.00309   0.00404   2.11828
    A1        2.16294   0.00039   0.00091   0.00174   0.00265   2.16559
         Item               Value     Threshold  Converged?
 Maximum Force            0.001277     0.000450     NO 
 RMS     Force            0.000859     0.000300     NO 
 Maximum Displacement     0.003540     0.001800     NO 
 RMS     Displacement     0.002939     0.001200     NO 
 Predicted change in Energy=-3.250766D-06
 Lowest energy point so far.  Saving SCF results.
 GradGradGradGradGradGradGradGradGradGradGradGradGradGradGradGradGradGrad

 Leave Link  103 at Fri Oct  2 21:28:28 2020, MaxMem=   268435456 cpu:               0.4 elap:               0.1
 (Enter /applis/site/cecic/gaussian16/B.01/nehalem/g16/l202.exe)
                          Input orientation:                          
 ---------------------------------------------------------------------
 Center     Atomic      Atomic             Coordinates (Angstroms)
 Number     Number       Type             X           Y           Z
 ---------------------------------------------------------------------
      1          6           0        0.007309   -0.000000    0.039256
      2          8           0       -0.016785   -0.000000    1.207373
      3          1           0        0.948506    0.000000   -0.569571
 ---------------------------------------------------------------------
                    Distance matrix (angstroms):
                    1          2          3
     1  C    0.000000
     2  O    1.168365   0.000000
     3  H    1.120947   2.022206   0.000000
 Symmetry turned off by external request.
 Stoichiometry    CHO(2)
 Framework group  CS[SG(CHO)]
 Deg. of freedom     3
 Full point group                 CS      NOp   2
 Rotational constants (GHZ):         716.4064619          45.4255303          42.7169556
 Leave Link  202 at Fri Oct  2 21:28:28 2020, MaxMem=   268435456 cpu:               0.6 elap:               0.1
 (Enter /applis/site/cecic/gaussian16/B.01/nehalem/g16/l301.exe)
 Standard basis: CC-pVTZ (5D, 7F)
 Ernie: Thresh=  0.10000D-02 Tol=  0.10000D-05 Strict=F.
 Ernie:  6 primitive shells out of 60 were deleted.
    74 basis functions,   121 primitive gaussians,    85 cartesian basis functions
     8 alpha electrons        7 beta electrons
       nuclear repulsion energy        26.6661620875 Hartrees.
 IExCor= 4336 DFT=T Ex+Corr=M062X ExCW=0 ScaHFX=  0.540000
 ScaDFX=  1.000000  1.000000  1.000000  1.000000 ScalE2=  1.000000  1.000000
 IRadAn=      5 IRanWt=     -1 IRanGd=            0 ICorTp=0 IEmpDi=  4
 NAtoms=    3 NActive=    3 NUniq=    3 SFac= 1.00D+00 NAtFMM=   60 NAOKFM=F Big=F
 Integral buffers will be    131072 words long.
 Raffenetti 2 integral format.
 Two-electron integral symmetry is turned off.
 Leave Link  301 at Fri Oct  2 21:28:28 2020, MaxMem=   268435456 cpu:               0.7 elap:               0.1
 (Enter /applis/site/cecic/gaussian16/B.01/nehalem/g16/l302.exe)
 NPDir=0 NMtPBC=     1 NCelOv=     1 NCel=       1 NClECP=     1 NCelD=      1
         NCelK=      1 NCelE2=     1 NClLst=     1 CellRange=     0.0.
 One-electron integrals computed using PRISM.
 NBasis=    74 RedAO= T EigKep=  2.57D-03  NBF=    74
 NBsUse=    74 1.00D-06 EigRej= -1.00D+00 NBFU=    74
 Precomputing XC quadrature grid using
 IXCGrd= 4 IRadAn=           5 IRanWt=          -1 IRanGd=           0 AccXCQ= 0.00D+00.
 Generated NRdTot=       0 NPtTot=           0 NUsed=           0 NTot=          32
 NSgBfM=    85    85    85    85    85 MxSgAt=     3 MxSgA2=     3.
 Leave Link  302 at Fri Oct  2 21:28:28 2020, MaxMem=   268435456 cpu:               1.4 elap:               0.2
 (Enter /applis/site/cecic/gaussian16/B.01/nehalem/g16/l303.exe)
 DipDrv:  MaxL=1.
 Leave Link  303 at Fri Oct  2 21:28:29 2020, MaxMem=   268435456 cpu:               0.5 elap:               0.1
 (Enter /applis/site/cecic/gaussian16/B.01/nehalem/g16/l401.exe)
 Initial guess from the checkpoint file:  "input.chk"
 B after Tr=    -0.000192    0.000000    0.001382
         Rot=    1.000000   -0.000000    0.000279   -0.000000 Ang=   0.03 deg.
 Guess basis will be translated and rotated to current coordinates.
 JPrj=2 DoOrth=T DoCkMO=T.
 Initial guess <Sx>= 0.0000 <Sy>= 0.0000 <Sz>= 0.5000 <S**2>= 0.7537 S= 0.5018
 Leave Link  401 at Fri Oct  2 21:28:29 2020, MaxMem=   268435456 cpu:               1.2 elap:               0.2
 (Enter /applis/site/cecic/gaussian16/B.01/nehalem/g16/l502.exe)
 Keep R1 and R2 ints in memory in canonical form, NReq=14989008.
 FoFCou: FMM=F IPFlag=           0 FMFlag=           0 FMFlg1=           0
         NFxFlg=           0 DoJE=F BraDBF=F KetDBF=F FulRan=T
         wScrn=  0.000000 ICntrl=       600 IOpCl=  0 I1Cent=           0 NGrid=           0
         NMat0=    1 NMatS0=   2775 NMatT0=    0 NMatD0=    1 NMtDS0=    0 NMtDT0=    0
 Symmetry not used in FoFCou.
 Two-electron integral symmetry not used.
 UHF open shell SCF:
 Using DIIS extrapolation, IDIIS=  1040.
 NGot=   268435456 LenX=   260716254 LenY=   260708588
 Requested convergence on RMS density matrix=1.00D-08 within 128 cycles.
 Requested convergence on MAX density matrix=1.00D-06.
 Requested convergence on             energy=1.00D-06.
 No special actions if energy rises.

 Cycle   1  Pass 1  IDiag  1:
 E= -113.847272153906    
 DIIS: error= 1.33D-04 at cycle   1 NSaved=   1.
 NSaved= 1 IEnMin= 1 EnMin= -113.847272153906     IErMin= 1 ErrMin= 1.33D-04
 ErrMax= 1.33D-04  0.00D+00 EMaxC= 1.00D-01 BMatC= 5.99D-06 BMatP= 5.99D-06
 IDIUse=3 WtCom= 9.99D-01 WtEn= 1.33D-03
 Coeff-Com:  0.100D+01
 Coeff-En:   0.100D+01
 Coeff:      0.100D+01
 Gap=     1.483 Goal=   None    Shift=    0.000
 Gap=     1.689 Goal=   None    Shift=    0.000
 RMSDP=1.60D-05 MaxDP=3.45D-04              OVMax= 5.43D-04

 Cycle   2  Pass 1  IDiag  1:
 E= -113.847273271648     Delta-E=       -0.000001117741 Rises=F Damp=F
 DIIS: error= 7.01D-05 at cycle   2 NSaved=   2.
 NSaved= 2 IEnMin= 2 EnMin= -113.847273271648     IErMin= 2 ErrMin= 7.01D-05
 ErrMax= 7.01D-05  0.00D+00 EMaxC= 1.00D-01 BMatC= 1.12D-06 BMatP= 5.99D-06
 IDIUse=1 WtCom= 1.00D+00 WtEn= 0.00D+00
 Coeff-Com:  0.194D+00 0.806D+00
 Coeff:      0.194D+00 0.806D+00
 Gap=     0.280 Goal=   None    Shift=    0.000
 Gap=     0.428 Goal=   None    Shift=    0.000
 RMSDP=6.79D-06 MaxDP=9.77D-05 DE=-1.12D-06 OVMax= 3.61D-04

 Cycle   3  Pass 1  IDiag  1:
 E= -113.847273272729     Delta-E=       -0.000000001081 Rises=F Damp=F
 DIIS: error= 7.26D-05 at cycle   3 NSaved=   3.
 NSaved= 3 IEnMin= 3 EnMin= -113.847273272729     IErMin= 2 ErrMin= 7.01D-05
 ErrMax= 7.26D-05  0.00D+00 EMaxC= 1.00D-01 BMatC= 1.35D-06 BMatP= 1.12D-06
 IDIUse=1 WtCom= 1.00D+00 WtEn= 0.00D+00
 Coeff-Com: -0.209D-02 0.526D+00 0.476D+00
 Coeff:     -0.209D-02 0.526D+00 0.476D+00
 Gap=     0.280 Goal=   None    Shift=    0.000
 Gap=     0.428 Goal=   None    Shift=    0.000
 RMSDP=3.13D-06 MaxDP=5.91D-05 DE=-1.08D-09 OVMax= 2.13D-04

 Cycle   4  Pass 1  IDiag  1:
 E= -113.847273514067     Delta-E=       -0.000000241338 Rises=F Damp=F
 DIIS: error= 6.25D-06 at cycle   4 NSaved=   4.
 NSaved= 4 IEnMin= 4 EnMin= -113.847273514067     IErMin= 4 ErrMin= 6.25D-06
 ErrMax= 6.25D-06  0.00D+00 EMaxC= 1.00D-01 BMatC= 1.01D-08 BMatP= 1.12D-06
 IDIUse=1 WtCom= 1.00D+00 WtEn= 0.00D+00
 Coeff-Com: -0.124D-01 0.262D-01 0.693D-01 0.917D+00
 Coeff:     -0.124D-01 0.262D-01 0.693D-01 0.917D+00
 Gap=     0.280 Goal=   None    Shift=    0.000
 Gap=     0.428 Goal=   None    Shift=    0.000
 RMSDP=1.23D-06 MaxDP=3.77D-05 DE=-2.41D-07 OVMax= 5.79D-05

 Cycle   5  Pass 1  IDiag  1:
 E= -113.847273519260     Delta-E=       -0.000000005194 Rises=F Damp=F
 DIIS: error= 3.60D-06 at cycle   5 NSaved=   5.
 NSaved= 5 IEnMin= 5 EnMin= -113.847273519260     IErMin= 5 ErrMin= 3.60D-06
 ErrMax= 3.60D-06  0.00D+00 EMaxC= 1.00D-01 BMatC= 1.86D-09 BMatP= 1.01D-08
 IDIUse=1 WtCom= 1.00D+00 WtEn= 0.00D+00
 Coeff-Com: -0.709D-04-0.570D-01-0.313D-01 0.620D-02 0.108D+01
 Coeff:     -0.709D-04-0.570D-01-0.313D-01 0.620D-02 0.108D+01
 Gap=     0.280 Goal=   None    Shift=    0.000
 Gap=     0.428 Goal=   None    Shift=    0.000
 RMSDP=6.59D-07 MaxDP=1.68D-05 DE=-5.19D-09 OVMax= 2.82D-05

 Cycle   6  Pass 1  IDiag  1:
 E= -113.847273520610     Delta-E=       -0.000000001349 Rises=F Damp=F
 DIIS: error= 1.18D-06 at cycle   6 NSaved=   6.
 NSaved= 6 IEnMin= 6 EnMin= -113.847273520610     IErMin= 6 ErrMin= 1.18D-06
 ErrMax= 1.18D-06  0.00D+00 EMaxC= 1.00D-01 BMatC= 2.60D-10 BMatP= 1.86D-09
 IDIUse=1 WtCom= 1.00D+00 WtEn= 0.00D+00
 Coeff-Com:  0.180D-02-0.792D-02-0.671D-02-0.139D+00 0.924D-01 0.106D+01
 Coeff:      0.180D-02-0.792D-02-0.671D-02-0.139D+00 0.924D-01 0.106D+01
 Gap=     0.280 Goal=   None    Shift=    0.000
 Gap=     0.428 Goal=   None    Shift=    0.000
 RMSDP=3.04D-07 MaxDP=8.53D-06 DE=-1.35D-09 OVMax= 1.49D-05

 Cycle   7  Pass 1  IDiag  1:
 E= -113.847273520852     Delta-E=       -0.000000000242 Rises=F Damp=F
 DIIS: error= 6.75D-07 at cycle   7 NSaved=   7.
 NSaved= 7 IEnMin= 7 EnMin= -113.847273520852     IErMin= 7 ErrMin= 6.75D-07
 ErrMax= 6.75D-07  0.00D+00 EMaxC= 1.00D-01 BMatC= 4.10D-11 BMatP= 2.60D-10
 IDIUse=1 WtCom= 1.00D+00 WtEn= 0.00D+00
[...]
 <Sx>= 0.0000 <Sy>= 0.0000 <Sz>= 0.5000 <S**2>= 0.7500 S= 0.5000
 <L.S>= 0.000000000000E+00
 KE= 1.131244684310D+02 PE=-3.204394072834D+02 EE= 6.735918099263D+01
 Annihilation of the first spin contaminant:
 S**2 before annihilation     0.7500,   after     0.7500
 Leave Link  502 at Fri Oct  2 21:28:52 2020, MaxMem=   327680000 cpu:              11.9 elap:               1.8
 (Enter /applis/site/cecic/gaussian16/B.01/nehalem/g16/l801.exe)
 Windowed orbitals will be sorted by symmetry type.
 An orbital has undefined symmetry, so N**3 symmetry is turned off.
 GenMOA:  NOpAll=  2 NOp2=2 NOpUse=  2 JSym2X=1
 FoFJK:  IHMeth= 1 ICntrl=       0 DoSepK=F KAlg= 0 I1Cent=           0 FoldK=F
 IRaf=         0 NMat=       1 IRICut=       1 DoRegI=T DoRafI=F ISym2E= 1 IDoP0=0 IntGTp=1.
 FoFCou: FMM=F IPFlag=           0 FMFlag=      100000 FMFlg1=           0
         NFxFlg=           0 DoJE=F BraDBF=F KetDBF=F FulRan=T
         wScrn=  0.000000 ICntrl=         0 IOpCl=  1 I1Cent=           0 NGrid=           0
         NMat0=    1 NMatS0=      1 NMatT0=    0 NMatD0=    1 NMtDS0=    0 NMtDT0=    0
 Petite list used in FoFCou.
 <Sx>= 0.0000 <Sy>= 0.0000 <Sz>= 0.5000 <S**2>= 0.7500 S= 0.5000
 ExpMin= 2.53D-02 ExpMax= 1.53D+04 ExpMxC= 5.22D+02 IAcc=3 IRadAn=         5 AccDes= 0.00D+00
 HarFok:  IExCor=  205 AccDes= 0.00D+00 IRadAn=         5 IDoV=-2 UseB2=F ITyADJ=14
 ICtDFT= 12500011 ScaDFX=  1.000000  1.000000  1.000000  1.000000
 Largest valence mixing into a core orbital is  1.97D-04
 Largest core mixing into a valence orbital is  2.85D-05
 Largest valence mixing into a core orbital is  2.13D-04
 Largest core mixing into a valence orbital is  3.20D-05
 Range of M.O.s used for correlation:     3   115
 NBasis=   115 NAE=     8 NBE=     7 NFC=     2 NFV=     0
 NROrb=    113 NOA=     6 NOB=     5 NVA=   107 NVB=   108

 **** Warning!!: The largest alpha MO coefficient is  0.20744815D+02


 **** Warning!!: The largest beta MO coefficient is  0.19500389D+02

 Singles contribution to E2=   -0.3192742539D-02
 Leave Link  801 at Fri Oct  2 21:28:53 2020, MaxMem=   327680000 cpu:               4.1 elap:               0.6
 (Enter /applis/site/cecic/gaussian16/B.01/nehalem/g16/l804.exe)
 Open-shell transformation, MDV=   327680000 ITran=4 ISComp=1.
 Unit  1 TFree=        399947 TCopy=        488440.
 Semi-Direct transformation.
 ModeAB=           2 MOrb=             6 LenV=     327126169
 LASXX=      4147761 LTotXX=     4147761 LenRXX=     4147761
 LTotAB=     4270383 MaxLAS=     6224040 LenRXY=     6224040
 NonZer=     8295522 LenScr=    12976128 LnRSAI=           0
 LnScr1=           0 LExtra=           0 Total=     23347929
 MaxDsk=          -1 SrtSym=           F ITran=            4
 DoSDTr:  NPSUse=  8
 JobTyp=1 Pass  1:  I=   1 to   6.
 (rs|ai) integrals will be sorted in core.
 Complete sort for first half transformation.
 First half transformation complete.
 Complete sort for second half transformation.
 Second half transformation complete.
 ModeAB=           2 MOrb=             5 LenV=     327126169
 LASXX=      3474955 LTotXX=     3474955 LenRXX=     5186700
 LTotAB=     3206790 MaxLAS=     5186700 LenRXY=     3206790
 NonZer=     6949910 LenScr=    10813440 LnRSAI=           0
 LnScr1=           0 LExtra=           0 Total=     19206930
 MaxDsk=          -1 SrtSym=           F ITran=            4
 DoSDTr:  NPSUse=  8
 JobTyp=2 Pass  1:  I=   1 to   5.
 (rs|ai) integrals will be sorted in core.
 Complete sort for first half transformation.
 First half transformation complete.
 Complete sort for second half transformation.
 Second half transformation complete.
 SymMOI:  orbitals are not symmetric.
 Spin components of T(2) and E(2):
     alpha-alpha T2 =       0.1354473456D-01 E2=     -0.4912651794D-01
     alpha-beta  T2 =       0.7903464620D-01 E2=     -0.2815192533D+00
     beta-beta   T2 =       0.1477527904D-01 E2=     -0.4634344676D-01
 ANorm=    0.1053316518D+01
 E2 =    -0.3801819606D+00 EUMP2 =    -0.11366977773284D+03
 (S**2,0)=  0.75000D+00           (S**2,1)=  0.75000D+00
 E(PUHF)=      -0.11328959577D+03        E(PMP2)=      -0.11366977773D+03
 Leave Link  804 at Fri Oct  2 21:28:57 2020, MaxMem=   327680000 cpu:              35.6 elap:               4.6
 (Enter /applis/site/cecic/gaussian16/B.01/nehalem/g16/l913.exe)
 CIDS:  MDV=   327680000.
 Frozen-core window:  NFC=   2 NFV=   0.
 IFCWin=0 IBDFC=1 NFBD=     0     0 NFCmp=     0     0 NFFFC=     0     0
 Using original routines for 1st iteration.
 Using DD4UQ or CC4UQ for 2nd and later iterations.
 Keep R2 and R3 ints in memory in symmetry-blocked form, NReq=33811616.
 FoFCou: FMM=F IPFlag=           0 FMFlag=           0 FMFlg1=           0
         NFxFlg=           0 DoJE=F BraDBF=F KetDBF=F FulRan=T
         wScrn=  0.000000 ICntrl=       600 IOpCl=  0 I1Cent=           0 NGrid=           0
         NMat0=    1 NMatS0=   6670 NMatT0=    0 NMatD0=    1 NMtDS0=    0 NMtDT0=    0
 Petite list used in FoFCou.
 CIDS: In Core Option IDoMem=           1.
 CCSD(T)
 =======
 Iterations=  50 Convergence= 0.100D-06
 Produce multiple copies of IABC intergrals
 Iteration Nr.   1
 **********************
 DD1Dir will call FoFMem   1 times, MxPair=        86
 NAB=    30 NAA=    15 NBB=    10.
 DD1Dir will call FoFMem   1 times, MxPair=        86
 NAB=    30 NAA=    15 NBB=    10.
 MP4(R+Q)=  0.57204519D-02
 Maximum subspace dimension=  5
 A-vector RMS=  2.9117224D-04 Max=  3.5230524D-03 conv= 1.00D-05.
 RLE energy=       -0.3720345300
 E3=        0.25090617D-02        EROMP3=      -0.11366726867D+03
 E4(SDQ)=  -0.89217625D-02        ROMP4(SDQ)=  -0.11367619043D+03
 VARIATIONAL ENERGIES WITH THE FIRST-ORDER WAVEFUNCTION:
 DE(Corr)= -0.37185291     E(Corr)=     -113.66144868    
 NORM(A)=   0.10502502D+01
 Iteration Nr.   2
 **********************
 DD1Dir will call FoFMem   1 times, MxPair=        86
 NAB=    30 NAA=    15 NBB=    10.
 A-vector RMS=  4.7068795D-03 Max=  3.1860951D-02 conv= 1.00D-05.
 RLE energy=       -0.3713620620
 DE(Corr)= -0.36887724     E(CORR)=     -113.65847302     Delta= 2.98D-03
 NORM(A)=   0.10500532D+01
 Iteration Nr.   3
 **********************
 DD1Dir will call FoFMem   1 times, MxPair=        86
 NAB=    30 NAA=    15 NBB=    10.
 A-vector RMS=  3.5518458D-03 Max=  2.5311716D-02 conv= 1.00D-05.
 RLE energy=       -0.3769526405
 DE(Corr)= -0.37228788     E(CORR)=     -113.66188365     Delta=-3.41D-03
 NORM(A)=   0.10530395D+01
 Iteration Nr.   4
 **********************
 DD1Dir will call FoFMem   1 times, MxPair=        86
 NAB=    30 NAA=    15 NBB=    10.
 A-vector RMS=  2.9428135D-03 Max=  2.1491582D-02 conv= 1.00D-05.
 RLE energy=       -0.3875532311
 DE(Corr)= -0.37531104     E(CORR)=     -113.66490681     Delta=-3.02D-03
 NORM(A)=   0.10687971D+01
 Iteration Nr.   5
 **********************
 DD1Dir will call FoFMem   1 times, MxPair=        86
 NAB=    30 NAA=    15 NBB=    10.
 A-vector RMS=  1.4086563D-03 Max=  9.3374748D-03 conv= 1.00D-05.
 RLE energy=       -0.3845147359
 DE(Corr)= -0.38883929     E(CORR)=     -113.67843506     Delta=-1.35D-02
 NORM(A)=   0.10635427D+01
 Iteration Nr.   6
 **********************
 DD1Dir will call FoFMem   1 times, MxPair=        86
 NAB=    30 NAA=    15 NBB=    10.
 A-vector RMS=  2.4106993D-04 Max=  2.5630960D-03 conv= 1.00D-05.
 RLE energy=       -0.3847319999
 DE(Corr)= -0.38434413     E(CORR)=     -113.67393991     Delta= 4.50D-03
 NORM(A)=   0.10644871D+01
 Iteration Nr.   7
 **********************
 DD1Dir will call FoFMem   1 times, MxPair=        86
 NAB=    30 NAA=    15 NBB=    10.
 A-vector RMS=  7.1774451D-05 Max=  5.3781170D-04 conv= 1.00D-05.
 RLE energy=       -0.3847015357
 DE(Corr)= -0.38471399     E(CORR)=     -113.67430976     Delta=-3.70D-04
 NORM(A)=   0.10646137D+01
 Iteration Nr.   8
 **********************
 DD1Dir will call FoFMem   1 times, MxPair=        86
 NAB=    30 NAA=    15 NBB=    10.
 A-vector RMS=  3.1919389D-05 Max=  2.5385173D-04 conv= 1.00D-05.
 RLE energy=       -0.3847236289
 DE(Corr)= -0.38473433     E(CORR)=     -113.67433010     Delta=-2.03D-05
 NORM(A)=   0.10646223D+01
 Iteration Nr.   9
 **********************
 DD1Dir will call FoFMem   1 times, MxPair=        86
 NAB=    30 NAA=    15 NBB=    10.
 A-vector RMS=  1.4272722D-05 Max=  8.2951368D-05 conv= 1.00D-05.
 RLE energy=       -0.3847238293
 DE(Corr)= -0.38471378     E(CORR)=     -113.67430955     Delta= 2.05D-05
 NORM(A)=   0.10646356D+01
 Iteration Nr.  10
 **********************
 DD1Dir will call FoFMem   1 times, MxPair=        86
 NAB=    30 NAA=    15 NBB=    10.
 A-vector RMS=  5.1983717D-06 Max=  5.4963757D-05 conv= 1.00D-05.
 RLE energy=       -0.3847188305
 DE(Corr)= -0.38472259     E(CORR)=     -113.67431836     Delta=-8.81D-06
 NORM(A)=   0.10646281D+01
 Iteration Nr.  11
 **********************
 DD1Dir will call FoFMem   1 times, MxPair=        86
 NAB=    30 NAA=    15 NBB=    10.
 A-vector RMS=  2.3815734D-06 Max=  1.5853915D-05 conv= 1.00D-05.
 RLE energy=       -0.3847214665
 DE(Corr)= -0.38472059     E(CORR)=     -113.67431636     Delta= 2.00D-06
 NORM(A)=   0.10646302D+01
 Iteration Nr.  12
 **********************
 DD1Dir will call FoFMem   1 times, MxPair=        86
 NAB=    30 NAA=    15 NBB=    10.
 A-vector RMS=  8.2993034D-07 Max=  4.5448420D-06 conv= 1.00D-05.
 RLE energy=       -0.3847218081
 DE(Corr)= -0.38472162     E(CORR)=     -113.67431739     Delta=-1.03D-06
 NORM(A)=   0.10646311D+01
 Iteration Nr.  13
 **********************
 DD1Dir will call FoFMem   1 times, MxPair=        86
 NAB=    30 NAA=    15 NBB=    10.
 A-vector RMS=  5.5153816D-07 Max=  5.0865897D-06 conv= 1.00D-05.
 RLE energy=       -0.3847220994
 DE(Corr)= -0.38472186     E(CORR)=     -113.67431763     Delta=-2.42D-07
 NORM(A)=   0.10646324D+01
 Iteration Nr.  14
 **********************
 DD1Dir will call FoFMem   1 times, MxPair=        86
 NAB=    30 NAA=    15 NBB=    10.
 A-vector RMS=  3.1118754D-07 Max=  2.5356520D-06 conv= 1.00D-05.
 RLE energy=       -0.3847222914
 DE(Corr)= -0.38472219     E(CORR)=     -113.67431796     Delta=-3.27D-07
 NORM(A)=   0.10646332D+01
 Iteration Nr.  15
 **********************
 DD1Dir will call FoFMem   1 times, MxPair=        86
 NAB=    30 NAA=    15 NBB=    10.
 A-vector RMS=  1.6525787D-07 Max=  1.4282573D-06 conv= 1.00D-05.
 RLE energy=       -0.3847223470
 DE(Corr)= -0.38472229     E(CORR)=     -113.67431806     Delta=-1.05D-07
 NORM(A)=   0.10646335D+01
 Iteration Nr.  16
 **********************
 DD1Dir will call FoFMem   1 times, MxPair=        86
 NAB=    30 NAA=    15 NBB=    10.
 A-vector RMS=  9.3816574D-08 Max=  8.9529688D-07 conv= 1.00D-05.
 RLE energy=       -0.3847223277
 DE(Corr)= -0.38472232     E(CORR)=     -113.67431809     Delta=-2.69D-08
 NORM(A)=   0.10646337D+01
 CI/CC converged in   16 iterations to DelEn=-2.69D-08 Conv= 1.00D-07 ErrA1= 9.38D-08 Conv= 1.00D-05
 Wavefunction amplitudes converged. E(Corr)=     -113.67431809    
 Largest amplitude= 7.12D-02
 Time for triples=      329.17 seconds.
 T4(CCSD)= -0.19493679D-01
 T5(CCSD)=  0.15994974D-02
 CCSD(T)= -0.11369221227D+03
 Discarding MO integrals.
 Leave Link  913 at Fri Oct  2 21:30:32 2020, MaxMem=   327680000 cpu:             716.0 elap:              94.3
 (Enter /applis/site/cecic/gaussian16/B.01/nehalem/g16/l601.exe)
 Copying SCF densities to generalized density rwf, IOpCl= 0 IROHF=1.

 **********************************************************************

            Population analysis using the SCF Density.

 **********************************************************************

 Orbital symmetries:
       Occupied  (A') (A') (A') (A') (A') (A") (A') (A')
       Virtual   (A') (A") (A') (A') (A') (A") (A') (A') (A") (A')
                 (A') (A") (A') (A') (A") (A') (A') (A") (A') (A')
                 (A") (A') (A') (A') (A") (A') (A') (A") (A') (A")
                 (A') (A') (A") (A') (A') (A") (A") (A') (A") (A')
                 (A') (A') (A") (A') (A") (A') (A") (A') (A') (A')
                 (A") (A') (A') (A') (A") (A") (A') (A") (A') (A')
                 (A') (A") (A") (A') (A') (A') (A') (A") (A") (A')
                 (A') (A") (A') (A") (A') (A') (A") (A') (A") (A')
                 (A') (A') (A") (A') (A") (A') (A') (A") (A") (A')
                 (A') (A') (A') (A') (A") (A") (A') (A") (A") (A')
                 (A') (A') (A") (A') (A') (A') (A')
 The electronic state is 2-A'.
 Alpha  occ. eigenvalues --  -20.61792 -11.35851  -1.46557  -0.85730  -0.71141
 Alpha  occ. eigenvalues --   -0.64814  -0.58578  -0.37951
 Alpha virt. eigenvalues --    0.02770   0.06234   0.07601   0.08081   0.13055
 Alpha virt. eigenvalues --    0.13273   0.17683   0.19271   0.20524   0.23616
 Alpha virt. eigenvalues --    0.25970   0.26599   0.31354   0.33123   0.34622
 Alpha virt. eigenvalues --    0.38207   0.41407   0.42217   0.44200   0.52102
 Alpha virt. eigenvalues --    0.53009   0.58813   0.64689   0.73086   0.75984
 Alpha virt. eigenvalues --    0.77447   0.83038   0.83887   0.86576   0.87365
 Alpha virt. eigenvalues --    0.92260   0.95972   0.96787   1.00785   1.02555
 Alpha virt. eigenvalues --    1.04172   1.07822   1.09571   1.18977   1.20900
 Alpha virt. eigenvalues --    1.25432   1.28978   1.30980   1.33980   1.40969
 Alpha virt. eigenvalues --    1.41119   1.49309   1.51124   1.56967   1.66949
 Alpha virt. eigenvalues --    1.84876   1.93095   2.00104   2.19970   2.21910
 Alpha virt. eigenvalues --    2.28146   2.28398   2.42410   2.42596   2.47479
 Alpha virt. eigenvalues --    2.54847   2.65252   2.68665   2.68984   2.76324
 Alpha virt. eigenvalues --    2.83919   3.00617   3.01940   3.24215   3.24549
 Alpha virt. eigenvalues --    3.36463   3.42903   3.47765   3.50648   3.52970
 Alpha virt. eigenvalues --    3.64874   3.73823   3.87933   3.98498   4.04190
 Alpha virt. eigenvalues --    4.11122   4.16009   4.22545   4.58596   4.59358
 Alpha virt. eigenvalues --    4.79871   4.98752   5.06705   5.18774   5.33333
 Alpha virt. eigenvalues --    5.44579   5.63152   6.23103   6.53591   6.53595
 Alpha virt. eigenvalues --    6.83304   6.86259   7.09549   7.11337   7.13448
 Alpha virt. eigenvalues --    7.27350   7.33817   7.48883   7.61280   7.65958
 Alpha virt. eigenvalues --   14.56252  15.12572
          Condensed to atoms (all electrons):
               1          2          3
     1  C    5.381095   0.555896   0.204427
     2  O    0.555896   7.817517  -0.040657
     3  H    0.204427  -0.040657   0.362056
          Atomic-Atomic Spin Densities.
               1          2          3
     1  C    0.841740  -0.090547  -0.011398
     2  O   -0.090547   0.273340  -0.013715
     3  H   -0.011398  -0.013715   0.116239
 Mulliken charges and spin densities:
               1          2
     1  C   -0.141418   0.739795
     2  O   -0.332756   0.169078
     3  H    0.474174   0.091127
 Sum of Mulliken charges =  -0.00000   1.00000
 Mulliken charges and spin densities with hydrogens summed into heavy atoms:
               1          2
     1  C    0.332756   0.830922
     2  O   -0.332756   0.169078
 Electronic spatial extent (au):  <R**2>=             50.2732
 Charge=             -0.0000 electrons
 Dipole moment (field-independent basis, Debye):
    X=             -0.9191    Y=              1.9555    Z=              0.0000  Tot=              2.1607
 Quadrupole moment (field-independent basis, Debye-Ang):
   XX=            -11.3045   YY=            -11.5077   ZZ=            -10.9356
   XY=             -1.0814   XZ=             -0.0000   YZ=             -0.0000
 Traceless Quadrupole moment (field-independent basis, Debye-Ang):
   XX=             -0.0553   YY=             -0.2585   ZZ=              0.3137
   XY=             -1.0814   XZ=             -0.0000   YZ=             -0.0000
 Octapole moment (field-independent basis, Debye-Ang**2):
  XXX=             -1.3662  YYY=             -1.8154  ZZZ=              0.0000  XYY=             -1.7256
  XXY=             -0.3971  XXZ=              0.0000  XZZ=             -0.1683  YZZ=             -0.5807
  YYZ=              0.0000  XYZ=             -0.0000
 Hexadecapole moment (field-independent basis, Debye-Ang**3):
 XXXX=            -14.5155 YYYY=            -39.4690 ZZZZ=             -9.7548 XXXY=              0.7776
 XXXZ=              0.0000 YYYX=             -0.1176 YYYZ=             -0.0000 ZZZX=              0.0000
 ZZZY=             -0.0000 XXYY=             -8.8545 XXZZ=             -4.1844 YYZZ=             -8.0824
 XXYZ=             -0.0000 YYXZ=             -0.0000 ZZXY=              0.6052
 N-N= 2.666616208753D+01 E-N=-3.204394072428D+02  KE= 1.131244684310D+02
                          Isotropic Fermi Contact Couplings
        Atom                 a.u.       MegaHertz       Gauss      10(-4) cm-1
     1  C(13)              0.37311     419.44481     149.66834     139.91173
     2  O(17)              0.02657     -16.10938      -5.74823      -5.37351
     3  H(1)               0.05246     234.47514      83.66656      78.21249
 --------------------------------------------------------
       Center         ----  Spin Dipole Couplings  ----
                      3XX-RR        3YY-RR        3ZZ-RR
 --------------------------------------------------------
     1   Atom        0.486550     -0.117703     -0.368847
     2   Atom        0.776752     -0.313010     -0.463743
     3   Atom        0.026422      0.009093     -0.035516
 --------------------------------------------------------
                        XY            XZ            YZ
 --------------------------------------------------------
     1   Atom        0.446704      0.000000      0.000000
     2   Atom        0.333193     -0.000000     -0.000000
     3   Atom       -0.035805     -0.000000      0.000000
 --------------------------------------------------------


 ---------------------------------------------------------------------------------
              Anisotropic Spin Dipole Couplings in Principal Axis System
 ---------------------------------------------------------------------------------

       Atom             a.u.   MegaHertz   Gauss  10(-4) cm-1        Axes

              Baa    -0.3688   -49.496   -17.661   -16.510  0.0000  0.0000  1.0000
     1 C(13)  Bbb    -0.3549   -47.619   -16.992   -15.884 -0.4689  0.8832 -0.0000
              Bcc     0.7237    97.114    34.653    32.394  0.8832  0.4689 -0.0000
 
              Baa    -0.4637    33.556    11.974    11.193  0.0000  0.0000  1.0000
     2 O(17)  Bbb    -0.4068    29.436    10.504     9.819 -0.2710  0.9626  0.0000
              Bcc     0.8706   -62.993   -22.477   -21.012  0.9626  0.2710 -0.0000
 
              Baa    -0.0355   -18.949    -6.762    -6.321  0.0000  0.0000  1.0000
     3 H(1)   Bbb    -0.0191   -10.181    -3.633    -3.396  0.6184  0.7859  0.0000
              Bcc     0.0546    29.130    10.394     9.717  0.7859 -0.6184  0.0000
 

 ---------------------------------------------------------------------------------

 No NMR shielding tensors so no spin-rotation constants.
 Leave Link  601 at Fri Oct  2 21:30:32 2020, MaxMem=   327680000 cpu:               1.8 elap:               0.3
 (Enter /applis/site/cecic/gaussian16/B.01/nehalem/g16/l9999.exe)
 1\1\GINC-DAHU67\SP\ROCCSD(T)-FC\Aug-CC-pVTZ\C1H1O1(2)\TINACCIL\02-Oct-
 2020\0\\#P ROCCSD(T)/aug-cc-pvtz geom=allcheck guess=read\\Title\\0,2\
 C,0,0.0073094098,0.,0.039256276\O,0,-0.0167853832,0.,1.2073728399\H,0,
 0.9485060864,0.,-0.5695712098\\Version=ES64L-G16RevB.01\State=2-A'\HF=
 -113.2895958\MP2=-113.6697777\MP3=-113.6672687\PUHF=-113.2895958\PMP2-
 0=-113.6697777\MP4SDQ=-113.6761904\CCSD=-113.6743181\CCSD(T)=-113.6922
 123\RMSD=4.359e-09\PG=CS [SG(C1H1O1)]\\@


 A MAN THINKING OR WORKING IS ALWAYS ALONE, 
 LET HIM BE WHERE HE WILL.

                                    -- THOREAU
 Job cpu time:       0 days  0 hours 12 minutes 58.0 seconds.
 Elapsed time:       0 days  0 hours  1 minutes 43.2 seconds.
 File lengths (MBytes):  RWF=    756 Int=      0 D2E=      0 Chk=      3 Scr=      1
 Normal termination of Gaussian 16 at Fri Oct  2 21:30:32 2020.
