      -----------------------------------------------------------      
     |                   =====================                   |     
     |                           x T B                           |     
     |                   =====================                   |     
     |                         S. Grimme                         |     
     |          Mulliken Center for Theoretical Chemistry        |     
     |                    University of Bonn                     |     
      -----------------------------------------------------------      

   * xtb version 6.2.2 (9d81278992624c895f80dd42a50cac0aa55982e2) compiled by '@Darwin' on 04/03/2020

   xtb is free software: you can redistribute it and/or modify it under
   the terms of the GNU Lesser General Public License as published by
   the Free Software Foundation, either version 3 of the License, or
   (at your option) any later version.
   
   xtb is distributed in the hope that it will be useful,
   but WITHOUT ANY WARRANTY; without even the implied warranty of
   MERCHANTABILITY or FITNESS FOR A PARTICULAR PURPOSE.  See the
   GNU Lesser General Public License for more details.
   
   Cite this work as:
   * S. Grimme, C. Bannwarth, P. Shushkov, J. Chem. Theory Comput., 2017,
     13, 1989-2009. DOI: 10.1021/acs.jctc.7b00118
   * C. Bannwarth, S. Ehlert and S. Grimme., J. Chem. Theory Comput., 2019,
     15, 1652-1671. DOI: 10.1021/acs.jctc.8b01176
   * P. Pracht, E. Caldeweyher, S. Ehlert, S. Grimme, ChemRxiv, 2019, preprint.
     DOI: 10.26434/chemrxiv.8326202.v1
   
   for DFT-D4:
   * E. Caldeweyher, C. Bannwarth and S. Grimme, J. Chem. Phys., 2017,
     147, 034112. DOI: 10.1063/1.4993215
   * E. Caldeweyher, S. Ehlert, A. Hansen, H. Neugebauer, S. Spicher,
     C. Bannwarth and S. Grimme, J. Chem. Phys., 2019, 150, 154122.
     DOI: 10.1063/1.5090222
   
   for sTDA-xTB:
   * S. Grimme and C. Bannwarth, J. Chem. Phys., 2016, 145, 054103.
     DOI: 10.1063/1.4959605
   
   in the mass-spec context:
   * V. Asgeirsson, C. Bauer and S. Grimme, Chem. Sci., 2017, 8, 4879.
     DOI: 10.1039/c7sc00601b
   
   for metadynamics refer to:
   * S. Grimme, J. Chem. Theory Comput., 2019, 155, 2847-2862
     DOI: 10.1021/acs.jctc.9b00143
   
   with help from (in alphabetical order)
   C. Bannwarth, F. Bohle, G. Brandenburg, E. Caldeweyher, M. Checinski,
   S. Dohm, S. Ehlert, S. Ehrlich, F. März, H. Neugebauer, J. Pisarek,
   P. Pracht, P. Shushkov, and S. Spicher.
   
 * started run on 2020/05/12 at 11:44:16.501     

           -------------------------------------------------
          |                Calculation Setup                |
           -------------------------------------------------

          program call               : xtb --input C4N1_41_S_1.input C4N1_41_S_1.xyz --ohess --molden --namespace C4N1_41_S_1 output.out
          calculation namespace      : C4N1_41_S_1
          coordinate file            : C4N1_41_S_1.xyz
          number of atoms            :                     5
          number of electrons        :                    21
          charge                     :                     0
          spin                       :                   0.5
          first test random number   :      0.22804476872950

   ID    Z sym.   atoms
    1    6 C      1, 2, 4, 5
    2    7 N      3

           -------------------------------------------------
          |                 G F N 2 - x T B                 |
           -------------------------------------------------

        Reference                      10.1021/acs.jctc.8b01176
      * Hamiltonian:
        H0-scaling (s, p, d)           1.850000    2.230000    2.230000
        zeta-weighting                 0.500000
      * Dispersion:
        s8                             2.700000
        a1                             0.520000
        a2                             5.000000
        s9                             5.000000
      * Repulsion:
        kExp                           1.500000    1.000000
        rExp                           1.000000
      * Coulomb:
        alpha                          2.000000
        third order                    shell-resolved
        anisotropic                    true
        a3                             3.000000
        a5                             4.000000
        cn-shift                       1.200000
        cn-exp                         4.000000
        max-rad                        5.000000


          ...................................................
          :                      SETUP                      :
          :.................................................:
          :  # basis functions                  20          :
          :  # atomic orbitals                  20          :
          :  # shells                           10          :
          :  # electrons                        21          :
          :  max. iterations                   250          :
          :  Hamiltonian                  GFN2-xTB          :
          :  restarted?                      false          :
          :  GBSA solvation                  false          :
          :  PC potential                    false          :
          :  electronic temp.          300.0000000     K    :
          :  accuracy                    1.0000000          :
          :  -> integral cutoff          0.2500000E+02      :
          :  -> integral neglect         0.1000000E-07      :
          :  -> SCF convergence          0.1000000E-05 Eh   :
          :  -> wf. convergence          0.1000000E-03 e    :
          :  Broyden damping             0.4000000          :
          ...................................................

 iter      E             dE          RMSdq      gap      omega  full diag
   1    -11.0406269 -0.110406E+02  0.916E+00    0.85       0.0  T
   2    -11.0169768  0.236500E-01  0.613E+00    0.76       1.0  T
   3    -10.8890087  0.127968E+00  0.554E+00    0.95       1.0  T
   4    -10.9857740 -0.967653E-01  0.329E+00    0.78       1.0  T
   5    -11.0676922 -0.819183E-01  0.128E+00    0.89       1.0  T
   6    -11.0749081 -0.721580E-02  0.560E-01    0.84       1.0  T
   7    -11.0751832 -0.275191E-03  0.395E-01    0.84       1.0  T
   8    -11.0745318  0.651476E-03  0.408E-01    0.89       1.0  T
   9    -11.0755241 -0.992313E-03  0.640E-02    0.84       1.0  T
  10    -11.0755336 -0.955638E-05  0.224E-02    0.84       2.0  T
  11    -11.0755349 -0.123098E-05  0.371E-03    0.84      12.0  T
  12    -11.0755349  0.384497E-08  0.224E-03    0.84      20.0  T
  13    -11.0755349 -0.223705E-07  0.314E-04    0.84     142.6  T
  14    -11.0755349 -0.254373E-09  0.202E-04    0.84     221.5  T

   *** convergence criteria satisfied after 14 iterations ***

         #    Occupation            Energy/Eh            Energy/eV
      -------------------------------------------------------------
         1        2.0000           -0.7818484             -21.2752
       ...           ...                  ...                  ...
         5        2.0000           -0.5754730             -15.6594
         6        2.0000           -0.5495152             -14.9531
         7        2.0000           -0.5185352             -14.1101
         8        2.0000           -0.5154897             -14.0272
         9        2.0000           -0.4811615             -13.0931
        10        2.0000           -0.4411158             -12.0034
        11        1.0000           -0.4174580             -11.3596 (HOMO)
        12                         -0.3866460             -10.5212 (LUMO)
        13                         -0.3658087              -9.9542
        14                         -0.3077972              -8.3756
        15                         -0.1343210              -3.6551
        16                         -0.0261548              -0.7117
       ...                                ...                  ...
        20                          0.2147325               5.8432
      -------------------------------------------------------------
                  HL-Gap            0.0308119 Eh            0.8384 eV
             Fermi-level           -0.4156694 Eh          -11.3109 eV

 SCC (total)                   0 d,  0 h,  0 min,  0.005 sec
 SCC setup                      ...        0 min,  0.000 sec (  1.703%)
 Dispersion                     ...        0 min,  0.000 sec (  0.380%)
 integral evaluation            ...        0 min,  0.001 sec ( 29.336%)
 zeroth order Hamiltonian       ...        0 min,  0.000 sec (  0.464%)
 iterations                     ...        0 min,  0.002 sec ( 34.844%)
 molecular gradient             ...        0 min,  0.001 sec ( 31.840%)
 printout                       ...        0 min,  0.000 sec (  1.239%)

         :::::::::::::::::::::::::::::::::::::::::::::::::::::
         ::                     SUMMARY                     ::
         :::::::::::::::::::::::::::::::::::::::::::::::::::::
         :: total energy             -10.974047378871 Eh    ::
         :: gradient norm              0.144483505365 Eh/a0 ::
         :: HOMO-LUMO gap              0.838435394043 eV    ::
         ::.................................................::
         :: SCC energy               -11.075534885024 Eh    ::
         :: -> isotropic ES           -0.013247411531 Eh    ::
         :: -> anisotropic ES          0.005264792818 Eh    ::
         :: -> anisotropic XC          0.008425592058 Eh    ::
         :: -> dispersion             -0.002737375489 Eh    ::
         :: repulsion energy           0.101487470862 Eh    ::
         :: add. restraining           0.000000000000 Eh    ::
         :::::::::::::::::::::::::::::::::::::::::::::::::::::

      ----------------------------------------------------------- 
     |                   =====================                   |
     |                        A N C O P T                        |
     |                   =====================                   |
     |               Approximate Normal Coordinate               |
     |                Rational Function Optimizer                |
      ----------------------------------------------------------- 

          ...................................................
          :                      SETUP                      :
          :.................................................:
          :   optimization level            normal          :
          :   max. optcycles                   200          :
          :   ANC micro-cycles                  20          :
          :   degrees of freedom                 9          :
          :.................................................:
          :   RF solver                   davidson          :
          :   write xtbopt.log                true          :
          :   linear?                        false          :
          :   energy convergence         0.5000000E-05 Eh   :
          :   grad. convergence          0.1000000E-02 Eh/α :
          :   maximium RF displ.         1.0000000          :
          :   Hlow (freq-cutoff)         0.1000000E-01      :
          :   Hmax (freq-cutoff)         5.0000000          :
          :   S6 in model hess.         20.0000000          :
          ...................................................

generating ANC from model Hessian ...
Using Lindh-Hessian (1995)
 Shifting diagonal of input Hessian by    0.0000000000000000     
 Lowest  eigenvalues of input Hessian
   -0.000000   -0.000000    0.000000    0.000000    0.000000    0.000000
    0.108398    0.140090    0.631204    0.645302    0.812473    0.914938
    1.253289    1.511510    1.532214
 Highest eigenvalues
    0.645302    0.812473    0.914938    1.253289    1.511510    1.532214


........................................................................
.............................. CYCLE    1 ..............................
........................................................................
   1    -11.0755349 -0.110755E+02  0.180E-05    0.84       0.0  T
   2    -11.0755349  0.243006E-11  0.220E-05    0.84    2032.2  T
   3    -11.0755349 -0.308198E-11  0.104E-05    0.84    4318.6  T
     SCC iter.                  ...        0 min,  0.000 sec
     gradient                   ...        0 min,  0.001 sec
 * total energy  :   -10.9740474 Eh     change       -0.1395868E-08 Eh
   gradient norm :     0.1444835 Eh/α   predicted     0.0000000E+00 (-100.00%)
   displ. norm   :     0.2419957 α      lambda       -0.2892524E-01
   maximum displ.:     0.1287166 α      in ANC's #1, #5, #4, ...

........................................................................
.............................. CYCLE    2 ..............................
........................................................................
   1    -11.1036572 -0.111037E+02  0.205E+00    0.83       0.0  T
   2    -11.0781549  0.255022E-01  0.223E+00    1.03       1.0  T
   3    -11.1074070 -0.292520E-01  0.125E+00    0.82       1.0  T
   4    -11.1110054 -0.359838E-02  0.563E-01    0.84       1.0  T
   5    -11.1129112 -0.190583E-02  0.255E-01    0.87       1.0  T
   6    -11.1133966 -0.485416E-03  0.642E-02    0.86       1.0  T
   7    -11.1133801  0.164761E-04  0.659E-02    0.86       1.0  T
   8    -11.1134013 -0.211773E-04  0.107E-02    0.86       4.2  T
   9    -11.1134017 -0.369531E-06  0.513E-03    0.86       8.7  T
  10    -11.1134017 -0.594841E-07  0.498E-04    0.86      89.7  T
  11    -11.1134017 -0.459520E-09  0.964E-05    0.86     463.7  T
     SCC iter.                  ...        0 min,  0.001 sec
     gradient                   ...        0 min,  0.001 sec
 * total energy  :   -11.0005052 Eh     change       -0.2645783E-01 Eh
   gradient norm :     0.1161771 Eh/α   predicted    -0.1530958E-01 ( -42.14%)
   displ. norm   :     0.6654640 α      lambda       -0.6954875E-01
   maximum displ.:     0.3871339 α      in ANC's #4, #5, #1, ...

........................................................................
.............................. CYCLE    3 ..............................
........................................................................
   1    -11.1492104 -0.111492E+02  0.467E+00    1.35       0.0  T
   2    -11.0643827  0.848276E-01  0.472E+00    1.23       1.0  T
   3    -11.1804288 -0.116046E+00  0.245E+00    1.13       1.0  T
   4    -11.1782116  0.221729E-02  0.161E+00    1.37       1.0  T
   5    -11.1972527 -0.190411E-01  0.536E-01    1.13       1.0  T
   6    -11.1988618 -0.160911E-02  0.249E-01    1.17       1.0  T
   7    -11.1987550  0.106788E-03  0.161E-01    1.17       1.0  T
   8    -11.1988712 -0.116204E-03  0.556E-02    1.17       1.0  T
   9    -11.1988794 -0.813223E-05  0.125E-02    1.17       3.6  T
  10    -11.1988796 -0.276514E-06  0.440E-03    1.17      10.2  T
  11    -11.1988797 -0.649876E-07  0.490E-04    1.17      91.2  T
  12    -11.1988797 -0.198170E-09  0.111E-04    1.17     402.4  T
     SCC iter.                  ...        0 min,  0.001 sec
     gradient                   ...        0 min,  0.001 sec
 * total energy  :   -11.0422116 Eh     change       -0.4170638E-01 Eh
   gradient norm :     0.0791011 Eh/α   predicted    -0.5017394E-01 (  20.30%)
   displ. norm   :     0.3003110 α      lambda       -0.1210639E-01
   maximum displ.:     0.1988313 α      in ANC's #2, #1, #6, ...

........................................................................
.............................. CYCLE    4 ..............................
........................................................................
   1    -11.1869818 -0.111870E+02  0.140E+00    1.25       0.0  T
   2    -11.1865792  0.402559E-03  0.860E-01    1.20       1.0  T
   3    -11.1798200  0.675922E-02  0.102E+00    1.34       1.0  T
   4    -11.1872871 -0.746711E-02  0.134E-01    1.22       1.0  T
   5    -11.1873429 -0.557752E-04  0.797E-02    1.24       1.0  T
   6    -11.1873683 -0.254741E-04  0.435E-02    1.23       1.0  T
   7    -11.1873736 -0.526291E-05  0.202E-02    1.23       2.2  T
   8    -11.1873762 -0.259575E-05  0.404E-03    1.23      11.1  T
   9    -11.1873762 -0.283696E-07  0.183E-03    1.23      24.4  T
  10    -11.1873762 -0.480256E-08  0.379E-04    1.23     118.1  T
  11    -11.1873762 -0.196648E-09  0.510E-05    1.23     876.2  T
     SCC iter.                  ...        0 min,  0.001 sec
     gradient                   ...        0 min,  0.002 sec
 * total energy  :   -11.0503712 Eh     change       -0.8159638E-02 Eh
   gradient norm :     0.0702558 Eh/α   predicted    -0.6599110E-02 ( -19.12%)
   displ. norm   :     0.2304152 α      lambda       -0.8918033E-02
   maximum displ.:     0.1555821 α      in ANC's #2, #6, #5, ...

........................................................................
.............................. CYCLE    5 ..............................
........................................................................
   1    -11.1927084 -0.111927E+02  0.126E+00    1.39       0.0  T
   2    -11.1926326  0.758023E-04  0.788E-01    1.39       1.0  T
   3    -11.1916557  0.976948E-03  0.665E-01    1.43       1.0  T
   4    -11.1932226 -0.156688E-02  0.264E-01    1.38       1.0  T
   5    -11.1936043 -0.381777E-03  0.833E-02    1.40       1.0  T
   6    -11.1936409 -0.365587E-04  0.442E-02    1.40       1.0  T
   7    -11.1936425 -0.160723E-05  0.320E-02    1.40       1.4  T
   8    -11.1936494 -0.687492E-05  0.471E-03    1.40       9.5  T
   9    -11.1936494 -0.598059E-08  0.220E-03    1.40      20.3  T
  10    -11.1936494 -0.893825E-08  0.369E-04    1.40     121.1  T
  11    -11.1936494 -0.176628E-09  0.436E-05    1.40    1026.3  T
     SCC iter.                  ...        0 min,  0.001 sec
     gradient                   ...        0 min,  0.001 sec
 * total energy  :   -11.0558952 Eh     change       -0.5523933E-02 Eh
   gradient norm :     0.0493909 Eh/α   predicted    -0.4695751E-02 ( -14.99%)
   displ. norm   :     0.1071207 α      lambda       -0.3586922E-02
   maximum displ.:     0.0567163 α      in ANC's #6, #5, #7, ...

........................................................................
.............................. CYCLE    6 ..............................
........................................................................
   1    -11.2048895 -0.112049E+02  0.778E-01    1.34       0.0  T
   2    -11.2044728  0.416723E-03  0.571E-01    1.32       1.0  T
   3    -11.2049412 -0.468453E-03  0.404E-01    1.34       1.0  T
   4    -11.2054137 -0.472455E-03  0.159E-01    1.34       1.0  T
   5    -11.2055517 -0.137998E-03  0.521E-02    1.32       1.0  T
   6    -11.2055609 -0.925872E-05  0.393E-02    1.33       1.1  T
   7    -11.2055667 -0.578455E-05  0.193E-02    1.33       2.3  T
   8    -11.2055689 -0.220613E-05  0.304E-03    1.33      14.7  T
   9    -11.2055689 -0.714928E-08  0.126E-03    1.33      35.6  T
  10    -11.2055689 -0.223998E-08  0.226E-04    1.33     198.0  T
  11    -11.2055689 -0.590283E-10  0.322E-05    1.33    1388.1  T
     SCC iter.                  ...        0 min,  0.001 sec
     gradient                   ...        0 min,  0.001 sec
 * total energy  :   -11.0584771 Eh     change       -0.2581953E-02 Eh
   gradient norm :     0.0410466 Eh/α   predicted    -0.1814039E-02 ( -29.74%)
   displ. norm   :     0.1873646 α      lambda       -0.4156363E-02
   maximum displ.:     0.1198266 α      in ANC's #5, #1, #3, ...

........................................................................
.............................. CYCLE    7 ..............................
........................................................................
   1    -11.2154420 -0.112154E+02  0.124E+00    1.24       0.0  T
   2    -11.2151563  0.285721E-03  0.752E-01    1.25       1.0  T
   3    -11.2134937  0.166263E-02  0.726E-01    1.23       1.0  T
   4    -11.2159009 -0.240723E-02  0.186E-01    1.24       1.0  T
   5    -11.2161003 -0.199360E-03  0.704E-02    1.23       1.0  T
   6    -11.2161243 -0.239786E-04  0.481E-02    1.24       1.0  T
   7    -11.2161341 -0.982340E-05  0.471E-03    1.24       9.5  T
   8    -11.2161341 -0.359581E-07  0.332E-03    1.24      13.5  T
   9    -11.2161341 -0.275347E-07  0.149E-03    1.24      30.0  T
  10    -11.2161342 -0.297081E-08  0.232E-04    1.24     193.1  T
  11    -11.2161342 -0.523865E-10  0.357E-05    1.24    1251.1  T
     SCC iter.                  ...        0 min,  0.001 sec
     gradient                   ...        0 min,  0.001 sec
 * total energy  :   -11.0619245 Eh     change       -0.3447414E-02 Eh
   gradient norm :     0.0459988 Eh/α   predicted    -0.2151138E-02 ( -37.60%)
   displ. norm   :     0.4630655 α      lambda       -0.1075186E-01
   maximum displ.:     0.3180736 α      in ANC's #5, #3, #1, ...

........................................................................
.............................. CYCLE    8 ..............................
........................................................................
   1    -11.2227700 -0.112228E+02  0.370E+00    1.69       0.0  T
   2    -11.1794155  0.433546E-01  0.351E+00    1.72       1.0  T
   3    -11.2248879 -0.454724E-01  0.215E+00    1.66       1.0  T
   4    -11.2180389  0.684895E-02  0.169E+00    1.68       1.0  T
   5    -11.2441371 -0.260982E-01  0.452E-01    1.68       1.0  T
   6    -11.2444756 -0.338504E-03  0.346E-01    1.69       1.0  T
   7    -11.2447061 -0.230523E-03  0.164E-01    1.68       1.0  T
   8    -11.2448470 -0.140897E-03  0.204E-02    1.69       2.2  T
   9    -11.2448480 -0.102409E-05  0.125E-02    1.69       3.6  T
  10    -11.2448481 -0.893077E-07  0.543E-03    1.69       8.2  T
  11    -11.2448483 -0.129914E-06  0.884E-04    1.69      50.6  T
  12    -11.2448483 -0.127287E-08  0.199E-04    1.69     224.9  T
     SCC iter.                  ...        0 min,  0.001 sec
     gradient                   ...        0 min,  0.002 sec
 * total energy  :   -11.0668587 Eh     change       -0.4934175E-02 Eh
   gradient norm :     0.0756529 Eh/α   predicted    -0.6528701E-02 (  32.32%)
   displ. norm   :     0.0803336 α      lambda       -0.4192301E-02
   maximum displ.:     0.0537172 α      in ANC's #4, #8, #1, ...

........................................................................
.............................. CYCLE    9 ..............................
........................................................................
   1    -11.2345989 -0.112346E+02  0.571E-01    1.60       0.0  T
   2    -11.2331494  0.144943E-02  0.595E-01    1.63       1.0  T
   3    -11.2346600 -0.151054E-02  0.321E-01    1.62       1.0  T
   4    -11.2344911  0.168838E-03  0.309E-01    1.60       1.0  T
   5    -11.2351994 -0.708248E-03  0.523E-02    1.62       1.0  T
   6    -11.2352118 -0.124329E-04  0.255E-02    1.62       1.8  T
   7    -11.2352112  0.592393E-06  0.202E-02    1.62       2.2  T
   8    -11.2352130 -0.174547E-05  0.355E-03    1.62      12.6  T
   9    -11.2352130 -0.498875E-07  0.159E-03    1.62      28.2  T
  10    -11.2352130 -0.278124E-08  0.253E-04    1.62     177.1  T
  11    -11.2352130 -0.889564E-10  0.552E-05    1.62     809.5  T
     SCC iter.                  ...        0 min,  0.001 sec
     gradient                   ...        0 min,  0.002 sec
 * total energy  :   -11.0694158 Eh     change       -0.2557061E-02 Eh
   gradient norm :     0.0509943 Eh/α   predicted    -0.2109680E-02 ( -17.50%)
   displ. norm   :     0.1851295 α      lambda       -0.6373731E-02
   maximum displ.:     0.1429603 α      in ANC's #2, #8, #6, ...

........................................................................
.............................. CYCLE   10 ..............................
........................................................................
   1    -11.2501762 -0.112502E+02  0.112E+00    1.73       0.0  T
   2    -11.2497740  0.402208E-03  0.705E-01    1.70       1.0  T
   3    -11.2454797  0.429425E-02  0.874E-01    1.73       1.0  T
   4    -11.2499593 -0.447962E-02  0.244E-01    1.70       1.0  T
   5    -11.2504384 -0.479017E-03  0.651E-02    1.71       1.0  T
   6    -11.2504592 -0.208807E-04  0.276E-02    1.70       1.6  T
   7    -11.2504608 -0.155279E-05  0.977E-03    1.70       4.6  T
   8    -11.2504607  0.670679E-07  0.473E-03    1.70       9.5  T
   9    -11.2504608 -0.961852E-07  0.275E-03    1.70      16.3  T
  10    -11.2504608 -0.197501E-07  0.261E-04    1.70     171.5  T
  11    -11.2504608 -0.107917E-09  0.386E-05    1.70    1159.9  T
     SCC iter.                  ...        0 min,  0.001 sec
     gradient                   ...        0 min,  0.001 sec
 * total energy  :   -11.0736610 Eh     change       -0.4245263E-02 Eh
   gradient norm :     0.0607634 Eh/α   predicted    -0.3296089E-02 ( -22.36%)
   displ. norm   :     0.2109940 α      lambda       -0.6888612E-02
   maximum displ.:     0.1114625 α      in ANC's #8, #2, #5, ...

........................................................................
.............................. CYCLE   11 ..............................
........................................................................
   1    -11.2544965 -0.112545E+02  0.154E+00    1.72       0.0  T
   2    -11.2422079  0.122886E-01  0.154E+00    1.82       1.0  T
   3    -11.2485662 -0.635832E-02  0.121E+00    1.67       1.0  T
   4    -11.2541608 -0.559465E-02  0.654E-01    1.74       1.0  T
   5    -11.2574881 -0.332724E-02  0.881E-02    1.74       1.0  T
   6    -11.2575059 -0.178472E-04  0.521E-02    1.73       1.0  T
   7    -11.2575089 -0.300489E-05  0.323E-02    1.73       1.4  T
   8    -11.2575106 -0.167863E-05  0.179E-02    1.73       2.5  T
   9    -11.2575127 -0.211804E-05  0.249E-03    1.73      17.9  T
  10    -11.2575127 -0.728039E-08  0.451E-04    1.73      99.1  T
  11    -11.2575127 -0.652019E-09  0.152E-04    1.73     293.9  T
     SCC iter.                  ...        0 min,  0.001 sec
     gradient                   ...        0 min,  0.001 sec
 * total energy  :   -11.0786846 Eh     change       -0.5023600E-02 Eh
   gradient norm :     0.0514530 Eh/α   predicted    -0.3597642E-02 ( -28.39%)
   displ. norm   :     0.4010199 α      lambda       -0.1016197E-01
   maximum displ.:     0.2543544 α      in ANC's #1, #8, #2, ...

........................................................................
.............................. CYCLE   12 ..............................
........................................................................
   1    -11.2334260 -0.112334E+02  0.208E+00    1.38       0.0  T
   2    -11.2283525  0.507355E-02  0.161E+00    1.42       1.0  T
   3    -11.2226053  0.574719E-02  0.154E+00    1.33       1.0  T
   4    -11.2342962 -0.116909E-01  0.426E-01    1.43       1.0  T
   5    -11.2354625 -0.116636E-02  0.177E-01    1.37       1.0  T
   6    -11.2356285 -0.165987E-03  0.840E-02    1.38       1.0  T
   7    -11.2356427 -0.142000E-04  0.170E-02    1.38       2.6  T
   8    -11.2356438 -0.106511E-05  0.120E-02    1.38       3.7  T
   9    -11.2356447 -0.936438E-06  0.303E-03    1.38      14.7  T
  10    -11.2356447 -0.183297E-07  0.279E-04    1.38     160.5  T
  11    -11.2356447 -0.120499E-09  0.886E-05    1.38     504.9  T
     SCC iter.                  ...        0 min,  0.001 sec
     gradient                   ...        0 min,  0.002 sec
 * total energy  :   -11.0833006 Eh     change       -0.4616009E-02 Eh
   gradient norm :     0.0472128 Eh/α   predicted    -0.5898104E-02 (  27.77%)
   displ. norm   :     0.1563238 α      lambda       -0.4031275E-02
   maximum displ.:     0.0970867 α      in ANC's #3, #5, #1, ...

........................................................................
.............................. CYCLE   13 ..............................
........................................................................
   1    -11.2448474 -0.112448E+02  0.960E-01    1.39       0.0  T
   2    -11.2405236  0.432372E-02  0.951E-01    1.51       1.0  T
   3    -11.2438331 -0.330947E-02  0.675E-01    1.37       1.0  T
   4    -11.2455459 -0.171280E-02  0.261E-01    1.43       1.0  T
   5    -11.2460633 -0.517425E-03  0.571E-02    1.41       1.0  T
   6    -11.2460722 -0.885594E-05  0.324E-02    1.42       1.4  T
   7    -11.2460743 -0.217033E-05  0.153E-02    1.42       2.9  T
   8    -11.2460755 -0.119963E-05  0.355E-03    1.42      12.6  T
   9    -11.2460756 -0.616876E-07  0.135E-03    1.42      33.0  T
  10    -11.2460756 -0.417912E-08  0.980E-05    1.42     456.1  T
  11    -11.2460756 -0.179448E-10  0.294E-05    1.42    1522.2  T
     SCC iter.                  ...        0 min,  0.001 sec
     gradient                   ...        0 min,  0.001 sec
 * total energy  :   -11.0850417 Eh     change       -0.1741028E-02 Eh
   gradient norm :     0.0315410 Eh/α   predicted    -0.2064895E-02 (  18.60%)
   displ. norm   :     0.1305521 α      lambda       -0.2127971E-02
   maximum displ.:     0.1033145 α      in ANC's #1, #5, #2, ...

........................................................................
.............................. CYCLE   14 ..............................
........................................................................
   1    -11.2505995 -0.112506E+02  0.711E-01    1.45       0.0  T
   2    -11.2496733  0.926162E-03  0.547E-01    1.39       1.0  T
   3    -11.2483791  0.129419E-02  0.598E-01    1.50       1.0  T
   4    -11.2507742 -0.239513E-02  0.152E-01    1.43       1.0  T
   5    -11.2508988 -0.124513E-03  0.387E-02    1.44       1.2  T
   6    -11.2509017 -0.294818E-05  0.263E-02    1.44       1.7  T
   7    -11.2509026 -0.874854E-06  0.153E-02    1.44       2.9  T
   8    -11.2509040 -0.140208E-05  0.285E-03    1.44      15.7  T
   9    -11.2509040 -0.488327E-07  0.771E-04    1.44      58.0  T
  10    -11.2509040 -0.221236E-09  0.151E-04    1.44     296.1  T
     SCC iter.                  ...        0 min,  0.001 sec
     gradient                   ...        0 min,  0.001 sec
 * total energy  :   -11.0867207 Eh     change       -0.1679016E-02 Eh
   gradient norm :     0.0219925 Eh/α   predicted    -0.1082119E-02 ( -35.55%)
   displ. norm   :     0.2354433 α      lambda       -0.2497456E-02
   maximum displ.:     0.1705450 α      in ANC's #1, #2, #3, ...

........................................................................
.............................. CYCLE   15 ..............................
........................................................................
   1    -11.2479142 -0.112479E+02  0.126E+00    1.61       0.0  T
   2    -11.2460324  0.188180E-02  0.964E-01    1.50       1.0  T
   3    -11.2460435 -0.111035E-04  0.776E-01    1.64       1.0  T
   4    -11.2476515 -0.160794E-02  0.468E-01    1.53       1.0  T
   5    -11.2492584 -0.160690E-02  0.548E-02    1.57       1.0  T
   6    -11.2492473  0.111264E-04  0.538E-02    1.57       1.0  T
   7    -11.2492622 -0.149772E-04  0.195E-02    1.57       2.3  T
   8    -11.2492637 -0.151496E-05  0.370E-03    1.57      12.1  T
   9    -11.2492638 -0.222239E-07  0.195E-03    1.57      22.9  T
  10    -11.2492638 -0.354238E-08  0.262E-04    1.57     171.0  T
  11    -11.2492638 -0.198073E-09  0.312E-05    1.57    1433.9  T
     SCC iter.                  ...        0 min,  0.001 sec
     gradient                   ...        0 min,  0.001 sec
 * total energy  :   -11.0877003 Eh     change       -0.9795911E-03 Eh
   gradient norm :     0.0163576 Eh/α   predicted    -0.1317947E-02 (  34.54%)
   displ. norm   :     0.0781423 α      lambda       -0.7926371E-03
   maximum displ.:     0.0540272 α      in ANC's #1, #8, #2, ...

........................................................................
.............................. CYCLE   16 ..............................
........................................................................
   1    -11.2580191 -0.112580E+02  0.400E-01    1.64       0.0  T
   2    -11.2579798  0.392570E-04  0.270E-01    1.66       1.0  T
   3    -11.2578998  0.799935E-04  0.230E-01    1.64       1.0  T
   4    -11.2580935 -0.193719E-03  0.558E-02    1.65       1.0  T
   5    -11.2581057 -0.121831E-04  0.332E-02    1.64       1.3  T
   6    -11.2581129 -0.713971E-05  0.148E-02    1.65       3.0  T
   7    -11.2581125  0.378867E-06  0.118E-02    1.64       3.8  T
   8    -11.2581135 -0.101805E-05  0.116E-03    1.65      38.5  T
   9    -11.2581135 -0.848486E-09  0.479E-04    1.65      93.4  T
  10    -11.2581135 -0.285848E-09  0.708E-05    1.65     631.8  T
     SCC iter.                  ...        0 min,  0.001 sec
     gradient                   ...        0 min,  0.001 sec
 * total energy  :   -11.0879548 Eh     change       -0.2544891E-03 Eh
   gradient norm :     0.0110113 Eh/α   predicted    -0.3987384E-03 (  56.68%)
   displ. norm   :     0.0381110 α      lambda       -0.1933927E-03
   maximum displ.:     0.0227646 α      in ANC's #8, #1, #3, ...

........................................................................
.............................. CYCLE   17 ..............................
........................................................................
   1    -11.2536801 -0.112537E+02  0.216E-01    1.63       0.0  T
   2    -11.2536198  0.603219E-04  0.168E-01    1.64       1.0  T
   3    -11.2536273 -0.757628E-05  0.143E-01    1.62       1.0  T
   4    -11.2536784 -0.510229E-04  0.669E-02    1.64       1.0  T
   5    -11.2537165 -0.381047E-04  0.103E-02    1.63       4.4  T
   6    -11.2537165 -0.718578E-07  0.732E-03    1.63       6.1  T
   7    -11.2537167 -0.189225E-06  0.245E-03    1.63      18.3  T
   8    -11.2537168 -0.339001E-07  0.485E-04    1.63      92.2  T
   9    -11.2537168 -0.283977E-09  0.218E-04    1.63     205.5  T
     SCC iter.                  ...        0 min,  0.001 sec
     gradient                   ...        0 min,  0.001 sec
 * total energy  :   -11.0880375 Eh     change       -0.8269868E-04 Eh
   gradient norm :     0.0020561 Eh/α   predicted    -0.9683670E-04 (  17.10%)
   displ. norm   :     0.0123199 α      lambda       -0.1965273E-04
   maximum displ.:     0.0075065 α      in ANC's #5, #1, #8, ...

........................................................................
.............................. CYCLE   18 ..............................
........................................................................
   1    -11.2539940 -0.112540E+02  0.727E-02    1.64       0.0  T
   2    -11.2539898  0.415929E-05  0.497E-02    1.63       1.0  T
   3    -11.2539768  0.130272E-04  0.539E-02    1.64       1.0  T
   4    -11.2539931 -0.163380E-04  0.237E-02    1.64       1.9  T
   5    -11.2539968 -0.368407E-05  0.362E-03    1.64      12.3  T
   6    -11.2539968 -0.223573E-07  0.248E-03    1.64      18.0  T
   7    -11.2539968  0.693765E-08  0.158E-03    1.64      28.3  T
   8    -11.2539968 -0.173174E-07  0.204E-04    1.64     219.0  T
   9    -11.2539968 -0.280913E-10  0.649E-05    1.64     689.5  T
     SCC iter.                  ...        0 min,  0.001 sec
     gradient                   ...        0 min,  0.002 sec
 * total energy  :   -11.0880477 Eh     change       -0.1022861E-04 Eh
   gradient norm :     0.0012983 Eh/α   predicted    -0.9826562E-05 (  -3.93%)
   displ. norm   :     0.0046519 α      lambda       -0.2104639E-05
   maximum displ.:     0.0028935 α      in ANC's #2, #8, #1, ...

........................................................................
.............................. CYCLE   19 ..............................
........................................................................
   1    -11.2540709 -0.112541E+02  0.246E-02    1.64       0.0  T
   2    -11.2540706  0.244828E-06  0.179E-02    1.64       2.5  T
   3    -11.2540706  0.133609E-07  0.132E-02    1.64       3.4  T
   4    -11.2540712 -0.626699E-06  0.273E-03    1.64      16.4  T
   5    -11.2540713 -0.270502E-07  0.163E-03    1.64      27.4  T
   6    -11.2540713 -0.190369E-07  0.513E-04    1.64      87.2  T
   7    -11.2540713  0.116038E-08  0.465E-04    1.64      96.3  T
     SCC iter.                  ...        0 min,  0.001 sec
     gradient                   ...        0 min,  0.001 sec
 * total energy  :   -11.0880500 Eh     change       -0.2294414E-05 Eh
   gradient norm :     0.0013147 Eh/α   predicted    -0.1053628E-05 ( -54.08%)
   displ. norm   :     0.0069016 α      lambda       -0.2897918E-05
   maximum displ.:     0.0033938 α      in ANC's #8, #2, #1, ...

........................................................................
.............................. CYCLE   20 ..............................
........................................................................
   1    -11.2537654 -0.112538E+02  0.413E-02    1.64       0.0  T
   2    -11.2537627  0.267330E-05  0.345E-02    1.65       1.3  T
   3    -11.2537651 -0.239837E-05  0.234E-02    1.64       1.9  T
   4    -11.2537646  0.576523E-06  0.195E-02    1.65       2.3  T
   5    -11.2537675 -0.296492E-05  0.175E-03    1.64      25.5  T
   6    -11.2537675 -0.803138E-08  0.916E-04    1.64      48.8  T
   7    -11.2537675  0.233789E-08  0.851E-04    1.64      52.5  T
     SCC iter.                  ...        0 min,  0.001 sec
     gradient                   ...        0 min,  0.001 sec
 * total energy  :   -11.0880530 Eh     change       -0.3038078E-05 Eh
   gradient norm :     0.0011328 Eh/α   predicted    -0.1447167E-05 ( -52.37%)
   displ. norm   :     0.0074907 α      lambda       -0.2369259E-05
   maximum displ.:     0.0042774 α      in ANC's #1, #8, #5, ...
 * RMSD in coord.:     0.7445200 α      energy gain  -0.1140056E+00 Eh

generating ANC from model Hessian ...
Using Lindh-Hessian (1995)
 Shifting diagonal of input Hessian by    0.0000000000000000     
 Lowest  eigenvalues of input Hessian
   -0.000000    0.000000    0.000000    0.000000    0.000000    0.000000
    0.160424    0.215350    0.548582    0.671290    1.001051    1.236910
    1.388400    1.677764    2.009196
 Highest eigenvalues
    0.671290    1.001051    1.236910    1.388400    1.677764    2.009196


........................................................................
.............................. CYCLE   21 ..............................
........................................................................
   1    -11.2536105 -0.112536E+02  0.509E-02    1.65       0.0  T
   2    -11.2536066  0.392780E-05  0.419E-02    1.65       1.1  T
   3    -11.2536105 -0.387499E-05  0.282E-02    1.65       1.6  T
   4    -11.2536094  0.104492E-05  0.238E-02    1.65       1.9  T
   5    -11.2536139 -0.446640E-05  0.186E-03    1.65      24.0  T
   6    -11.2536139 -0.476676E-08  0.112E-03    1.65      39.8  T
   7    -11.2536139  0.394395E-08  0.100E-03    1.65      44.6  T
   8    -11.2536139 -0.673448E-08  0.929E-05    1.65     481.5  T
   9    -11.2536139 -0.179945E-11  0.420E-05    1.65    1065.6  T
     SCC iter.                  ...        0 min,  0.001 sec
     gradient                   ...        0 min,  0.001 sec
 * total energy  :   -11.0880555 Eh     change       -0.2493474E-05 Eh
   gradient norm :     0.0010293 Eh/α   predicted     0.0000000E+00 (-100.00%)
   displ. norm   :     0.0036537 α      lambda       -0.1506700E-05
   maximum displ.:     0.0034788 α      in ANC's #1, #7, #5, ...

........................................................................
.............................. CYCLE   22 ..............................
........................................................................
   1    -11.2536375 -0.112536E+02  0.219E-02    1.65       0.0  T
   2    -11.2536372  0.391226E-06  0.149E-02    1.65       3.0  T
   3    -11.2536351  0.202791E-05  0.184E-02    1.65       2.4  T
   4    -11.2536376 -0.246117E-05  0.463E-03    1.65       9.7  T
   5    -11.2536377 -0.130931E-06  0.101E-03    1.65      44.3  T
   6    -11.2536377 -0.439745E-08  0.467E-04    1.65      95.8  T
   7    -11.2536377  0.283050E-09  0.369E-04    1.65     121.1  T
     SCC iter.                  ...        0 min,  0.001 sec
     gradient                   ...        0 min,  0.001 sec
 * total energy  :   -11.0880566 Eh     change       -0.1097239E-05 Eh
   gradient norm :     0.0004159 Eh/α   predicted    -0.7521593E-06 ( -31.45%)
   displ. norm   :     0.0007679 α      lambda       -0.2002017E-06
   maximum displ.:     0.0004300 α      in ANC's #5, #4, #1, ...

   *** GEOMETRY OPTIMIZATION CONVERGED AFTER 22 ITERATIONS ***

------------------------------------------------------------------------
 total energy gain   :        -0.1140092 Eh      -71.5419 kcal/mol
 total RMSD          :         0.7437124 a0        0.3936 Å
 total power (kW/mol):       -13.6059638 (step)-3438.1336 (real)
------------------------------------------------------------------------

 ANCopt (total)                0 d,  0 h,  0 min,  0.087 sec
 optimizer setup                ...        0 min,  0.000 sec (  0.066%)
 model hessian                  ...        0 min,  0.000 sec (  0.157%)
 ANC generation                 ...        0 min,  0.000 sec (  0.177%)
 coordinate transformation      ...        0 min,  0.000 sec (  0.055%)
 single point calculation       ...        0 min,  0.085 sec ( 97.518%)
 optimization log               ...        0 min,  0.001 sec (  0.609%)
 hessian update                 ...        0 min,  0.000 sec (  0.074%)
 rational function              ...        0 min,  0.000 sec (  0.555%)

================
 final structure:
================
5
 xtb: 6.2.2 (9d81278992624c895f80dd42a50cac0aa55982e2)
C         1.26308091746703   -0.41067981052781   -0.05849275474028
C         0.15383021825396   -0.84483648853846    0.65514295696361
N        -0.87473785771098    0.95660374977756   -0.30250346044035
C        -0.95214945679179   -0.35102452042733   -0.03520922893840
C         0.40997617878179    0.64993706971604   -0.25893651284458

 Bond Distances (Angstroems)
 ---------------------------
C1-C2=1.3886         C1-C5=1.3758         C2-C1=1.3886         C2-C4=1.3941         C2-C5=1.7707         N3-C4=1.3369         
N3-C5=1.3215         C4-C2=1.3941         C4-N3=1.3369         C4-C5=1.7051         C5-C1=1.3758         C5-C2=1.7707         
C5-N3=1.3215         C5-C4=1.7051         
 C  C  Rav=1.5269 sigma=0.1737  Rmin=1.3758  Rmax=1.7707     5
 N  C  Rav=1.3292 sigma=0.0077  Rmin=1.3215  Rmax=1.3369     2

 selected bond angles (degree)
 --------------------
C5-C1-C2= 79.66                C4-C2-C1=105.57                C5-C2-C1= 49.85                C5-C2-C4= 63.90                
C5-N3-C4= 79.79                N3-C4-C2=113.55                C5-C4-C2= 68.85                C5-C4-N3= 49.71                
C2-C5-C1= 50.49                N3-C5-C1=141.86                N3-C5-C2= 94.15                C4-C5-C1= 91.36                
C4-C5-C2= 47.25                C4-C5-N3= 50.50                

 selected dihedral angles (degree)
 ---------------------------------
C4-C2-C1-C5= 33.64            N3-C4-C2-C1=309.53            N3-C4-C2-C5=337.67            C5-C4-C2-C1=331.87            
C2-C4-N3-C5= 27.69            N3-C5-C1-C2=333.97            C4-C5-C1-C2=334.12            C1-C5-C2-C4=216.46            
N3-C5-C2-C1=164.23            N3-C5-C2-C4= 20.69            C4-C5-C2-C1=143.54            C1-C5-N3-C4=  0.19            
C2-C5-N3-C4=340.35            C1-C5-C4-C2= 27.29            C1-C5-C4-N3=180.12            C2-C5-C4-N3=152.82            
N3-C5-C4-C2=207.18            
           -------------------------------------------------
          |                Final Singlepoint                |
           -------------------------------------------------

          ...................................................
          :                      SETUP                      :
          :.................................................:
          :  # basis functions                  20          :
          :  # atomic orbitals                  20          :
          :  # shells                           10          :
          :  # electrons                        21          :
          :  max. iterations                   250          :
          :  Hamiltonian                  GFN2-xTB          :
          :  restarted?                      false          :
          :  GBSA solvation                  false          :
          :  PC potential                    false          :
          :  electronic temp.          300.0000000     K    :
          :  accuracy                    1.0000000          :
          :  -> integral cutoff          0.2500000E+02      :
          :  -> integral neglect         0.1000000E-07      :
          :  -> SCF convergence          0.1000000E-05 Eh   :
          :  -> wf. convergence          0.1000000E-03 e    :
          :  Broyden damping             0.4000000          :
          ...................................................

 iter      E             dE          RMSdq      gap      omega  full diag
   1    -11.2536377 -0.112536E+02  0.132E-04    1.65       0.0  T
   2    -11.2536377  0.822453E-12  0.733E-05    1.65     610.0  T
   3    -11.2536377  0.315321E-10  0.760E-05    1.65     588.8  T

   *** convergence criteria satisfied after 3 iterations ***

         #    Occupation            Energy/Eh            Energy/eV
      -------------------------------------------------------------
         1        2.0000           -0.7589050             -20.6509
       ...           ...                  ...                  ...
         5        2.0000           -0.5852381             -15.9251
         6        2.0000           -0.5724986             -15.5785
         7        2.0000           -0.5131990             -13.9649
         8        2.0000           -0.4752552             -12.9324
         9        2.0000           -0.4579992             -12.4628
        10        2.0000           -0.4387851             -11.9400
        11        1.0000           -0.4090330             -11.1304 (HOMO)
        12                         -0.3482945              -9.4776 (LUMO)
        13                         -0.3004015              -8.1743
        14                         -0.2560321              -6.9670
        15                         -0.2319591              -6.3119
        16                          0.0961366               2.6160
       ...                                ...                  ...
        20                          0.5795368              15.7700
      -------------------------------------------------------------
                  HL-Gap            0.0607385 Eh            1.6528 eV
             Fermi-level           -0.4012864 Eh          -10.9196 eV

 SCC (total)                   0 d,  0 h,  0 min,  0.003 sec
 SCC setup                      ...        0 min,  0.000 sec (  1.414%)
 Dispersion                     ...        0 min,  0.000 sec (  0.423%)
 integral evaluation            ...        0 min,  0.001 sec ( 39.364%)
 zeroth order Hamiltonian       ...        0 min,  0.000 sec (  0.481%)
 iterations                     ...        0 min,  0.000 sec ( 11.791%)
 molecular gradient             ...        0 min,  0.001 sec ( 44.287%)
 printout                       ...        0 min,  0.000 sec (  2.045%)

         :::::::::::::::::::::::::::::::::::::::::::::::::::::
         ::                     SUMMARY                     ::
         :::::::::::::::::::::::::::::::::::::::::::::::::::::
         :: total energy             -11.088056612845 Eh    ::
         :: gradient norm              0.000417600006 Eh/a0 ::
         :: HOMO-LUMO gap              1.652778686177 eV    ::
         ::.................................................::
         :: SCC energy               -11.253637726333 Eh    ::
         :: -> isotropic ES            0.001658494903 Eh    ::
         :: -> anisotropic ES          0.003232915340 Eh    ::
         :: -> anisotropic XC          0.009997978712 Eh    ::
         :: -> dispersion             -0.002698317097 Eh    ::
         :: repulsion energy           0.165581088012 Eh    ::
         :: add. restraining           0.000000000000 Eh    ::
         :::::::::::::::::::::::::::::::::::::::::::::::::::::

           ------------------------------------------------- 
          |                Numerical Hessian                |
           ------------------------------------------------- 
step length          :   0.00500
SCC accuracy         :   0.30000
Hessian scale factor :   1.00000
frozen atoms in %    :   0.00000    0
RMS gradient         :   0.00042
estimated CPU  time      0.00 min
estimated wall time      0.00 min

writing file <hessian>.

 projected vibrational frequencies (cm-1)
eigval :       -0.00    -0.00    -0.00    -0.00     0.00     0.00
eigval :      236.74   410.36   524.26   685.82   924.47  1007.10
eigval :     1062.46  1329.33  1565.46
           -------------------------------------------------
          |                Property Printout                |
           -------------------------------------------------

    * Orbital Energies and Occupations

         #    Occupation            Energy/Eh            Energy/eV
      -------------------------------------------------------------
         1        2.0000           -0.7589051             -20.6509
         2        2.0000           -0.6958387             -18.9347
         3        2.0000           -0.6490728             -17.6622
         4        2.0000           -0.6017731             -16.3751
         5        2.0000           -0.5852383             -15.9251
         6        2.0000           -0.5724984             -15.5785
         7        2.0000           -0.5131992             -13.9649
         8        2.0000           -0.4752550             -12.9323
         9        2.0000           -0.4579992             -12.4628
        10        2.0000           -0.4387852             -11.9400
        11        1.0000           -0.4090327             -11.1303 (HOMO)
        12                         -0.3482947              -9.4776 (LUMO)
        13                         -0.3004016              -8.1743
        14                         -0.2560319              -6.9670
        15                         -0.2319591              -6.3119
        16                          0.0961367               2.6160
        17                          0.2372638               6.4563
        18                          0.2828683               7.6972
        19                          0.3216116               8.7515
        20                          0.5795370              15.7700
      -------------------------------------------------------------
                  HL-Gap            0.0607380 Eh            1.6528 eV
             Fermi-level           -0.4012863 Eh          -10.9196 eV

     #   Z        covCN         q      C6AA      α(0)
     1   6 C      2.085    -0.069    32.778     9.249
     2   6 C      2.861     0.000    28.023     8.677
     3   7 N      1.851    -0.138    24.779     7.378
     4   6 C      2.937     0.063    26.581     8.456
     5   6 C      3.685     0.144    18.442     6.148

 Mol. C6AA /au·bohr⁶  :        646.134518
 Mol. C8AA /au·bohr⁸  :      17773.463394
 Mol. α(0) /au        :         39.907806


Wiberg/Mayer (AO) data.
largest (>0.10) Wiberg bond orders for each atom
          total WBO             WBO to atom ...
     1  C   2.981        C    5 1.346    C    2 1.276    C    4 0.217    N    3 0.141
     2  C   3.269        C    4 1.387    C    1 1.276    C    5 0.463    N    3 0.143
     3  N   2.893        C    5 1.328    C    4 1.280    C    2 0.143    C    1 0.141
     4  C   3.373        C    2 1.387    N    3 1.280    C    5 0.489    C    1 0.217
     5  C   3.626        C    1 1.346    N    3 1.328    C    4 0.489    C    2 0.463

MOs/occ written to file <molden.input>


molecular dipole:
                 x           y           z       tot (Debye)
 q only:        0.062      -0.062       0.012
   full:        0.060      -0.020       0.075       0.249
molecular quadrupole (traceless):
                xx          xy          yy          xz          yz          zz
 q only:       -0.350       1.130      -0.003      -0.239       0.080       0.353
  q+dip:       -0.942       1.625      -0.171      -0.474       0.459       1.113
   full:       -1.739       2.712      -0.090      -0.660       0.950       1.828

           -------------------------------------------------
          |                Geometry Summary                 |
           -------------------------------------------------

      molecular mass/u    :       62.0496468
   center of mass at/Å    :       -0.0281378       0.0307715      -0.0097305
  moments of inertia/u·Å² :        0.2795718E+02   0.5407076E+02   0.7842110E+02
rotational constants/cm⁻¹ :        0.6029805E+00   0.3117699E+00   0.2149630E+00

 * 4 selected distances

     #   Z        #   Z                                     value/Å
     2   6 C      4   6 C                                 1.3941404 (max)
     3   7 N      4   6 C                                 1.3369108
     1   6 C      5   6 C                                 1.3758174
     3   7 N      5   6 C                                 1.3215267 (min)

 * 2 distinct bonds (by element types)

   Z      Z             #   av. dist./Å        max./Å        min./Å
   6 C    6 C           2     1.3849789     1.3941404     1.3758174
   6 C    7 N           2     1.3292187     1.3369108     1.3215267

           -------------------------------------------------
          |               Frequency Printout                |
           -------------------------------------------------
 projected vibrational frequencies (cm-1)
eigval :       -0.00    -0.00    -0.00    -0.00     0.00     0.00
Molecule has no symmetry elements
It seems to be the C1 point group
eigval :      236.74   410.36   524.26   685.82   924.47  1007.10
eigval :     1062.46  1329.33  1565.46
 reduced masses (amu)
   1: 12.43   2: 12.59   3: 12.29   4: 12.66   5: 12.46   6: 12.47   7: 12.39   8: 12.06
   9: 12.24  10: 12.44  11: 12.89  12: 12.28  13: 12.03  14: 12.34  15: 12.56
 IR intensities (amu)
   1:  0.00   2:  0.03   3:  0.04   4:  0.03   5:  0.03   6:  0.02   7:  0.38   8:  0.35
   9:  0.68  10:  0.60  11:  0.77  12:  1.16  13:  1.08  14:  0.38  15:  1.22
 Raman intensities (amu)
   1:  0.00   2:  0.00   3:  0.00   4:  0.00   5:  0.00   6:  0.00   7:  0.00   8:  0.00
   9:  0.00  10:  0.00  11:  0.00  12:  0.00  13:  0.00  14:  0.00  15:  0.00
 output can be read by thermo (or use thermo option).
 writing <g98.out> molden fake output.
 recommended (thermochemical) frequency scaling factor: 1.0
           -------------------------------------------------
          |             Thermodynamic Functions             |
           -------------------------------------------------

c1  symmetry found (for desy threshold:  0.10E+00) used in thermo

          ...................................................
          :                      SETUP                      :
          :.................................................:
          :  # frequencies                           9      :
          :  # imaginary freq.                       0      :
          :  linear?                             false      :
          :  only rotor calc.                    false      :
          :  symmetry                               c1      :
          :  rotational number                       1      :
          :  scaling factor                  1.0000000      :
          :  rotor cutoff                   50.0000000 cm⁻¹ :
          :  imag. cutoff                  -20.0000000 cm⁻¹ :
          :.................................................:

    mode    ω/cm⁻¹     T·S(HO)/kcal·mol⁻¹    T·S(FR)/kcal·mol⁻¹   T·S(vib)
   ------------------------------------------------------------------------
       1    236.74    -0.00000 ( 99.80%)     0.01376 (  0.20%)     0.00003
   ------------------------------------------------------------------------

   temp. (K)  partition function   enthalpy   heat capacity  entropy
                                   cal/mol     cal/K/mol   cal/K/mol   J/K/mol
 298.15  VIB   1.97                  789.225      6.630      4.000
         ROT  0.263E+05              888.752      2.981     23.206
         INT  0.519E+05             1677.977      9.611     27.206
         TR   0.473E+27             1481.254      4.968     38.278
         TOT                        3159.2310    14.5788    65.4841   273.9856

   temp. (K)  partition function   enthalpy   heat capacity  entropy
                                   cal/mol     cal/K/mol   cal/K/mol   J/K/mol
 120.00  VIB   1.07                   54.088      1.603      0.591
         ROT  0.672E+04              357.707      2.981     20.493
         INT  0.720E+04              411.795      4.583     21.084
         TR   0.121E+27              596.178      4.968     33.759
         TOT                        1007.9725     9.5516    54.8426   229.4615

   temp. (K)  partition function   enthalpy   heat capacity  entropy
                                   cal/mol     cal/K/mol   cal/K/mol   J/K/mol
 100.00  VIB   1.04                   27.335      1.079      0.348
         ROT  0.511E+04              298.089      2.981     19.950
         INT  0.530E+04              325.424      4.060     20.298
         TR   0.919E+26              496.815      4.968     32.853
         TOT                         822.2390     9.0281    53.1513   222.3849

   temp. (K)  partition function   enthalpy   heat capacity  entropy
                                   cal/mol     cal/K/mol   cal/K/mol   J/K/mol
  80.00  VIB   1.02                   10.581      0.608      0.163
         ROT  0.366E+04              238.471      2.981     19.284
         INT  0.371E+04              249.052      3.589     19.448
         TR   0.657E+26              397.452      4.968     31.745
         TOT                         646.5039     8.5569    51.1928   214.1909

   temp. (K)  partition function   enthalpy   heat capacity  entropy
                                   cal/mol     cal/K/mol   cal/K/mol   J/K/mol
  60.00  VIB   1.00                    2.394      0.232      0.047
         ROT  0.237E+04              178.853      2.981     18.427
         INT  0.238E+04              181.247      3.213     18.474
         TR   0.427E+26              298.089      4.968     30.317
         TOT                         479.3361     8.1812    48.7911   204.1420

   temp. (K)  partition function   enthalpy   heat capacity  entropy
                                   cal/mol     cal/K/mol   cal/K/mol   J/K/mol
  40.00  VIB   1.00                    0.136      0.029      0.004
         ROT  0.129E+04              119.236      2.981     17.218
         INT  0.129E+04              119.372      3.010     17.222
         TR   0.232E+26              198.726      4.968     28.303
         TOT                         318.0977     7.9781    45.5252   190.4773

   temp. (K)  partition function   enthalpy   heat capacity  entropy
                                   cal/mol     cal/K/mol   cal/K/mol   J/K/mol
  20.00  VIB   1.00                    0.000      0.000     -0.002
         ROT   457.                   59.618      2.981     15.152
         INT   457.                   59.618      2.981     15.150
         TR   0.822E+25               99.363      4.968     24.861
         TOT                         158.9808     7.9491    40.0116   167.4085

   temp. (K)  partition function   enthalpy   heat capacity  entropy
                                   cal/mol     cal/K/mol   cal/K/mol   J/K/mol
  10.00  VIB   1.00                    0.000      0.000     -0.003
         ROT   162.                   29.809      2.981     13.086
         INT   162.                   29.809      2.981     13.082
         TR   0.290E+25               49.681      4.968     21.419
         TOT                          79.4904     7.9490    34.5018   144.3555

       T/K    H(0)-H(T)+PV         H(T)/Eh          T*S/Eh         G(T)/Eh
   ------------------------------------------------------------------------
    298.15    0.503456E-02    0.226812E-01    0.311136E-01   -0.843240E-02
    120.00    0.160631E-02    0.192530E-01    0.104877E-01    0.876531E-02
    100.00    0.131032E-02    0.189570E-01    0.847020E-02    0.104868E-01
     80.00    0.103027E-02    0.186769E-01    0.652648E-02    0.121505E-01
     60.00    0.763871E-03    0.184105E-01    0.466522E-02    0.137453E-01
     40.00    0.506921E-03    0.181536E-01    0.290196E-02    0.152516E-01
     20.00    0.253352E-03    0.179000E-01    0.127525E-02    0.166248E-01
     10.00    0.126676E-03    0.177733E-01    0.549821E-03    0.172235E-01 (used)
   ------------------------------------------------------------------------

         :::::::::::::::::::::::::::::::::::::::::::::::::::::
         ::                  THERMODYNAMIC                  ::
         :::::::::::::::::::::::::::::::::::::::::::::::::::::
         :: total free energy         -11.070833085938 Eh   ::
         ::.................................................::
         :: total energy              -11.088056613417 Eh   ::
         :: zero point energy           0.017646672614 Eh   ::
         :: G(RRHO) w/o ZPVE           -0.000423145135 Eh   ::
         :: G(RRHO) contrib.            0.017223527479 Eh   ::
         :::::::::::::::::::::::::::::::::::::::::::::::::::::

optimized geometry written to: xtbopt.xyz


           -------------------------------------------------
          | TOTAL ENERGY              -11.088056613417 Eh   |
          | TOTAL ENTHALPY            -11.070283264788 Eh   |
          | TOTAL FREE ENERGY         -11.070833085938 Eh   |
          | GRADIENT NORM               0.000417949149 Eh/α |
          | HOMO-LUMO GAP               1.652764596632 eV   |
           -------------------------------------------------

------------------------------------------------------------------------
 * finished run on 2020/05/12 at 11:44:16.718     
------------------------------------------------------------------------
 total:
 * wall-time:     0 d,  0 h,  0 min,  0.217 sec
 *  cpu-time:     0 d,  0 h,  0 min,  0.216 sec
 * ratio c/w:     0.998 speedup
 SCF:
 * wall-time:     0 d,  0 h,  0 min,  0.005 sec
 *  cpu-time:     0 d,  0 h,  0 min,  0.005 sec
 * ratio c/w:     0.999 speedup
 ANC optimizer:
 * wall-time:     0 d,  0 h,  0 min,  0.091 sec
 *  cpu-time:     0 d,  0 h,  0 min,  0.091 sec
 * ratio c/w:     0.998 speedup
 numerical hessian:
 * wall-time:     0 d,  0 h,  0 min,  0.106 sec
 *  cpu-time:     0 d,  0 h,  0 min,  0.105 sec
 * ratio c/w:     0.998 speedup

