5
 energy: -10.974047380266 gnorm: 0.144483542906 xtb: 6.2.2 (9d81278992624c895f80dd42a50cac0aa55982e2)
C         1.25510100000000   -0.58463100000000   -0.20765400000000
C         0.01588100000000   -0.27605800000000    0.60140400000000
N        -0.79296200000000    0.73806000000000   -0.12112800000000
C        -1.15650600000000   -0.68710700000000   -0.15955500000000
C         0.67848600000000    0.80973600000000   -0.11306600000000
5
 energy: -11.000505208822 gnorm: 0.116188264397 xtb: 6.2.2 (9d81278992624c895f80dd42a50cac0aa55982e2)
C         1.27348743792309   -0.53987027585861   -0.16722904466124
C         0.01631208189144   -0.34801080556345    0.59840848318637
N        -0.77568887126687    0.74030042698307   -0.10615568561410
C        -1.16324648631581   -0.63945368635440   -0.15709148147281
C         0.64913583776816    0.78703434079339   -0.16793127143822
5
 energy: -11.042211592335 gnorm: 0.079279143573 xtb: 6.2.2 (9d81278992624c895f80dd42a50cac0aa55982e2)
C         1.31825577168505   -0.40587153664948   -0.07522026804011
C         0.02005926077918   -0.55018280210691    0.61018165046792
N        -0.70693236083478    0.75746217841769   -0.09203797633425
C        -1.18080570729301   -0.51350753498903   -0.14304536532764
C         0.54942303566357    0.71209969532773   -0.29987704076592
5
 energy: -11.050371230498 gnorm: 0.070726246308 xtb: 6.2.2 (9d81278992624c895f80dd42a50cac0aa55982e2)
C         1.38799965295009   -0.36805971438731   -0.01921271683730
C         0.01853090484404   -0.62022679583912    0.57059765309304
N        -0.72487929885899    0.79080978963310   -0.06346859258389
C        -1.21679957991946   -0.48104383252985   -0.13086227271259
C         0.53514832098432    0.67852055312318   -0.35705307095925
5
 energy: -11.055895163228 gnorm: 0.049715021150 xtb: 6.2.2 (9d81278992624c895f80dd42a50cac0aa55982e2)
C         1.41497388010504   -0.31886249012466    0.01604862562865
C         0.01493596122725   -0.68020125739839    0.52309747778801
N        -0.73463090605280    0.82422356456292   -0.06800995770506
C        -1.23334973064735   -0.46623326452767   -0.09666029503725
C         0.53807079536786    0.64107344748780   -0.37447485067436
5
 energy: -11.058477116409 gnorm: 0.041438001139 xtb: 6.2.2 (9d81278992624c895f80dd42a50cac0aa55982e2)
C         1.40766616739376   -0.31047277168562    0.03332763593621
C         0.02033519983592   -0.69530806485241    0.49755379936704
N        -0.74775459272263    0.84537944161262   -0.06510071524592
C        -1.21018451785128   -0.45908087837824   -0.08628956042496
C         0.52993774334422    0.61948227330365   -0.37949015963237
5
 energy: -11.061924530314 gnorm: 0.046379808568 xtb: 6.2.2 (9d81278992624c895f80dd42a50cac0aa55982e2)
C         1.40911361998060   -0.29957776756338    0.06922011485293
C         0.04389963199016   -0.72979124495055    0.44940396418440
N        -0.76375682525801    0.87393258842870   -0.06447614646854
C        -1.18902608203556   -0.43442422632484   -0.06675982998395
C         0.49976965532281    0.58986065041007   -0.38738710258484
5
 energy: -11.066858705327 gnorm: 0.076932218843 xtb: 6.2.2 (9d81278992624c895f80dd42a50cac0aa55982e2)
C         1.38127338124660   -0.30331174759976    0.15227159190951
C         0.13142093907199   -0.79583243896380    0.34059180796860
N        -0.81388943474528    0.94644049748864   -0.06895264710341
C        -1.11312729441354   -0.37930660037784   -0.03159088484061
C         0.41432240884023    0.53201028945276   -0.39231886793409
5
 energy: -11.069415765841 gnorm: 0.052216465266 xtb: 6.2.2 (9d81278992624c895f80dd42a50cac0aa55982e2)
C         1.38765836170763   -0.29550743728446    0.15647508684161
C         0.12931499099197   -0.81816389390337    0.36065121387066
N        -0.80732752176506    0.94360833703646   -0.06621012547768
C        -1.11638724661253   -0.36531663844230   -0.03861718953150
C         0.40674141567799    0.53537963259367   -0.41229798570309
5
 energy: -11.073661028806 gnorm: 0.061773142106 xtb: 6.2.2 (9d81278992624c895f80dd42a50cac0aa55982e2)
C         1.35099947756795   -0.31906854337929    0.13402660549470
C         0.13460223778383   -0.81920810491142    0.42506341597474
N        -0.80563913196569    0.93670066890429   -0.07496572266700
C        -1.08033775886701   -0.36205948546478   -0.06493671876543
C         0.40037517548091    0.56363546485119   -0.41918658003702
5
 energy: -11.078684628930 gnorm: 0.052440486727 xtb: 6.2.2 (9d81278992624c895f80dd42a50cac0aa55982e2)
C         1.31805039184488   -0.33907822922573    0.12168506665984
C         0.15946616474561   -0.86048828262868    0.47555439227732
N        -0.82877214278248    0.96546854126719   -0.10979195700090
C        -1.03051717687726   -0.34709831314227   -0.06933913808056
C         0.38177276306925    0.58119628372948   -0.41810736385570
5
 energy: -11.083300638316 gnorm: 0.047431284598 xtb: 6.2.2 (9d81278992624c895f80dd42a50cac0aa55982e2)
C         1.28646825821527   -0.37068781145264    0.03171803076094
C         0.14693914019106   -0.87967572666868    0.60817435842572
N        -0.84576462727089    0.97207620978951   -0.19803262402621
C        -1.00573997393438   -0.36726457385889   -0.07093678848238
C         0.41809720279893    0.64555190219069   -0.37092197667805
5
 energy: -11.085041666097 gnorm: 0.032201798823 xtb: 6.2.2 (9d81278992624c895f80dd42a50cac0aa55982e2)
C         1.27319454962211   -0.37396515435328    0.02619523287375
C         0.16807194979239   -0.90725111667426    0.60166866524310
N        -0.86373118748271    0.98963713901194   -0.23939146053966
C        -0.97708518470233   -0.34732811736068   -0.04542357204248
C         0.39954987277054    0.63890724937627   -0.34304786553472
5
 energy: -11.086720682520 gnorm: 0.022429581917 xtb: 6.2.2 (9d81278992624c895f80dd42a50cac0aa55982e2)
C         1.26619019443357   -0.38561284605053   -0.00719083780128
C         0.15884608617766   -0.88042389359204    0.62213165640109
N        -0.86065506924265    0.97130970400934   -0.26188905517031
C        -0.97620283349121   -0.35592053755798   -0.04199622993717
C         0.41182162212262    0.65064757319121   -0.31105453349233
5
 energy: -11.087700273616 gnorm: 0.016466428309 xtb: 6.2.2 (9d81278992624c895f80dd42a50cac0aa55982e2)
C         1.25325465981958   -0.41667777658607   -0.06860605281381
C         0.14833645084950   -0.84106838290413    0.66828372907386
N        -0.87180255482580    0.95118594214873   -0.30792137304920
C        -0.95158654600083   -0.36015982855933   -0.03704774943933
C         0.42179799015755    0.66672004590080   -0.25470755377152
5
 energy: -11.087954762671 gnorm: 0.011068294534 xtb: 6.2.2 (9d81278992624c895f80dd42a50cac0aa55982e2)
C         1.26083105995114   -0.40810126479837   -0.05099876564832
C         0.15170686078334   -0.84547461442926    0.64696693314040
N        -0.87184947153321    0.95337044200791   -0.29429960357127
C        -0.95216915895845   -0.35035108350098   -0.03567737157524
C         0.41148070975718    0.65055652072070   -0.26599019234556
5
 energy: -11.088037461348 gnorm: 0.002075166914 xtb: 6.2.2 (9d81278992624c895f80dd42a50cac0aa55982e2)
C         1.25808218655285   -0.40962191034736   -0.05690176575022
C         0.15403029503749   -0.85290794844829    0.65727303872985
N        -0.87519774579437    0.95719278831136   -0.30501585652561
C        -0.94800890249151   -0.34866102386339   -0.03361624468938
C         0.41109416669554    0.65399809434768   -0.26173817176464
5
 energy: -11.088047689957 gnorm: 0.001306019494 xtb: 6.2.2 (9d81278992624c895f80dd42a50cac0aa55982e2)
C         1.25897185982478   -0.41080307963374   -0.05952307469652
C         0.15292845205868   -0.84906160714531    0.65719412004867
N        -0.87521151134782    0.95535933351791   -0.30619726130167
C        -0.94860582155968   -0.34941425643930   -0.03300441282871
C         0.41191702102404    0.65391960970045   -0.25846837122176
5
 energy: -11.088049984371 gnorm: 0.001324600162 xtb: 6.2.2 (9d81278992624c895f80dd42a50cac0aa55982e2)
C         1.26027188137883   -0.41056229655229   -0.05906354477992
C         0.15296322514885   -0.84846407289039    0.65603762721678
N        -0.87510793549942    0.95536883302060   -0.30560285373583
C        -0.94955710192448   -0.34932548109771   -0.03288922812141
C         0.41142993089623    0.65298301751978   -0.25848100057962
5
 energy: -11.088053022450 gnorm: 0.001158283500 xtb: 6.2.2 (9d81278992624c895f80dd42a50cac0aa55982e2)
C         1.26222133065060   -0.41042331883654   -0.05851125968354
C         0.15320582955552   -0.84732819960904    0.65488849355066
N        -0.87503193986727    0.95593404066723   -0.30456703399974
C        -0.95111804066634   -0.34979062719405   -0.03316452641287
C         0.41072282032749    0.65160810497240   -0.25864467345450
5
 energy: -11.088055515923 gnorm: 0.001029257493 xtb: 6.2.2 (9d81278992624c895f80dd42a50cac0aa55982e2)
C         1.26371659541128   -0.41037855916971   -0.05797955473155
C         0.15361125179888   -0.84560027681479    0.65434276336240
N        -0.87476121888612    0.95648839629882   -0.30298530336236
C        -0.95244355015962   -0.35053959460357   -0.03418191982164
C         0.40987692183558    0.65003003428924   -0.25919498544684
5
 energy: -11.088056613162 gnorm: 0.000415918977 xtb: 6.2.2 (9d81278992624c895f80dd42a50cac0aa55982e2)
C         1.26308091746703   -0.41067981052781   -0.05849275474028
C         0.15383021825396   -0.84483648853846    0.65514295696361
N        -0.87473785771098    0.95660374977756   -0.30250346044035
C        -0.95214945679179   -0.35102452042733   -0.03520922893840
C         0.40997617878179    0.64993706971604   -0.25893651284458
