[Molden Format]
[Title]
[Atoms] AU
C      1     6  0.23868723364101E+01 -0.77608498537110E+00 -0.11054225374781E+00
C      2     6  0.29069291750909E+00 -0.15965087965997E+01  0.12380424179748E+01
N      3     7 -0.16530073587686E+01  0.18077265865829E+01 -0.57164602389643E+00
C      4     6 -0.17993052415642E+01 -0.66333084008586E+00 -0.66528355084970E-01
C      5     6  0.77474734642025E+00  0.12281980354771E+01 -0.48932389551967E+00
[GTO]
           1 0
 s           4   1.0000000000000000     
   51.049363095579913      -0.16312063210127389     
   8.7911227406887544      -0.19911024581000730     
  0.70640422258929825       0.31882047753655751     
  0.26922813413411617       0.12706504184240380     
 p           4   1.0000000000000000     
   5.8263656140800002       0.73716451545209605     
   1.5106896018720002       0.68216371614850257     
  0.53256483288000001       0.35783053929253711     
  0.21202323690600003        5.3983030275847881E-002

           2 0
 s           4   1.0000000000000000     
   51.049363095579913      -0.16312063210127389     
   8.7911227406887544      -0.19911024581000730     
  0.70640422258929825       0.31882047753655751     
  0.26922813413411617       0.12706504184240380     
 p           4   1.0000000000000000     
   5.8263656140800002       0.73716451545209605     
   1.5106896018720002       0.68216371614850257     
  0.53256483288000001       0.35783053929253711     
  0.21202323690600003        5.3983030275847881E-002

           3 0
 s           4   1.0000000000000000     
   63.594024466941008      -0.19234388414721629     
   10.951417231523665      -0.23478107924953728     
  0.87999310257376984       0.37593753901700888     
  0.33538715296521110       0.14982889271862770     
 p           4   1.0000000000000000     
   7.2965040481495080       0.97658666315667420     
   1.8918745450712575       0.90372226730345739     
  0.66694432110824120       0.47404958461536373     
  0.26552202674130870        7.1516067715011844E-002

           4 0
 s           4   1.0000000000000000     
   51.049363095579913      -0.16312063210127389     
   8.7911227406887544      -0.19911024581000730     
  0.70640422258929825       0.31882047753655751     
  0.26922813413411617       0.12706504184240380     
 p           4   1.0000000000000000     
   5.8263656140800002       0.73716451545209605     
   1.5106896018720002       0.68216371614850257     
  0.53256483288000001       0.35783053929253711     
  0.21202323690600003        5.3983030275847881E-002

           5 0
 s           4   1.0000000000000000     
   51.049363095579913      -0.16312063210127389     
   8.7911227406887544      -0.19911024581000730     
  0.70640422258929825       0.31882047753655751     
  0.26922813413411617       0.12706504184240380     
 p           4   1.0000000000000000     
   5.8263656140800002       0.73716451545209605     
   1.5106896018720002       0.68216371614850257     
  0.53256483288000001       0.35783053929253711     
  0.21202323690600003        5.3983030275847881E-002

[MO]
Sym=     1a
Ene=  -0.75890514091631978     
Spin= Alpha
Occup=     2.00000000
           1 -0.16183384007699542     
           2   9.3943405249085732E-002
           3  -3.0193690791680747E-002
           4  -9.5056701928465780E-003
           5 -0.22082020873340277     
           6   2.1293449959285102E-002
           7  -9.4391963241131083E-002
           8   7.8128068333018413E-002
           9 -0.28063888264127074     
          10 -0.12404359319490810     
          11  0.15741752613764776     
          12  -3.8673723102699731E-002
          13 -0.29962263627401176     
          14 -0.12259813505062353     
          15  -9.6032183369151328E-002
          16   2.6849072626445839E-003
          17 -0.32453207659475641     
          18  0.12114374811779244     
          19   9.5828457024815655E-002
          20  -3.5983352420473229E-002
Sym=     2a
Ene=  -0.69583872983285111     
Spin= Alpha
Occup=     2.00000000
           1  0.36603168974972755     
           2 -0.10644782208666033     
           3   1.6442227212216064E-002
           4   4.4030455800205252E-002
           5  0.30147771036089055     
           6  0.10725987828182852     
           7   3.8097944231959113E-002
           8  -7.0655479776695951E-002
           9 -0.38910424972852886     
          10  -5.4845255918443331E-002
          11   9.3154694816888983E-002
          12  -1.3722621155555896E-003
          13  -9.9849439977214086E-002
          14   9.1110768251672386E-002
          15 -0.17758221979948377     
          16   6.5065073682061367E-002
          17   3.8592670001166930E-002
          18  0.24527535704822664     
          19 -0.17688226526555370     
          20   6.8151823627345995E-002
Sym=     3a
Ene=  -0.64907283219924872     
Spin= Alpha
Occup=     2.00000000
           1  0.19578264716273780     
           2   8.4113429782690149E-003
           3  0.14162403264734302     
           4  -4.4627580890329650E-002
           5 -0.27441902336147467     
           6  0.21553336553987415     
           7   3.4857062401188375E-002
           8   1.9142667884562970E-002
           9  0.11977469591716140     
          10  0.22992941599130176     
          11  0.15643166444036768     
          12  -8.8077214782992380E-002
          13 -0.42621222616058857     
          14   8.8256227562427941E-003
          15  0.10052983777159423     
          16 -0.11857047029410252     
          17  0.43366105388048304     
          18   7.4580085504500973E-002
          19  0.11087716596563257     
          20  -6.8732527583544978E-002
Sym=     4a
Ene=  -0.60177312436849073     
Spin= Alpha
Occup=     2.00000000
           1  0.25922426213967092     
           2   3.5261872113373616E-002
           3   2.8322437874375071E-002
           4  -9.2034409645308263E-002
           5 -0.24815415046479067     
           6  0.15904871616243679     
           7  -3.8651273039493374E-003
           8  -8.7981864315766212E-002
           9   6.6213647368648376E-002
          10 -0.34761867912754030     
          11 -0.29741821299405791     
          12 -0.14782555544626466     
          13  0.15617166077517164     
          14 -0.19710221080580745     
          15  0.19140941208600168     
          16 -0.26188841850858424     
          17 -0.12379632944540089     
          18  0.16577076102013447     
          19 -0.24810695346989403     
          20 -0.14053464803703988     
Sym=     5a
Ene=  -0.58523830149774547     
Spin= Alpha
Occup=     2.00000000
           1  0.12608861632073751     
           2   5.4403428991125095E-002
           3  -6.9430718126188319E-003
           4  0.23314268006044248     
           5   5.9622985270129630E-002
           6  0.21218066399094856     
           7  0.13077816518524141     
           8  0.18515965903732132     
           9  0.22075367228726711     
          10 -0.19520869447409719     
          11   3.9305635028568313E-002
          12  0.36891461643555434     
          13 -0.12860920757575145     
          14 -0.15044908129662884     
          15  0.27979000444737517     
          16  0.19402145521633446     
          17 -0.11893280848958422     
          18   3.8687527415124850E-002
          19   5.2639842219409025E-002
          20  0.36494096422284816     
Sym=     6a
Ene=  -0.57249840291806076     
Spin= Alpha
Occup=     2.00000000
           1 -0.11483128946604244     
           2   6.0785844300938134E-002
           3  0.39221038136912956     
           4 -0.15121786485136110     
           5 -0.28697504079680780     
           6 -0.30023640461002393     
           7  0.20183916250373415     
           8   4.5301896001192409E-002
           9 -0.24704765200769069     
          10  -2.8188547813446412E-002
          11 -0.10404863476521185     
          12  0.22485994879487486     
          13  0.17528327162745022     
          14  -6.4472028020919253E-002
          15   3.7059674254595258E-003
          16  0.17151228464688262     
          17  0.23947827867346380     
          18  0.25769508983201583     
          19  -2.4290610071244563E-002
          20  0.11618567298799273     
Sym=     7a
Ene=  -0.51319923794660138     
Spin= Alpha
Occup=     2.00000000
           1 -0.24016068583140304     
           2 -0.13326062418467916     
           3  -5.8975971102155904E-002
           4   8.1904953462930002E-002
           5 -0.20389836399379230     
           6  0.13646036265641026     
           7  0.22121228067050655     
           8  -4.5036892090817099E-002
           9 -0.44454875660649429     
          10  0.23139492041766169     
          11 -0.34130934065219454     
          12   8.2098249977031773E-002
          13 -0.23199644737443317     
          14  0.25416565821607068     
          15  0.20731877865517884     
          16 -0.13226595815187422     
          17 -0.13782129998728190     
          18 -0.25030597705541457     
          19 -0.24554564464933271     
          20  0.14406914460293752     
Sym=     8a
Ene=  -0.47525500422040545     
Spin= Alpha
Occup=     2.00000000
           1 -0.22691501549827819     
           2  -3.0815964043360834E-002
           3  0.23927003074257516     
           4  0.38035253348548126     
           5  0.30071057085025732     
           6   6.2613184023162974E-002
           7   6.2171069227901860E-002
           8  0.46309341602477483     
           9 -0.12546440394303768     
          10   1.5184649219600008E-002
          11 -0.23273519183636809     
          12 -0.47307609449415994     
          13   7.9167265191674607E-002
          14 -0.13281485685736297     
          15   7.5224169490819854E-004
          16 -0.11324576007212844     
          17  0.13176810442943229     
          18   9.8503095402336580E-002
          19  0.10575615304613543     
          20  -2.7754178209517703E-002
Sym=     9a
Ene=  -0.45799920918105008     
Spin= Alpha
Occup=     2.00000000
           1 -0.32403498373434453     
           2 -0.35347186391621555     
           3  0.19644367688233752     
           4  -7.7387192366296653E-002
           5   5.3027872950480240E-002
           6 -0.10639646947486092     
           7  0.21839307776869879     
           8   1.1615313333949731E-002
           9  0.35586151007491418     
          10 -0.37057054881478901     
          11  0.31396519290472208     
          12 -0.21292761934914062     
          13 -0.28933876088896104     
          14  0.25093293685186246     
          15   8.1058471023898251E-002
          16   5.9720188689621027E-002
          17 -0.11585354762365979     
          18   3.5001032762986738E-002
          19 -0.29815622941855691     
          20  -5.0784345370157385E-002
Sym=    10a
Ene=  -0.43878519780651731     
Spin= Alpha
Occup=     1.99999984
           1 -0.19582391706191027     
           2 -0.21318880089924044     
           3   7.9194818686309620E-002
           4  0.29162598592062233     
           5 -0.23792099346388387     
           6  0.11780415312410890     
           7   9.5492095907800181E-002
           8 -0.39539983823909070     
           9   5.1806777230117444E-002
          10  -4.8720060615004314E-002
          11  0.19600180967458386     
          12  -1.0619034457327649E-002
          13  0.25923088249443976     
          14 -0.15456645963085217     
          15 -0.32506954410610361     
          16 -0.38787148299158003     
          17   4.3362266195797347E-002
          18   3.1441447013577026E-002
          19  0.15588759554879000     
          20  0.40741663604023171     
Sym=    11a
Ene=  -0.40903266722194548     
Spin= Alpha
Occup=     1.00000016
           1 -0.36721911814587510     
           2 -0.55575348609553110     
           3  -4.3877345649934528E-002
           4 -0.15377173231458849     
           5  0.18098073985480348     
           6  0.18038382460374339     
           7 -0.41348937001690694     
           8  -3.5493575121790743E-003
           9 -0.10838460400642046     
          10  -5.7782420432870595E-002
          11 -0.14588487591217478     
          12  0.35804505310940354     
          13  -4.2693476556497204E-002
          14 -0.22780629251165277     
          15  0.13184886412414820     
          16   6.4202899527046186E-004
          17  0.25879555837365431     
          18  0.17081457977418271     
          19  0.10302303309014921     
          20 -0.16023225841390620     
Sym=    12a
Ene=  -0.34829468591024315     
Spin= Alpha
Occup=     0.00000000
           1   3.0808393819796952E-002
           2 -0.27222013885870622     
           3 -0.24732486878126467     
           4  -2.1193365924169264E-002
           5 -0.18752190729258017     
           6  0.17687003258488465     
           7  0.52827308598141176     
           8  -8.7693653169661195E-003
           9 -0.11103797953663894     
          10  0.15605874503176442     
          11  0.14304493337585350     
          12 -0.15407684770838087     
          13  0.19589352550260652     
          14 -0.51301894594302588     
          15  -7.9106662426910612E-002
          16  0.43423240271390107     
          17   4.1095545317340479E-003
          18 -0.14645868680824428     
          19  -3.9121569166781736E-002
          20 -0.30508137358793025     
Sym=    13a
Ene=  -0.30040164005750408     
Spin= Alpha
Occup=     0.00000000
           1   6.0093761996612434E-002
           2  -1.1154528404944755E-003
           3  0.20228580813199162     
           4 -0.17862878771280938     
           5   5.8601368199287684E-002
           6   7.5083829971380397E-002
           7  -3.6304040523749324E-002
           8  0.50827571152875306     
           9   7.0814391896849641E-002
          10  0.21678621192145411     
          11  0.27629723726981764     
          12  0.35783002474864933     
          13  0.11318829815717484     
          14 -0.23979404026574230     
          15 -0.30596915507569011     
          16 -0.40194029915809776     
          17 -0.11374354475632624     
          18 -0.28738800939599035     
          19 -0.50830062635276951     
          20  -1.5934384325006500E-002
Sym=    14a
Ene=  -0.25603190066887571     
Spin= Alpha
Occup=     0.00000000
           1   7.9095827972659419E-002
           2 -0.16301290147219227     
           3 -0.24414053147409262     
           4 -0.64430233784435209     
           5   7.1611187794928879E-002
           6  -7.4466187847396309E-002
           7  -2.4843568583045383E-002
           8  0.20224830336119023     
           9  -1.0872679665615011E-002
          10   4.2715694757012743E-002
          11  -9.1080098587555725E-002
          12 -0.43359265903427879     
          13  -7.5758099037813539E-002
          14 -0.18326291974358522     
          15   2.3907180376081718E-002
          16  -1.5165914299814126E-002
          17   4.2348094777575646E-002
          18  -2.8136505495575167E-002
          19   7.5568641323567415E-002
          20  0.74551718862903193     
Sym=    15a
Ene=  -0.23195911724862844     
Spin= Alpha
Occup=     0.00000000
           1   4.1683855278489536E-002
           2  -6.8498341423092546E-003
           3  0.37672397463102364     
           4  0.23880315878796873     
           5 -0.14367149176836166     
           6  -3.1241932183424963E-002
           7 -0.57922776016409694     
           8 -0.29064651402795127     
           9   9.1351732134934957E-002
          10  0.23508144863505850     
          11  -4.3741266681842896E-002
          12 -0.26821330740296434     
          13 -0.13035230330911893     
          14 -0.30950177166284315     
          15   4.0009644129028583E-002
          16  0.47448902909040747     
          17  -8.2078128627344177E-002
          18 -0.23334119726568398     
          19 -0.45024733000484268     
          20  0.20138128686580847     
Sym=    16a
Ene=    9.6136690472697503E-002
Spin= Alpha
Occup=     0.00000000
           1   6.2951776731275819E-002
           2 -0.11749978317381286     
           3  0.58759504061733725     
           4 -0.33524448279530494     
           5  0.34268904260685701     
           6  0.30406303108978322     
           7  0.13518572180908325     
           8 -0.22169845613279399     
           9  0.13700493387797122     
          10  0.55936442453978996     
          11   5.8726018123244926E-002
          12  -3.0352097455408469E-002
          13  0.22984022365489792     
          14   4.0177376801444072E-002
          15  0.28943451381161828     
          16  -4.4216235534019002E-002
          17 -0.91640712577560601     
          18  0.25604598682289054     
          19  0.39313435648964856     
          20  -7.5280636247057331E-002
Sym=    17a
Ene=   0.23726379085773155     
Spin= Alpha
Occup=     0.00000000
           1  0.15155014288395544     
           2  -5.5328047819468887E-002
           3  0.28557924627180015     
           4 -0.12021123377188074     
           5  0.23403117057851083     
           6  -4.2937035468518125E-002
           7  0.28697089107815077     
           8 -0.17189809987415597     
           9  0.44652886949746601     
          10 -0.17891214918970857     
          11 -0.78539864836742312     
          12  0.19246059832824969     
          13 -0.75104881932390755     
          14 -0.23171405506886195     
          15 -0.76613162810842994     
          16   5.0732830343027883E-002
          17 -0.14223338777046587     
          18 -0.29669096354808927     
          19  0.25844345379840439     
          20  -9.2572037763459111E-002
Sym=    18a
Ene=   0.28286825627809403     
Spin= Alpha
Occup=     0.00000000
           1  0.45248355312522376     
           2 -0.51377527641526366     
           3 -0.34141415946776954     
           4  0.43014097167460841     
           5 -0.17781667602616807     
           6 -0.93854486884831578     
           7   1.6614237579064117E-002
           8  0.13000808975615449     
           9  0.28073378634852725     
          10  0.45865693312783112     
          11  -8.0407589140772034E-002
          12   8.2647551306182399E-002
          13 -0.31605693161462300     
          14 -0.23025733237189952     
          15  0.18708754708377057     
          16 -0.31053014406493290     
          17 -0.33041238454097227     
          18  0.45497777473635193     
          19  -4.7007812423517634E-002
          20  -4.7318325892967923E-002
Sym=    19a
Ene=   0.32161163392935865     
Spin= Alpha
Occup=     0.00000000
           1   5.4703546011276923E-002
           2 -0.28665299189465476     
           3 -0.15909855046388294     
           4   4.6317123413958994E-002
           5 -0.74330966757713357     
           6  0.43544554737650942     
           7 -0.23413136095031681     
           8  0.49848286952367088     
           9  0.49925162037232579     
          10  0.17966271830833108     
          11 -0.31956113203089481     
          12  -1.5024759954199511E-002
          13  0.37168860186203084     
          14  0.63666920671348670     
          15 -0.55344276928240066     
          16  0.40982304641125306     
          17 -0.21472949903564248     
          18  0.42710174237385312     
          19  -4.6951403141383519E-002
          20   6.6613420150494332E-002
Sym=    20a
Ene=   0.57953701102085908     
Spin= Alpha
Occup=     0.00000000
           1 -0.82179743596149579     
           2  0.64044026476906757     
           3 -0.43208363549247591     
           4  -6.7366870402059742E-002
           5  0.41245603242781131     
           6  0.18771714874760875     
           7  0.24143336700835830     
           8 -0.30241979544569486     
           9  0.51745827465966532     
          10  0.48081553338169336     
          11 -0.14155224485433254     
          12   3.2251694471695826E-002
          13 -0.21655720465906669     
          14 -0.24140335104999888     
          15 -0.12572320962253958     
          16  -1.6141277201133484E-002
          17  0.16748085003805033     
          18  0.82408293893172380     
          19 -0.61977529179619295     
          20   8.1697580013632365E-002
