 Entering Gaussian System
 *********************************************
 Gaussian 98:
 frequency output generated by the xtb code
 *********************************************
                         Standard orientation:
 --------------------------------------------------------------------
  Center     Atomic     Atomic              Coordinates (Angstroms)
  Number     Number      Type              X           Y           Z
 --------------------------------------------------------------------
    1          6             0       -0.734737    0.715564    0.466087
    2          6             0       -0.714406   -0.678210    0.593859
    3          6             0       -0.342003   -0.764926   -0.752968
    4          7             0        0.401544    0.294162   -0.227769
    5          1             0        1.389602    0.433411   -0.079210
 --------------------------------------------------------------------
     1 basis functions        1 primitive gaussians
     1 alpha electrons        1 beta electrons

 Harmonic frequencies (cm**-1), IR intensities (KM/Mole),
 Raman scattering activities (A**4/amu), Raman depolarization ratios,
 reduced masses (AMU), force constants (mDyne/A) and normal coordinates:
                      1                      2                      3
                        a                      a                      a 
 Frequencies --   536.9893               582.0996               731.0905
 Red. masses --    10.7305                 8.2354                 9.6622
 Frc consts  --     0.0000                 0.0000                 0.0000
 IR Inten    --     0.7102                 0.2163                 0.6229
 Raman Activ --     0.0000                 0.0000                 0.0000
 Depolar     --     0.0000                 0.0000                 0.0000
 Atom AN      X      Y      Z        X      Y      Z        X      Y      Z
   1   6    -0.10  -0.10  -0.50    -0.30   0.09  -0.06    -0.01   0.33   0.22
   2   6     0.18  -0.17   0.27     0.59   0.22  -0.08     0.17   0.21  -0.20
   3   6    -0.24   0.45  -0.04    -0.26  -0.05  -0.17     0.15  -0.26  -0.26
   4   7     0.14  -0.23   0.33    -0.02  -0.14   0.16    -0.27  -0.34   0.33
   5   1     0.04   0.25  -0.29    -0.01  -0.38   0.46    -0.06   0.32  -0.40
                      4                      5                      6
                        a                      a                      a 
 Frequencies --   852.5906               984.8972              1082.7879
 Red. masses --    12.4350                 2.6186                11.3372
 Frc consts  --     0.0000                 0.0000                 0.0000
 IR Inten    --     0.1414                 0.2031                 1.2098
 Raman Activ --     0.0000                 0.0000                 0.0000
 Depolar     --     0.0000                 0.0000                 0.0000
 Atom AN      X      Y      Z        X      Y      Z        X      Y      Z
   1   6     0.40   0.15  -0.26    -0.14   0.08  -0.03     0.33   0.22  -0.17
   2   6     0.08  -0.31  -0.25     0.03  -0.11  -0.09     0.01  -0.24   0.29
   3   6    -0.35  -0.34   0.10     0.11   0.02   0.12     0.33   0.23  -0.16
   4   7    -0.11   0.43   0.35    -0.05   0.19   0.16    -0.58  -0.14  -0.02
   5   1    -0.03   0.11   0.09     0.19  -0.70  -0.58    -0.16  -0.23   0.22
                      7                      8                      9
                        a                      a                      a 
 Frequencies --  1319.0593              1432.7469              3405.3807
 Red. masses --    12.0897                12.1575                 1.8788
 Frc consts  --     0.0000                 0.0000                 0.0000
 IR Inten    --     0.5471                 0.1523                 0.2903
 Raman Activ --     0.0000                 0.0000                 0.0000
 Depolar     --     0.0000                 0.0000                 0.0000
 Atom AN      X      Y      Z        X      Y      Z        X      Y      Z
   1   6     0.18  -0.48  -0.09    -0.23   0.46   0.10     0.00  -0.01  -0.00
   2   6    -0.11   0.43   0.35    -0.12  -0.37   0.41     0.00   0.00  -0.00
   3   6    -0.00  -0.21  -0.48    -0.05  -0.23  -0.46    -0.00   0.00   0.01
   4   7    -0.07   0.26   0.22     0.33   0.13  -0.06    -0.25  -0.04  -0.03
   5   1     0.02  -0.09  -0.08     0.10   0.00   0.03     0.95   0.14   0.13
