 Entering Gaussian System
 *********************************************
 Gaussian 98:
 frequency output generated by the xtb code
 *********************************************
                         Standard orientation:
 --------------------------------------------------------------------
  Center     Atomic     Atomic              Coordinates (Angstroms)
  Number     Number      Type              X           Y           Z
 --------------------------------------------------------------------
    1          6             0        1.244447    0.060139   -0.596743
    2          6             0       -0.000377    0.001132   -0.242772
    3          6             0       -1.244508   -0.060491    0.110863
    4          6             0        2.445426    0.123262   -0.934287
    5          6             0       -2.444992   -0.124044    0.451884
 --------------------------------------------------------------------
     1 basis functions        1 primitive gaussians
     1 alpha electrons        1 beta electrons

 Harmonic frequencies (cm**-1), IR intensities (KM/Mole),
 Raman scattering activities (A**4/amu), Raman depolarization ratios,
 reduced masses (AMU), force constants (mDyne/A) and normal coordinates:
                      1                      2                      3
                        a                      a                      a 
 Frequencies --   121.0575               121.0916               290.2136
 Red. masses --    12.0107                12.0107                12.0107
 Frc consts  --     0.0000                 0.0000                 0.0000
 IR Inten    --     0.3085                 0.3289                 0.1508
 Raman Activ --     0.0000                 0.0000                 0.0000
 Depolar     --     0.0000                 0.0000                 0.0000
 Atom AN      X      Y      Z        X      Y      Z        X      Y      Z
   1   6    -0.07   0.01  -0.25     0.01  -0.26  -0.02    -0.13   0.16  -0.44
   2   6    -0.15   0.03  -0.53     0.02  -0.55  -0.04     0.19  -0.23   0.64
   3   6    -0.07   0.01  -0.25     0.01  -0.25  -0.02    -0.13   0.16  -0.44
   4   6     0.14  -0.03   0.51    -0.02   0.53   0.03     0.03  -0.04   0.12
   5   6     0.15  -0.03   0.51    -0.02   0.53   0.04     0.04  -0.04   0.12
                      4                      5                      6
                        a                      a                      a 
 Frequencies --   290.2490               343.3321               343.3439
 Red. masses --    12.0107                12.0107                12.0107
 Frc consts  --     0.0000                 0.0000                 0.0000
 IR Inten    --     0.2223                 0.0010                 0.0036
 Raman Activ --     0.0000                 0.0000                 0.0000
 Depolar     --     0.0000                 0.0000                 0.0000
 Atom AN      X      Y      Z        X      Y      Z        X      Y      Z
   1   6    -0.02  -0.46  -0.16    -0.17  -0.07  -0.60    -0.05   0.63  -0.06
   2   6     0.03   0.67   0.23     0.00   0.00   0.00    -0.00  -0.00   0.00
   3   6    -0.02  -0.46  -0.16     0.17   0.07   0.60     0.05  -0.63   0.06
   4   6     0.00   0.12   0.04     0.08   0.03   0.31     0.03  -0.32   0.03
   5   6     0.01   0.12   0.04    -0.08  -0.03  -0.31    -0.03   0.32  -0.03
                      7                      8                      9
                        a                      a                      a 
 Frequencies --   814.5852              1470.5416              1690.4562
 Red. masses --    12.0107                12.0107                12.0107
 Frc consts  --     0.0000                 0.0000                 0.0000
 IR Inten    --     0.0034                 4.8442                 2.1381
 Raman Activ --     0.0000                 0.0000                 0.0000
 Depolar     --     0.0000                 0.0000                 0.0000
 Atom AN      X      Y      Z        X      Y      Z        X      Y      Z
   1   6    -0.40  -0.02   0.11     0.43   0.02  -0.12    -0.30  -0.01   0.09
   2   6     0.00  -0.00  -0.00     0.16   0.01  -0.04     0.84   0.04  -0.24
   3   6     0.40   0.02  -0.11     0.43   0.02  -0.12    -0.30  -0.01   0.08
   4   6    -0.55  -0.03   0.15    -0.51  -0.03   0.14    -0.12  -0.01   0.03
   5   6     0.55   0.03  -0.16    -0.51  -0.03   0.15    -0.12  -0.01   0.04
                     10
                        a 
 Frequencies --  2006.1823
 Red. masses --    12.0107
 Frc consts  --     0.0000
 IR Inten    --     0.0030
 Raman Activ --     0.0000
 Depolar     --     0.0000
 Atom AN      X      Y      Z        X      Y      Z        X      Y      Z
   1   6    -0.55  -0.03   0.16
   2   6    -0.00  -0.00   0.00
   3   6     0.55   0.03  -0.16
   4   6     0.40   0.02  -0.11
   5   6    -0.40  -0.02   0.11
