[Molden Format]
[Title]
[Atoms] AU
C      1     6  0.23516643972899E+01  0.11364604608253E+00 -0.11276800177250E+01
C      2     6 -0.71149180161346E-03  0.21389997019723E-02 -0.45877185979191E+00
C      3     6 -0.23517799130940E+01 -0.11431123707785E+00  0.20950091920564E+00
C      4     6  0.46211840971610E+01  0.23293086083804E+00 -0.17655455314112E+01
C      5     6 -0.46203650781581E+01 -0.23440866379384E+00  0.85393631993966E+00
[GTO]
           1 0
 s           4   1.0000000000000000     
   51.049363095579913      -0.16312063210127389     
   8.7911227406887544      -0.19911024581000730     
  0.70640422258929825       0.31882047753655751     
  0.26922813413411617       0.12706504184240380     
 p           4   1.0000000000000000     
   5.8263656140800002       0.73716451545209605     
   1.5106896018720002       0.68216371614850257     
  0.53256483288000001       0.35783053929253711     
  0.21202323690600003        5.3983030275847881E-002

           2 0
 s           4   1.0000000000000000     
   51.049363095579913      -0.16312063210127389     
   8.7911227406887544      -0.19911024581000730     
  0.70640422258929825       0.31882047753655751     
  0.26922813413411617       0.12706504184240380     
 p           4   1.0000000000000000     
   5.8263656140800002       0.73716451545209605     
   1.5106896018720002       0.68216371614850257     
  0.53256483288000001       0.35783053929253711     
  0.21202323690600003        5.3983030275847881E-002

           3 0
 s           4   1.0000000000000000     
   51.049363095579913      -0.16312063210127389     
   8.7911227406887544      -0.19911024581000730     
  0.70640422258929825       0.31882047753655751     
  0.26922813413411617       0.12706504184240380     
 p           4   1.0000000000000000     
   5.8263656140800002       0.73716451545209605     
   1.5106896018720002       0.68216371614850257     
  0.53256483288000001       0.35783053929253711     
  0.21202323690600003        5.3983030275847881E-002

           4 0
 s           4   1.0000000000000000     
   51.049363095579913      -0.16312063210127389     
   8.7911227406887544      -0.19911024581000730     
  0.70640422258929825       0.31882047753655751     
  0.26922813413411617       0.12706504184240380     
 p           4   1.0000000000000000     
   5.8263656140800002       0.73716451545209605     
   1.5106896018720002       0.68216371614850257     
  0.53256483288000001       0.35783053929253711     
  0.21202323690600003        5.3983030275847881E-002

           5 0
 s           4   1.0000000000000000     
   51.049363095579913      -0.16312063210127389     
   8.7911227406887544      -0.19911024581000730     
  0.70640422258929825       0.31882047753655751     
  0.26922813413411617       0.12706504184240380     
 p           4   1.0000000000000000     
   5.8263656140800002       0.73716451545209605     
   1.5106896018720002       0.68216371614850257     
  0.53256483288000001       0.35783053929253711     
  0.21202323690600003        5.3983030275847881E-002

[MO]
Sym=     1a
Ene=  -0.67481245584765270     
Spin= Alpha
Occup=     2.00000000
           1  0.36220232698788568     
           2  -9.2509114046025076E-002
           3  -4.0823344007910913E-003
           4   2.6527565392399016E-002
           5  0.51026384637408195     
           6  -3.7797545871474773E-004
           7  -3.1603718282073741E-004
           8   1.2079974023818721E-004
           9  0.36309071417508504     
          10   9.2659394291110489E-002
          11   4.2921695265058677E-003
          12  -2.6358500529540335E-002
          13  0.14857237338128215     
          14  -8.8506611548425720E-002
          15  -4.5226933683825913E-003
          16   2.4963433847374292E-002
          17  0.14900547741363901     
          18   8.8595073483980963E-002
          19   4.5943205268978654E-003
          20  -2.5170296137830249E-002
Sym=     2a
Ene=  -0.66489307653269747     
Spin= Alpha
Occup=     2.00000000
           1  0.38557249324642817     
           2   6.8886155569531468E-002
           3   3.9860761149532100E-003
           4  -1.9169809051787390E-002
           5   2.6820792656996232E-004
           6  0.23423563431567435     
           7   1.1606025200385540E-002
           8  -6.6489914503441452E-002
           9 -0.38459688722201285     
          10   6.8674142913825842E-002
          11   3.8284788111829565E-003
          12  -1.9472878948047941E-002
          13  0.30049999570652353     
          14 -0.12697220621628338     
          15  -6.5849805588190291E-003
          16   3.5736483606412607E-002
          17 -0.29983096158815759     
          18 -0.12645797587367688     
          19  -6.6533660298571167E-003
          20   3.5925483384953057E-002
Sym=     3a
Ene=  -0.63997750229047867     
Spin= Alpha
Occup=     2.00000000
           1  0.13169737913380231     
           2  0.27740540224907384     
           3   1.4004023214483900E-002
           4  -7.8327913751279524E-002
           5 -0.31109070165126884     
           6  -9.1213201406780667E-005
           7   1.0604381233961596E-004
           8   1.6939311703389500E-004
           9  0.13204417168674579     
          10 -0.27752926474010520     
          11  -1.4244086272690779E-002
          12   7.8891460729607593E-002
          13  0.38032100311839956     
          14  -9.7564860181202223E-002
          15  -5.2261772964664792E-003
          16   2.7358845024309374E-002
          17  0.38107146650295087     
          18   9.7595640703024344E-002
          19   5.2581146625897447E-003
          20  -2.7709571104347287E-002
Sym=     4a
Ene=  -0.59230049722393174     
Spin= Alpha
Occup=     2.00000000
           1  0.15507822609224417     
           2 -0.30813897428154408     
           3  -1.5489466927430069E-002
           4   8.7005934330149790E-002
           5   3.2272842411948269E-004
           6  0.39878079839567182     
           7   1.8799805936446212E-002
           8 -0.11358612192291953     
           9 -0.15487179641270385     
          10 -0.30760468059754426     
          11  -1.6090295013330255E-002
          12   8.7345337500471215E-002
          13 -0.33733663462273838     
          14   2.7302614101112127E-003
          15   3.6986037254632637E-004
          16  -6.3426017430732616E-004
          17  0.33742024599081383     
          18   2.7366711721855388E-003
          19   2.2676215781830840E-004
          20  -7.8534858541128830E-004
Sym=     5a
Ene=  -0.52101974791355332     
Spin= Alpha
Occup=     2.00000000
           1   3.7306507979287934E-004
           2 -0.11165110070693338     
           3  0.11707134829200345     
           4 -0.37442309098366439     
           5   7.2968854888679754E-005
           6 -0.14491490942624685     
           7  0.15129476051106083     
           8 -0.48380459495791428     
           9   2.4819320026723776E-004
          10 -0.11235703181322629     
          11  0.11706989155576103     
          12 -0.37433593216115146     
          13   2.7553319674193958E-005
          14  -5.8826136493967979E-002
          15   6.1710651168310322E-002
          16 -0.19736983891517337     
          17  -2.4525577786211772E-005
          18  -5.9166089175434131E-002
          19   6.1633602136597514E-002
          20 -0.19707444585650055     
Sym=     6a
Ene=  -0.52101958574099105     
Spin= Alpha
Occup=     2.00000000
           1  -1.1462897353251194E-003
           2   1.3457743594577359E-002
           3  0.39020631727542393     
           4  0.11799200294409506     
           5   6.5709613997708290E-004
           6   1.9237473844966761E-002
           7  0.50446476752343261     
           8  0.15199322567689702     
           9   4.3057253581692544E-004
          10   1.3166047571421761E-002
          11  0.39029792644698841     
          12  0.11811091298627427     
          13  -1.3702084602938100E-004
          14   7.0107999437487361E-003
          15  0.20567874191958410     
          16   6.2218789199946944E-002
          17   5.3218987692368240E-004
          18   6.8458044960055201E-003
          19  0.20547820454393792     
          20   6.2206973175259417E-002
Sym=     7a
Ene=  -0.46370086058751292     
Spin= Alpha
Occup=     2.00000000
           1   3.0235143536270015E-003
           2  -2.9826218760505521E-002
           3 -0.42273889433854855     
           4 -0.18332326910532512     
           5  -1.2986251644028634E-003
           6  -2.1434022446734736E-004
           7   4.7338398952936341E-004
           8   2.8384482800064884E-004
           9   1.8974277784801034E-003
          10   2.9957965569997639E-002
          11  0.42258682597246672     
          12  0.18321496330391990     
          13  -4.4539128666414018E-003
          14  -3.1541463447100085E-002
          15 -0.39846227961226133     
          16 -0.17174998315642501     
          17  -2.9908448533508708E-003
          18   3.0494761571419695E-002
          19  0.39775322726527268     
          20  0.17174046333770338     
Sym=     8a
Ene=  -0.46369981907537833     
Spin= Alpha
Occup=     2.00000000
           1   1.0047429153403056E-004
           2 -0.12354691529029792     
           3  0.18432184513950861     
           4 -0.40494567520786834     
           5   5.2722341569897584E-005
           6   1.3086262586995224E-006
           7  -2.1668959784847540E-004
           8   5.0148365370267212E-004
           9  -3.0096277527986997E-004
          10  0.12457403389332004     
          11 -0.18419838028095026     
          12  0.40448443942919404     
          13  -6.2031733636199048E-005
          14 -0.11643367310304681     
          15  0.17365801734154918     
          16 -0.38151256252356797     
          17   3.6450785297655714E-004
          18  0.11695189683371301     
          19 -0.17333662359509269     
          20  0.38067782535991684     
Sym=     9a
Ene=  -0.44559398734317596     
Spin= Alpha
Occup=     1.99974997
           1 -0.17081666520554276     
           2  -9.9088034761830368E-002
           3  -8.3322160053418762E-003
           4   2.6702183741105525E-002
           5  0.19825399182747641     
           6  -2.9944808368135369E-004
           7  -2.0593056874443856E-004
           8  -4.5973974637241832E-004
           9 -0.17114855749304844     
          10   9.9784899623707693E-002
          11   8.0670422667624090E-003
          12  -2.7097976182353194E-002
          13  0.46992610277331315     
          14  0.44927518570165303     
          15   1.9831894104835684E-002
          16 -0.12769319318862946     
          17  0.47104308397784717     
          18 -0.45008078457572376     
          19  -2.0462162575916047E-002
          20  0.12932962762827668     
Sym=    10a
Ene=  -0.42983528826548251     
Spin= Alpha
Occup=     1.00025003
           1  -8.5219967660161586E-002
           2 -0.18065658068318274     
           3  -9.3510462099314282E-003
           4   5.0628094915387702E-002
           5   3.6203480088914706E-004
           6  0.19749383483223562     
           7   7.8812492575396336E-003
           8  -5.6832418518540248E-002
           9   8.4934349582636376E-002
          10 -0.18021433521119176     
          11  -8.5310621144198406E-003
          12   5.1807588843756462E-002
          13  0.42388547709256985     
          14  0.47783374987757560     
          15   2.5344145769344878E-002
          16 -0.13453273422765055     
          17 -0.42255681026995723     
          18  0.47645135621817947     
          19   2.6753923169592349E-002
          20 -0.13439839770564505     
Sym=    11a
Ene=  -0.37372223744322586     
Spin= Alpha
Occup=     0.50003866
           1  -3.2884202707958020E-006
           2  -1.5119933321965248E-002
           3   2.3456979617749410E-002
           4  -4.9113078181298758E-002
           5  -8.9155400497704319E-006
           6  0.16157917085485926     
           7 -0.25109533724961830     
           8  0.52576370986585630     
           9  -5.1009255573749294E-007
          10  -1.5122124065601057E-002
          11   2.3589130215765679E-002
          12  -4.9401463501246939E-002
          13   6.1607221841347099E-005
          14 -0.15104042712571819     
          15  0.23588942907493174     
          16 -0.49405440842509168     
          17   1.2079891282200866E-004
          18 -0.15339471058231116     
          19  0.23630913397521267     
          20 -0.49457525204136538     
Sym=    12a
Ene=  -0.37372194362860861     
Spin= Alpha
Occup=     0.49996134
           1   1.1168315157569665E-004
           2   4.3200915357632713E-003
           3   5.1329980061557139E-002
           4   2.3187184504546481E-002
           5  -8.9631129483800514E-004
           6  -4.5117941754437257E-002
           7 -0.54935912619674543     
           8 -0.24849812842263780     
           9   1.5714912323444778E-004
          10   4.6645971671385802E-003
          11   5.1623890237511842E-002
          12   2.3219643088098051E-002
          13  -4.4469226310400452E-004
          14   3.7465001241255284E-002
          15  0.51576584158201344     
          16  0.23480291741567830     
          17   5.6442228431149218E-004
          18   3.7892104596275282E-002
          19  0.51691829990599647     
          20  0.23523178502889316     
Sym=    13a
Ene=  -0.22340407939183940     
Spin= Alpha
Occup=     0.00000000
           1  -2.9462460744232792E-003
           2   3.9597055714995548E-002
           3  0.52290521539252899     
           4  0.22940029319603009     
           5   2.0088413281021396E-003
           6   4.5038942293377181E-004
           7   5.1877126586920568E-004
           8   9.7352747191045336E-005
           9  -1.7398790930269071E-003
          10  -3.9054906824312480E-002
          11 -0.52286993493062417     
          12 -0.22954188672281109     
          13  -2.8883639419503604E-004
          14  -3.9709639799813214E-002
          15 -0.53678229021503865     
          16 -0.23577460798972907     
          17  -1.3808906238341377E-004
          18   3.9609625993803979E-002
          19  0.53633303525497977     
          20  0.23559136667648298     
Sym=    14a
Ene=  -0.22340147314331596     
Spin= Alpha
Occup=     0.00000000
           1   1.2234030579116179E-004
           2 -0.15300335705220178     
           3  0.23125547188896123     
           4 -0.50073702078540294     
           5   9.2648487839128873E-005
           6  -3.8764435223802356E-004
           7   2.1270656122744777E-004
           8  -4.1531939644690226E-004
           9  -3.3863042232650984E-004
          10  0.15409018504189156     
          11 -0.23120168190718271     
          12  0.50042082106965613     
          13   2.9930330929628572E-005
          14  0.15699958613624693     
          15 -0.23741521823526876     
          16  0.51408753551550335     
          17  -4.9488586143733530E-005
          18 -0.15820293825455020     
          19  0.23715472393026368     
          20 -0.51328182913969411     
Sym=    15a
Ene=   -9.6890011994588951E-002
Spin= Alpha
Occup=     0.00000000
           1   2.3332810366453339E-003
           2  -3.6274079648990758E-002
           3 -0.60305072131374871     
           4 -0.23667116178022499     
           5   6.9996673539629139E-004
           6   3.9212096166608180E-002
           7  0.64292033788352276     
           8  0.25215899244195161     
           9  -1.8143010023804662E-003
          10  -3.6417569905984597E-002
          11 -0.60310964098824371     
          12 -0.23666016046613580     
          13  -3.1700089767093493E-004
          14   2.3446785500094026E-002
          15  0.37906467871097921     
          16  0.14857077376133732     
          17   2.5299714791688466E-004
          18   2.3364963642879759E-002
          19  0.37875530401402052     
          20  0.14847242541021893     
Sym=    16a
Ene=   -9.6887025508509833E-002
Spin= Alpha
Occup=     0.00000000
           1  -1.2955941825977682E-003
           2  0.17567003361413300     
           3 -0.23733329355508484     
           4  0.57777601940382828     
           5   1.4315498746700673E-003
           6 -0.18737139146032000     
           7  0.25299432054039245     
           8 -0.61591919242526894     
           9  -1.3141635059105733E-003
          10  0.17587214930608264     
          11 -0.23732368322172664     
          12  0.57777030364031634     
          13   1.6873821131993302E-004
          14 -0.11071669804813791     
          15  0.14915280394346814     
          16 -0.36305736205792605     
          17   1.7207443892848105E-004
          18 -0.11012844053171884     
          19  0.14904526236055127     
          20 -0.36290327104255998     
Sym=    17a
Ene=   0.10869672698537731     
Spin= Alpha
Occup=     0.00000000
           1 -0.74430115740862191     
           2  0.25362065059244632     
           3   9.9935754004779245E-003
           4  -7.4459537245326099E-002
           5  0.93156475467623845     
           6   1.2404327334810099E-003
           7  -1.6402497438865397E-003
           8   6.3233721350840276E-004
           9 -0.74370861190673032     
          10 -0.25309273832308643     
          11  -9.7743414928352854E-003
          12   7.1537971897430955E-002
          13  0.17571350093591420     
          14 -0.37885041193744151     
          15  -1.8417476917168229E-002
          16  0.10788860569982964     
          17  0.17611378415465540     
          18  0.37920345523363208     
          19   1.8466915575564662E-002
          20 -0.10756764900431437     
Sym=    18a
Ene=   0.52325815674500076     
Spin= Alpha
Occup=     0.00000000
           1  0.90747773740960858     
           2  0.15529878226860230     
           3   1.1322495738633835E-002
           4  -4.1918891885172692E-002
           5  -8.6791321192239304E-004
           6 -0.71851981691148692     
           7  -3.6625942238391093E-002
           8  0.20354458852237170     
           9 -0.90899332672404354     
          10  0.15784993255724236     
          11   1.0204596097358864E-002
          12  -4.4539889520289366E-002
          13 -0.42972945071182228     
          14  0.56120468895551801     
          15   2.8525026413472196E-002
          16 -0.15825724519556830     
          17  0.43167714876994762     
          18  0.56307248787241371     
          19   2.9243035276781616E-002
          20 -0.16004824754250141     
Sym=    19a
Ene=    1.0435589468478608     
Spin= Alpha
Occup=     0.00000000
           1  0.33523185547046619     
           2  0.93441272898584715     
           3   4.7608364320489066E-002
           4 -0.26361420034867655     
           5  0.77711748816012749     
           6  -1.6942176905536720E-003
           7  -1.1899457282957930E-003
           8  -6.4819823311774053E-005
           9  0.33096647449644229     
          10 -0.93357897275663948     
          11  -4.7957879101132306E-002
          12  0.26541131294886477     
          13 -0.62992467174470856     
          14  0.62655176872336105     
          15   3.3343415392471855E-002
          16 -0.17582472071336525     
          17 -0.62791318870536816     
          18 -0.62388387605895856     
          19  -3.3424689783532122E-002
          20  0.17717134537540846     
Sym=    20a
Ene=    1.4477175536070215     
Spin= Alpha
Occup=     0.00000000
           1  0.21943466908674339     
           2  -1.0629787900439671     
           3  -5.2394563340049119E-002
           4  0.30085205638502038     
           5   1.3272360898522418E-003
           6  -1.2235151340850012     
           7  -5.8441697160183007E-002
           8  0.34819121718642365     
           9 -0.22182061723441765     
          10  -1.0627957612513297     
          11  -5.4537222647300009E-002
          12  0.30191906425271420     
          13  0.51483066996892912     
          14 -0.45160400755078228     
          15  -2.4538632212853927E-002
          16  0.12644499800583126     
          17 -0.51388984732354137     
          18 -0.45029172372353238     
          19  -2.4224157520559869E-002
          20  0.12791456292353851     
