      -----------------------------------------------------------      
     |                   =====================                   |     
     |                           x T B                           |     
     |                   =====================                   |     
     |                         S. Grimme                         |     
     |          Mulliken Center for Theoretical Chemistry        |     
     |                    University of Bonn                     |     
      -----------------------------------------------------------      

   * xtb version 6.2.2 (9d81278992624c895f80dd42a50cac0aa55982e2) compiled by '@Darwin' on 04/03/2020

   xtb is free software: you can redistribute it and/or modify it under
   the terms of the GNU Lesser General Public License as published by
   the Free Software Foundation, either version 3 of the License, or
   (at your option) any later version.
   
   xtb is distributed in the hope that it will be useful,
   but WITHOUT ANY WARRANTY; without even the implied warranty of
   MERCHANTABILITY or FITNESS FOR A PARTICULAR PURPOSE.  See the
   GNU Lesser General Public License for more details.
   
   Cite this work as:
   * S. Grimme, C. Bannwarth, P. Shushkov, J. Chem. Theory Comput., 2017,
     13, 1989-2009. DOI: 10.1021/acs.jctc.7b00118
   * C. Bannwarth, S. Ehlert and S. Grimme., J. Chem. Theory Comput., 2019,
     15, 1652-1671. DOI: 10.1021/acs.jctc.8b01176
   * P. Pracht, E. Caldeweyher, S. Ehlert, S. Grimme, ChemRxiv, 2019, preprint.
     DOI: 10.26434/chemrxiv.8326202.v1
   
   for DFT-D4:
   * E. Caldeweyher, C. Bannwarth and S. Grimme, J. Chem. Phys., 2017,
     147, 034112. DOI: 10.1063/1.4993215
   * E. Caldeweyher, S. Ehlert, A. Hansen, H. Neugebauer, S. Spicher,
     C. Bannwarth and S. Grimme, J. Chem. Phys., 2019, 150, 154122.
     DOI: 10.1063/1.5090222
   
   for sTDA-xTB:
   * S. Grimme and C. Bannwarth, J. Chem. Phys., 2016, 145, 054103.
     DOI: 10.1063/1.4959605
   
   in the mass-spec context:
   * V. Asgeirsson, C. Bauer and S. Grimme, Chem. Sci., 2017, 8, 4879.
     DOI: 10.1039/c7sc00601b
   
   for metadynamics refer to:
   * S. Grimme, J. Chem. Theory Comput., 2019, 155, 2847-2862
     DOI: 10.1021/acs.jctc.9b00143
   
   with help from (in alphabetical order)
   C. Bannwarth, F. Bohle, G. Brandenburg, E. Caldeweyher, M. Checinski,
   S. Dohm, S. Ehlert, S. Ehrlich, F. März, H. Neugebauer, J. Pisarek,
   P. Pracht, P. Shushkov, and S. Spicher.
   
 * started run on 2020/05/12 at 11:44:31.834     

           -------------------------------------------------
          |                Calculation Setup                |
           -------------------------------------------------

          program call               : xtb --input C5_2_S_2.input C5_2_S_2.xyz --ohess --molden --namespace C5_2_S_2 output.out
          calculation namespace      : C5_2_S_2
          coordinate file            : C5_2_S_2.xyz
          number of atoms            :                     5
          number of electrons        :                    20
          charge                     :                     0
          spin                       :                   1.0
          first test random number   :      0.53374067019537

   ID    Z sym.   atoms
    1    6 C      1-5

           -------------------------------------------------
          |                 G F N 2 - x T B                 |
           -------------------------------------------------

        Reference                      10.1021/acs.jctc.8b01176
      * Hamiltonian:
        H0-scaling (s, p, d)           1.850000    2.230000    2.230000
        zeta-weighting                 0.500000
      * Dispersion:
        s8                             2.700000
        a1                             0.520000
        a2                             5.000000
        s9                             5.000000
      * Repulsion:
        kExp                           1.500000    1.000000
        rExp                           1.000000
      * Coulomb:
        alpha                          2.000000
        third order                    shell-resolved
        anisotropic                    true
        a3                             3.000000
        a5                             4.000000
        cn-shift                       1.200000
        cn-exp                         4.000000
        max-rad                        5.000000


          ...................................................
          :                      SETUP                      :
          :.................................................:
          :  # basis functions                  20          :
          :  # atomic orbitals                  20          :
          :  # shells                           10          :
          :  # electrons                        20          :
          :  max. iterations                   250          :
          :  Hamiltonian                  GFN2-xTB          :
          :  restarted?                      false          :
          :  GBSA solvation                  false          :
          :  PC potential                    false          :
          :  electronic temp.          300.0000000     K    :
          :  accuracy                    1.0000000          :
          :  -> integral cutoff          0.2500000E+02      :
          :  -> integral neglect         0.1000000E-07      :
          :  -> SCF convergence          0.1000000E-05 Eh   :
          :  -> wf. convergence          0.1000000E-03 e    :
          :  Broyden damping             0.4000000          :
          ...................................................

 iter      E             dE          RMSdq      gap      omega  full diag
   1    -10.0164990 -0.100165E+02  0.123E+01    0.98       0.0  T
   2     -9.2279985  0.788500E+00  0.111E+01    1.07       1.0  T
   3     -7.9545598  0.127344E+01  0.123E+01    0.43       1.0  T
   4     -6.9327208  0.102184E+01  0.138E+01    1.12       1.0  T
   5    -10.0552926 -0.312257E+01  0.436E+00    0.97       1.0  T
   6    -10.0618304 -0.653785E-02  0.345E+00    0.86       1.0  T
   7    -10.0949097 -0.330793E-01  0.240E+00    0.93       1.0  T
   8    -10.0955567 -0.647019E-03  0.235E+00    0.93       1.0  T
   9    -10.1067546 -0.111979E-01  0.108E+00    0.92       1.0  T
  10    -10.1098741 -0.311949E-02  0.280E-01    0.92       1.0  T
  11    -10.1102187 -0.344596E-03  0.172E-01    0.92       1.0  T
  12    -10.1101523  0.663899E-04  0.145E-01    0.92       1.0  T
  13    -10.1102382 -0.859310E-04  0.102E-02    0.92       4.4  T
  14    -10.1102384 -0.210405E-06  0.578E-03    0.92       7.7  T
  15    -10.1102387 -0.239606E-06  0.214E-03    0.92      20.9  T
  16    -10.1102387 -0.243889E-07  0.791E-04    0.92      56.5  T
  17    -10.1102387 -0.598525E-08  0.220E-04    0.92     203.0  T

   *** convergence criteria satisfied after 17 iterations ***

         #    Occupation            Energy/Eh            Energy/eV
      -------------------------------------------------------------
         1        2.0000           -0.6927356             -18.8503
       ...           ...                  ...                  ...
         5        2.0000           -0.5363032             -14.5936
         6        2.0000           -0.5086086             -13.8399
         7        2.0000           -0.5021869             -13.6652
         8        2.0000           -0.4984886             -13.5646
         9        1.9959           -0.4586762             -12.4812
        10        1.0041           -0.4482490             -12.1975
        11        1.0000           -0.4236416             -11.5279 (HOMO)
        12                         -0.3899136             -10.6101 (LUMO)
        13                         -0.3679545             -10.0126
        14                         -0.3658981              -9.9566
        15                         -0.3188234              -8.6756
        16                         -0.2926306              -7.9629
       ...                                ...                  ...
        20                          0.1191026               3.2409
      -------------------------------------------------------------
                  HL-Gap            0.0337280 Eh            0.9178 eV
             Fermi-level           -0.4301201 Eh          -11.7042 eV

 transition dipole moment (au) for excitation:          10          11
     X       Y       Z   
   1.4147   0.3380  -0.2158  total (au/Debye):    1.470   3.737
 dE (eV)             :    0.670
 oscillator strength :  0.50160E-01

 SCC (total)                   0 d,  0 h,  0 min,  0.006 sec
 SCC setup                      ...        0 min,  0.000 sec (  1.528%)
 Dispersion                     ...        0 min,  0.000 sec (  0.348%)
 integral evaluation            ...        0 min,  0.001 sec ( 23.768%)
 zeroth order Hamiltonian       ...        0 min,  0.000 sec (  0.402%)
 iterations                     ...        0 min,  0.002 sec ( 35.059%)
 molecular gradient             ...        0 min,  0.001 sec ( 22.914%)
 printout                       ...        0 min,  0.001 sec ( 15.794%)

         :::::::::::::::::::::::::::::::::::::::::::::::::::::
         ::                     SUMMARY                     ::
         :::::::::::::::::::::::::::::::::::::::::::::::::::::
         :: total energy             -10.051520693254 Eh    ::
         :: gradient norm              0.368098045782 Eh/a0 ::
         :: HOMO-LUMO gap              0.917786736249 eV    ::
         ::.................................................::
         :: SCC energy               -10.110238712969 Eh    ::
         :: -> isotropic ES           -0.031471050075 Eh    ::
         :: -> anisotropic ES         -0.000605219160 Eh    ::
         :: -> anisotropic XC          0.011380750377 Eh    ::
         :: -> dispersion             -0.002916438772 Eh    ::
         :: repulsion energy           0.058718161175 Eh    ::
         :: add. restraining           0.000000000000 Eh    ::
         :::::::::::::::::::::::::::::::::::::::::::::::::::::

      ----------------------------------------------------------- 
     |                   =====================                   |
     |                        A N C O P T                        |
     |                   =====================                   |
     |               Approximate Normal Coordinate               |
     |                Rational Function Optimizer                |
      ----------------------------------------------------------- 

          ...................................................
          :                      SETUP                      :
          :.................................................:
          :   optimization level            normal          :
          :   max. optcycles                   200          :
          :   ANC micro-cycles                  20          :
          :   degrees of freedom                 9          :
          :.................................................:
          :   RF solver                   davidson          :
          :   write xtbopt.log                true          :
          :   linear?                        false          :
          :   energy convergence         0.5000000E-05 Eh   :
          :   grad. convergence          0.1000000E-02 Eh/α :
          :   maximium RF displ.         1.0000000          :
          :   Hlow (freq-cutoff)         0.1000000E-01      :
          :   Hmax (freq-cutoff)         5.0000000          :
          :   S6 in model hess.         20.0000000          :
          ...................................................

generating ANC from model Hessian ...
Using Lindh-Hessian (1995)
 Shifting diagonal of input Hessian by    6.8971903486273623E-003
 Lowest  eigenvalues of input Hessian
   -0.000000   -0.000000   -0.000000    0.000000    0.000000    0.000000
    0.010000    0.012626    0.046649    0.057627    0.099085    0.647819
    0.759803    0.906215    1.042085
 Highest eigenvalues
    0.057627    0.099085    0.647819    0.759803    0.906215    1.042085


........................................................................
.............................. CYCLE    1 ..............................
........................................................................
   1    -10.1102387 -0.101102E+02  0.976E-05    0.92       0.0  T
   2    -10.1102387  0.996945E-10  0.122E-04    0.92     367.5  T
   3    -10.1102387 -0.501466E-10  0.103E-04    0.92     433.1  T
     SCC iter.                  ...        0 min,  0.001 sec
     gradient                   ...        0 min,  0.001 sec
 * total energy  :   -10.0515207 Eh     change       -0.2231221E-08 Eh
   gradient norm :     0.3680990 Eh/α   predicted     0.0000000E+00 (-100.00%)
   displ. norm   :     0.4386361 α      lambda       -0.1602897E+00
   maximum displ.:     0.4078922 α      in ANC's #6, #8, #7, ...

........................................................................
.............................. CYCLE    2 ..............................
........................................................................
   1    -10.3130047 -0.103130E+02  0.241E+00    0.98       0.0  T
   2    -10.2183879  0.946169E-01  0.372E+00    1.00       1.0  T
   3    -10.3268441 -0.108456E+00  0.124E+00    0.97       1.0  T
   4    -10.3120475  0.147966E-01  0.138E+00    0.97       1.0  T
   5    -10.3249693 -0.129217E-01  0.573E-01    0.92       1.0  T
   6    -10.3287101 -0.374078E-02  0.285E-01    0.95       1.0  T
   7    -10.3292701 -0.559999E-03  0.995E-02    0.95       1.0  T
   8    -10.3293391 -0.690296E-04  0.382E-02    0.95       1.2  T
   9    -10.3293446 -0.550285E-05  0.936E-03    0.95       4.8  T
  10    -10.3293450 -0.425532E-06  0.303E-03    0.95      14.8  T
  11    -10.3293451 -0.491468E-07  0.446E-04    0.95     100.4  T
  12    -10.3293451 -0.128892E-08  0.542E-05    0.95     824.6  T
     SCC iter.                  ...        0 min,  0.001 sec
     gradient                   ...        0 min,  0.001 sec
 * total energy  :   -10.1864441 Eh     change       -0.1349234E+00 Eh
   gradient norm :     0.2305156 Eh/α   predicted    -0.9556482E-01 ( -29.17%)
   displ. norm   :     0.5301322 α      lambda       -0.1207395E+00
   maximum displ.:     0.4793282 α      in ANC's #6, #8, #7, ...

........................................................................
.............................. CYCLE    3 ..............................
........................................................................
   1    -10.5839747 -0.105840E+02  0.277E+00    0.99       0.0  T
   2    -10.5306512  0.533236E-01  0.300E+00    1.05       1.0  T
   3    -10.5539352 -0.232840E-01  0.228E+00    0.93       1.0  T
   4    -10.4901663  0.637689E-01  0.314E+00    1.00       1.0  T
   5    -10.5879215 -0.977552E-01  0.781E-01    0.95       1.0  T
   6    -10.5923245 -0.440294E-02  0.412E-01    0.96       1.0  T
   7    -10.5925843 -0.259809E-03  0.354E-01    0.96       1.0  T
   8    -10.5930298 -0.445483E-03  0.170E-01    0.97       1.0  T
   9    -10.5932617 -0.231914E-03  0.278E-02    0.97       1.6  T
  10    -10.5932640 -0.235144E-05  0.205E-02    0.97       2.2  T
  11    -10.5932657 -0.167440E-05  0.105E-03    0.97      42.8  T
  12    -10.5932657 -0.551422E-09  0.564E-04    0.97      79.3  T
  13    -10.5932657 -0.353102E-09  0.215E-04    0.97     207.7  T
     SCC iter.                  ...        0 min,  0.001 sec
     gradient                   ...        0 min,  0.001 sec
 * total energy  :   -10.2112461 Eh     change       -0.2480199E-01 Eh
   gradient norm :     0.3335099 Eh/α   predicted    -0.7733611E-01 ( 211.81%)
   displ. norm   :     0.4129972 α      lambda       -0.8378267E-01
   maximum displ.:     0.3396733 α      in ANC's #4, #3, #8, ...

........................................................................
.............................. CYCLE    4 ..............................
........................................................................
   1    -10.4876458 -0.104876E+02  0.168E+00    0.63       0.0  T
   2    -10.4501488  0.374970E-01  0.201E+00    0.58       1.0  T
   3    -10.3043528  0.145796E+00  0.395E+00    0.65       1.0  T
   4    -10.4801011 -0.175748E+00  0.117E+00    0.62       1.0  T
   5    -10.4878525 -0.775145E-02  0.617E-01    0.61       1.0  T
   6    -10.4892858 -0.143331E-02  0.419E-01    0.61       1.0  T
   7    -10.4888903  0.395497E-03  0.425E-01    0.61       1.0  T
   8    -10.4899635 -0.107321E-02  0.207E-01    0.61       1.0  T
   9    -10.4902645 -0.300998E-03  0.127E-01    0.61       1.0  T
  10    -10.4903365 -0.719318E-04  0.972E-02    0.61       1.0  T
  11    -10.4903800 -0.435417E-04  0.202E-02    0.61       2.2  T
  12    -10.4903770  0.298886E-05  0.280E-02    0.61       1.6  T
  13    -10.4903812 -0.422238E-05  0.464E-03    0.61       9.6  T
  14    -10.4903813 -0.725814E-07  0.723E-04    0.61      61.9  T
  15    -10.4903813 -0.110811E-09  0.213E-04    0.61     209.6  T
     SCC iter.                  ...        0 min,  0.002 sec
     gradient                   ...        0 min,  0.001 sec
 * total energy  :   -10.2419722 Eh     change       -0.3072605E-01 Eh
   gradient norm :     0.1147130 Eh/α   predicted    -0.4903659E-01 (  59.59%)
   displ. norm   :     0.5745754 α      lambda       -0.2370729E-01
   maximum displ.:     0.4709099 α      in ANC's #2, #4, #3, ...

........................................................................
.............................. CYCLE    5 ..............................
........................................................................
   1    -10.4660198 -0.104660E+02  0.172E+00    0.39       0.0  T
   2    -10.4342155  0.318044E-01  0.187E+00    0.34       1.0  T
   3    -10.2898071  0.144408E+00  0.371E+00    0.41       1.0  T
   4    -10.4554358 -0.165629E+00  0.126E+00    0.38       1.0  T
   5    -10.4665879 -0.111521E-01  0.592E-01    0.36       1.0  T
   6    -10.4689500 -0.236214E-02  0.237E-01    0.36       1.0  T
   7    -10.4688855  0.644795E-04  0.236E-01    0.36       1.0  T
   8    -10.4689556 -0.700637E-04  0.165E-01    0.36       1.0  T
   9    -10.4691270 -0.171428E-03  0.384E-02    0.36       1.2  T
  10    -10.4691328 -0.579857E-05  0.278E-02    0.36       1.6  T
  11    -10.4691348 -0.198445E-05  0.386E-03    0.37      11.6  T
  12    -10.4691348 -0.502788E-07  0.279E-03    0.37      16.0  T
  13    -10.4691349 -0.224118E-07  0.145E-04    0.37     309.2  T
  14    -10.4691349 -0.107656E-09  0.201E-05    0.37    2224.4  T
     SCC iter.                  ...        0 min,  0.001 sec
     gradient                   ...        0 min,  0.001 sec
 * total energy  :   -10.2470720 Eh     change       -0.5099795E-02 Eh
   gradient norm :     0.1150318 Eh/α   predicted    -0.1576696E-01 ( 209.17%)
   displ. norm   :     0.2359755 α      lambda       -0.1620464E-01
   maximum displ.:     0.1224768 α      in ANC's #6, #1, #4, ...

........................................................................
.............................. CYCLE    6 ..............................
........................................................................
   1    -10.4987156 -0.104987E+02  0.122E+00    0.33       0.0  T
   2    -10.4916726  0.704302E-02  0.103E+00    0.33       1.0  T
   3    -10.3900144  0.101658E+00  0.300E+00    0.34       1.0  T
   4    -10.4864821 -0.964676E-01  0.124E+00    0.31       1.0  T
   5    -10.4929799 -0.649782E-02  0.770E-01    0.33       1.0  T
   6    -10.4991423 -0.616244E-02  0.277E-01    0.32       1.0  T
   7    -10.4997547 -0.612409E-03  0.149E-01    0.32       1.0  T
   8    -10.4999631 -0.208401E-03  0.206E-02    0.32       2.2  T
   9    -10.4999640 -0.887679E-06  0.131E-02    0.32       3.4  T
  10    -10.4999644 -0.376616E-06  0.668E-03    0.32       6.7  T
  11    -10.4999644 -0.223308E-07  0.890E-04    0.32      50.2  T
  12    -10.4999644 -0.492825E-09  0.532E-04    0.32      84.1  T
     SCC iter.                  ...        0 min,  0.001 sec
     gradient                   ...        0 min,  0.001 sec
 * total energy  :   -10.2565667 Eh     change       -0.9494787E-02 Eh
   gradient norm :     0.0570373 Eh/α   predicted    -0.8553497E-02 (  -9.91%)
   displ. norm   :     0.5235263 α      lambda       -0.1834892E-01
   maximum displ.:     0.4116391 α      in ANC's #1, #6, #3, ...

........................................................................
.............................. CYCLE    7 ..............................
........................................................................
   1    -10.5640996 -0.105641E+02  0.180E+00    0.26       0.0  T
   2    -10.4339538  0.130146E+00  0.324E+00    0.25       1.0  T
   3    -10.4701948 -0.362409E-01  0.290E+00    0.27       1.0  T
   4    -10.5520251 -0.818304E-01  0.128E+00    0.24       1.0  T
   5    -10.5669522 -0.149270E-01  0.356E-01    0.25       1.0  T
   6    -10.5659004  0.105180E-02  0.429E-01    0.25       1.0  T
   7    -10.5660768 -0.176455E-03  0.402E-01    0.25       1.0  T
   8    -10.5673168 -0.124004E-02  0.344E-02    0.25       1.3  T
   9    -10.5673211 -0.426149E-05  0.280E-02    0.25       1.6  T
  10    -10.5673213 -0.194722E-06  0.305E-02    0.25       1.5  T
  11    -10.5673257 -0.434925E-05  0.130E-02    0.25       3.4  T
  12    -10.5673266 -0.965495E-06  0.758E-03    0.25       5.9  T
  13    -10.5673271 -0.490768E-06  0.220E-04    0.25     203.3  T
  14    -10.5673271 -0.146901E-09  0.119E-04    0.25     375.3  T
     SCC iter.                  ...        0 min,  0.001 sec
     gradient                   ...        0 min,  0.001 sec
 * total energy  :   -10.2599734 Eh     change       -0.3406660E-02 Eh
   gradient norm :     0.0751629 Eh/α   predicted    -0.1168900E-01 ( 243.12%)
   displ. norm   :     0.2802894 α      lambda       -0.1004372E-01
   maximum displ.:     0.1975324 α      in ANC's #4, #2, #3, ...

........................................................................
.............................. CYCLE    8 ..............................
........................................................................
   1    -10.5402406 -0.105402E+02  0.709E-01    0.14       0.0  T
   2    -10.4995800  0.406606E-01  0.180E+00    0.14       1.0  T
   3    -10.5247529 -0.251729E-01  0.116E+00    0.13       1.0  T
   4    -10.5391319 -0.143790E-01  0.475E-01    0.14       1.0  T
   5    -10.5405479 -0.141591E-02  0.184E-01    0.14       1.0  T
   6    -10.5407960 -0.248187E-03  0.769E-02    0.14       1.0  T
   7    -10.5407796  0.164642E-04  0.784E-02    0.14       1.0  T
   8    -10.5408466 -0.669788E-04  0.138E-02    0.14       3.2  T
   9    -10.5408484 -0.185911E-05  0.280E-03    0.14      16.0  T
  10    -10.5408484 -0.305507E-07  0.663E-04    0.14      67.4  T
  11    -10.5408485 -0.331517E-08  0.223E-04    0.14     200.1  T
     SCC iter.                  ...        0 min,  0.001 sec
     gradient                   ...        0 min,  0.001 sec
 * total energy  :   -10.2656338 Eh     change       -0.5660408E-02 Eh
   gradient norm :     0.0326398 Eh/α   predicted    -0.5416394E-02 (  -4.31%)
   displ. norm   :     0.1848819 α      lambda       -0.3135573E-02
   maximum displ.:     0.1154635 α      in ANC's #3, #1, #6, ...

........................................................................
.............................. CYCLE    9 ..............................
........................................................................
   1    -10.5591825 -0.105592E+02  0.914E-01    0.08       0.0  T
   2    -10.4297605  0.129422E+00  0.314E+00    0.09       1.0  T
   3    -10.5599438 -0.130183E+00  0.557E-01    0.09       1.0  T
   4    -10.5567376  0.320616E-02  0.725E-01    0.09       1.0  T
   5    -10.5607897 -0.405210E-02  0.258E-01    0.09       1.0  T
   6    -10.5604086  0.381087E-03  0.288E-01    0.09       1.0  T
   7    -10.5613358 -0.927158E-03  0.526E-02    0.09       1.0  T
   8    -10.5613639 -0.280790E-04  0.202E-02    0.09       2.2  T
   9    -10.5613661 -0.224330E-05  0.679E-03    0.09       6.6  T
  10    -10.5613663 -0.217531E-06  0.246E-03    0.09      18.2  T
  11    -10.5613664 -0.308951E-07  0.958E-04    0.09      46.7  T
  12    -10.5613664 -0.917244E-08  0.157E-04    0.09     284.6  T
     SCC iter.                  ...        0 min,  0.001 sec
     gradient                   ...        0 min,  0.001 sec
 * total energy  :   -10.2651614 Eh     change        0.4723819E-03 Eh
   gradient norm :     0.0759996 Eh/α   predicted    -0.1621376E-02 (-443.23%)
   displ. norm   :     0.3692244 α      lambda       -0.6485978E-02
   maximum displ.:     0.3326719 α      in ANC's #2, #6, #9, ...

........................................................................
.............................. CYCLE   10 ..............................
........................................................................
   1    -10.5258146 -0.105258E+02  0.139E+00    0.09       0.0  T
   2    -10.3960374  0.129777E+00  0.323E+00    0.09       1.0  T
   3    -10.5073711 -0.111334E+00  0.135E+00    0.08       1.0  T
   4    -10.5185825 -0.112114E-01  0.105E+00    0.09       1.0  T
   5    -10.5274431 -0.886065E-02  0.333E-01    0.08       1.0  T
   6    -10.5267614  0.681731E-03  0.381E-01    0.08       1.0  T
   7    -10.5281669 -0.140546E-02  0.677E-02    0.08       1.0  T
   8    -10.5281956 -0.287397E-04  0.112E-02    0.08       4.0  T
   9    -10.5281928  0.278346E-05  0.160E-02    0.08       2.8  T
  10    -10.5281956 -0.279733E-05  0.492E-03    0.08       9.1  T
  11    -10.5281957 -0.116059E-06  0.314E-03    0.08      14.2  T
  12    -10.5281958 -0.749625E-07  0.771E-04    0.08      58.0  T
  13    -10.5281958 -0.408807E-08  0.119E-04    0.08     375.6  T
     SCC iter.                  ...        0 min,  0.001 sec
     gradient                   ...        0 min,  0.001 sec
 * total energy  :   -10.2663756 Eh     change       -0.1214200E-02 Eh
   gradient norm :     0.0382234 Eh/α   predicted    -0.3685094E-02 ( 203.50%)
   displ. norm   :     0.3216983 α      lambda       -0.5504074E-02
   maximum displ.:     0.2797417 α      in ANC's #1, #2, #6, ...

........................................................................
.............................. CYCLE   11 ..............................
........................................................................
   1    -10.5445521 -0.105446E+02  0.139E+00    0.04       0.0  T
   2    -10.5440967  0.455456E-03  0.736E-01    0.05       1.0  T
   3    -10.4377866  0.106310E+00  0.276E+00    0.05       1.0  T
   4    -10.5439429 -0.106156E+00  0.326E-01    0.05       1.0  T
   5    -10.5433589  0.584006E-03  0.373E-01    0.05       1.0  T
   6    -10.5441542 -0.795260E-03  0.217E-01    0.05       1.0  T
   7    -10.5443210 -0.166821E-03  0.166E-01    0.05       1.0  T
   8    -10.5446523 -0.331245E-03  0.216E-02    0.05       2.1  T
   9    -10.5446558 -0.353459E-05  0.807E-03    0.05       5.5  T
  10    -10.5446558 -0.531532E-07  0.355E-03    0.05      12.6  T
  11    -10.5446559 -0.548941E-07  0.377E-03    0.05      11.9  T
  12    -10.5446560 -0.102828E-06  0.602E-04    0.05      74.3  T
  13    -10.5446560 -0.271393E-08  0.338E-04    0.05     132.2  T
     SCC iter.                  ...        0 min,  0.001 sec
     gradient                   ...        0 min,  0.001 sec
 * total energy  :   -10.2685644 Eh     change       -0.2188799E-02 Eh
   gradient norm :     0.0345153 Eh/α   predicted    -0.3036849E-02 (  38.74%)
   displ. norm   :     0.1255190 α      lambda       -0.1824936E-02
   maximum displ.:     0.0868447 α      in ANC's #3, #1, #5, ...

........................................................................
.............................. CYCLE   12 ..............................
........................................................................
   1    -10.5534794 -0.105535E+02  0.584E-01    0.03       0.0  T
   2    -10.5514867  0.199276E-02  0.504E-01    0.03       1.0  T
   3    -10.4884517  0.630350E-01  0.217E+00    0.03       1.0  T
   4    -10.5500327 -0.615810E-01  0.566E-01    0.04       1.0  T
   5    -10.5530266 -0.299394E-02  0.214E-01    0.04       1.0  T
   6    -10.5535326 -0.505944E-03  0.480E-02    0.04       1.0  T
   7    -10.5535584 -0.258129E-04  0.145E-02    0.04       3.1  T
   8    -10.5535584 -0.342459E-07  0.930E-03    0.04       4.8  T
   9    -10.5535575  0.935022E-06  0.121E-02    0.04       3.7  T
  10    -10.5535587 -0.126854E-05  0.574E-03    0.04       7.8  T
  11    -10.5535591 -0.386130E-06  0.544E-04    0.04      82.2  T
  12    -10.5535591 -0.846994E-09  0.306E-04    0.04     146.3  T
     SCC iter.                  ...        0 min,  0.001 sec
     gradient                   ...        0 min,  0.001 sec
 * total energy  :   -10.2697249 Eh     change       -0.1160441E-02 Eh
   gradient norm :     0.0258283 Eh/α   predicted    -0.9268442E-03 ( -20.13%)
   displ. norm   :     0.3361404 α      lambda       -0.2671224E-02
   maximum displ.:     0.1801120 α      in ANC's #1, #6, #3, ...

........................................................................
.............................. CYCLE   13 ..............................
........................................................................
   1    -10.5422924 -0.105423E+02  0.125E+00    0.02       0.0  T
   2    -10.4692634  0.730291E-01  0.244E+00    0.01       1.0  T
   3    -10.4680818  0.118151E-02  0.238E+00    0.01       1.0  T
   4    -10.5413737 -0.732919E-01  0.450E-01    0.01       1.0  T
   5    -10.5418541 -0.480417E-03  0.348E-01    0.01       1.0  T
   6    -10.5425121 -0.657998E-03  0.228E-01    0.01       1.0  T
   7    -10.5430335 -0.521367E-03  0.711E-02    0.01       1.0  T
   8    -10.5430819 -0.484334E-04  0.111E-02    0.01       4.0  T
   9    -10.5430811  0.768756E-06  0.961E-03    0.01       4.7  T
  10    -10.5430821 -0.100471E-05  0.360E-03    0.01      12.4  T
  11    -10.5430820  0.183129E-06  0.520E-03    0.01       8.6  T
  12    -10.5430822 -0.263948E-06  0.101E-03    0.01      44.2  T
  13    -10.5430822 -0.464763E-08  0.632E-04    0.01      70.8  T
  14    -10.5430822 -0.411060E-08  0.932E-05    0.01     479.7  T
     SCC iter.                  ...        0 min,  0.001 sec
     gradient                   ...        0 min,  0.001 sec
 * total energy  :   -10.2710036 Eh     change       -0.1278779E-02 Eh
   gradient norm :     0.0318620 Eh/α   predicted    -0.1486518E-02 (  16.25%)
   displ. norm   :     0.1469612 α      lambda       -0.2058913E-02
   maximum displ.:     0.1020452 α      in ANC's #4, #2, #6, ...

........................................................................
.............................. CYCLE   14 ..............................
........................................................................
   1    -10.5567000 -0.105567E+02  0.460E-01    0.01       0.0  T
   2    -10.5109997  0.457003E-01  0.186E+00    0.01       1.0  T
   3    -10.5531494 -0.421497E-01  0.612E-01    0.01       1.0  T
   4    -10.5559245 -0.277510E-02  0.328E-01    0.01       1.0  T
   5    -10.5566287 -0.704181E-03  0.198E-01    0.01       1.0  T
   6    -10.5569766 -0.347902E-03  0.987E-02    0.01       1.0  T
   7    -10.5570509 -0.743298E-04  0.563E-02    0.01       1.0  T
   8    -10.5570790 -0.281289E-04  0.253E-02    0.01       1.8  T
   9    -10.5570864 -0.734506E-05  0.307E-03    0.01      14.6  T
  10    -10.5570865 -0.106748E-06  0.730E-04    0.01      61.3  T
  11    -10.5570865 -0.363517E-08  0.300E-04    0.01     149.3  T
     SCC iter.                  ...        0 min,  0.001 sec
     gradient                   ...        0 min,  0.001 sec
 * total energy  :   -10.2721510 Eh     change       -0.1147350E-02 Eh
   gradient norm :     0.0179816 Eh/α   predicted    -0.1051691E-02 (  -8.34%)
   displ. norm   :     0.2607321 α      lambda       -0.1084639E-02
   maximum displ.:     0.1572751 α      in ANC's #2, #1, #3, ...

........................................................................
.............................. CYCLE   15 ..............................
........................................................................
   1    -10.5462163 -0.105462E+02  0.762E-01    0.01       0.0  T
   2    -10.5351081  0.111082E-01  0.108E+00    0.01       1.0  T
   3    -10.5112670  0.238411E-01  0.161E+00    0.01       1.0  T
   4    -10.5435688 -0.323017E-01  0.502E-01    0.01       1.0  T
   5    -10.5448326 -0.126380E-02  0.362E-01    0.01       1.0  T
   6    -10.5458225 -0.989962E-03  0.210E-01    0.01       1.0  T
   7    -10.5461447 -0.322227E-03  0.126E-01    0.01       1.0  T
   8    -10.5463166 -0.171900E-03  0.326E-02    0.01       1.4  T
   9    -10.5463282 -0.115075E-04  0.426E-03    0.01      10.5  T
  10    -10.5463284 -0.213637E-06  0.998E-04    0.01      44.8  T
  11    -10.5463284 -0.350313E-08  0.215E-04    0.01     208.2  T
     SCC iter.                  ...        0 min,  0.001 sec
     gradient                   ...        0 min,  0.001 sec
 * total energy  :   -10.2722807 Eh     change       -0.1297118E-03 Eh
   gradient norm :     0.0246850 Eh/α   predicted    -0.5791866E-03 ( 346.52%)
   displ. norm   :     0.0949674 α      lambda       -0.7181019E-03
   maximum displ.:     0.0781652 α      in ANC's #1, #2, #5, ...

........................................................................
.............................. CYCLE   16 ..............................
........................................................................
   1    -10.5584087 -0.105584E+02  0.283E-01    0.01       0.0  T
   2    -10.5401552  0.182535E-01  0.121E+00    0.01       1.0  T
   3    -10.5585220 -0.183668E-01  0.164E-01    0.01       1.0  T
   4    -10.5579428  0.579174E-03  0.257E-01    0.01       1.0  T
   5    -10.5585184 -0.575610E-03  0.686E-02    0.01       1.0  T
   6    -10.5585313 -0.128596E-04  0.556E-02    0.01       1.0  T
   7    -10.5585592 -0.278705E-04  0.248E-02    0.01       1.8  T
   8    -10.5585642 -0.505149E-05  0.128E-02    0.01       3.5  T
   9    -10.5585660 -0.174730E-05  0.318E-03    0.01      14.0  T
  10    -10.5585660 -0.799344E-07  0.160E-03    0.01      27.9  T
  11    -10.5585661 -0.291685E-07  0.147E-05    0.01    3042.6  T
  12    -10.5585661  0.250466E-12  0.101E-05    0.01    4426.4  T
     SCC iter.                  ...        0 min,  0.001 sec
     gradient                   ...        0 min,  0.001 sec
 * total energy  :   -10.2725624 Eh     change       -0.2816621E-03 Eh
   gradient norm :     0.0094529 Eh/α   predicted    -0.3622893E-03 (  28.63%)
   displ. norm   :     0.0811264 α      lambda       -0.3242711E-03
   maximum displ.:     0.0651752 α      in ANC's #1, #2, #4, ...

........................................................................
.............................. CYCLE   17 ..............................
........................................................................
   1    -10.5575223 -0.105575E+02  0.340E-01    0.01       0.0  T
   2    -10.5481592  0.936310E-02  0.826E-01    0.01       1.0  T
   3    -10.5418671  0.629206E-02  0.115E+00    0.01       1.0  T
   4    -10.5563872 -0.145201E-01  0.331E-01    0.01       1.0  T
   5    -10.5571079 -0.720689E-03  0.209E-01    0.01       1.0  T
   6    -10.5572851 -0.177154E-03  0.167E-01    0.01       1.0  T
   7    -10.5574517 -0.166655E-03  0.113E-01    0.01       1.0  T
   8    -10.5575971 -0.145400E-03  0.173E-02    0.01       2.6  T
   9    -10.5576004 -0.329676E-05  0.111E-03    0.01      40.2  T
  10    -10.5576004  0.945058E-08  0.121E-03    0.01      37.0  T
  11    -10.5576004 -0.141975E-07  0.240E-04    0.01     186.6  T
  12    -10.5576004 -0.368544E-09  0.317E-05    0.01    1410.8  T
     SCC iter.                  ...        0 min,  0.001 sec
     gradient                   ...        0 min,  0.001 sec
 * total energy  :   -10.2726444 Eh     change       -0.8202822E-04 Eh
   gradient norm :     0.0158263 Eh/α   predicted    -0.1632026E-03 (  98.96%)
   displ. norm   :     0.0452990 α      lambda       -0.1768355E-03
   maximum displ.:     0.0323364 α      in ANC's #2, #6, #4, ...

........................................................................
.............................. CYCLE   18 ..............................
........................................................................
   1    -10.5573891 -0.105574E+02  0.161E-01    0.01       0.0  T
   2    -10.5570202  0.368898E-03  0.174E-01    0.01       1.0  T
   3    -10.5487518  0.826837E-02  0.832E-01    0.01       1.0  T
   4    -10.5570928 -0.834099E-02  0.164E-01    0.01       1.0  T
   5    -10.5572235 -0.130635E-03  0.123E-01    0.01       1.0  T
   6    -10.5573393 -0.115803E-03  0.696E-02    0.01       1.0  T
   7    -10.5573750 -0.357209E-04  0.406E-02    0.01       1.1  T
   8    -10.5573935 -0.184847E-04  0.843E-03    0.01       5.3  T
   9    -10.5573942 -0.770006E-06  0.522E-04    0.01      85.7  T
  10    -10.5573942 -0.201718E-08  0.187E-04    0.01     238.7  T
     SCC iter.                  ...        0 min,  0.001 sec
     gradient                   ...        0 min,  0.001 sec
 * total energy  :   -10.2727752 Eh     change       -0.1308000E-03 Eh
   gradient norm :     0.0101592 Eh/α   predicted    -0.8859870E-04 ( -32.26%)
   displ. norm   :     0.0742002 α      lambda       -0.2030281E-03
   maximum displ.:     0.0448214 α      in ANC's #1, #2, #6, ...

........................................................................
.............................. CYCLE   19 ..............................
........................................................................
   1    -10.5579181 -0.105579E+02  0.236E-01    0.00       0.0  T
   2    -10.5577528  0.165372E-03  0.169E-01    0.00       1.0  T
   3    -10.5346066  0.231462E-01  0.134E+00    0.00       1.0  T
   4    -10.5577541 -0.231475E-01  0.127E-01    0.00       1.0  T
   5    -10.5578018 -0.477115E-04  0.104E-01    0.00       1.0  T
   6    -10.5578586 -0.568048E-04  0.742E-02    0.00       1.0  T
   7    -10.5578958 -0.371739E-04  0.471E-02    0.00       1.0  T
   8    -10.5579216 -0.258466E-04  0.720E-03    0.00       6.2  T
   9    -10.5579221 -0.524836E-06  0.129E-03    0.00      34.7  T
  10    -10.5579222 -0.733026E-08  0.691E-04    0.00      64.7  T
  11    -10.5579222 -0.500136E-08  0.113E-04    0.00     394.2  T
     SCC iter.                  ...        0 min,  0.001 sec
     gradient                   ...        0 min,  0.001 sec
 * total energy  :   -10.2729251 Eh     change       -0.1498835E-03 Eh
   gradient norm :     0.0086677 Eh/α   predicted    -0.1020725E-03 ( -31.90%)
   displ. norm   :     0.0929580 α      lambda       -0.2248504E-03
   maximum displ.:     0.0680340 α      in ANC's #1, #8, #6, ...

........................................................................
.............................. CYCLE   20 ..............................
........................................................................
   1    -10.5591733 -0.105592E+02  0.293E-01    0.00       0.0  T
   2    -10.5591176  0.557632E-04  0.187E-01    0.00       1.0  T
   3    -10.5327899  0.263277E-01  0.141E+00    0.00       1.0  T
   4    -10.5591225 -0.263326E-01  0.772E-02    0.00       1.0  T
   5    -10.5591491 -0.266305E-04  0.506E-02    0.00       1.0  T
   6    -10.5591578 -0.866752E-05  0.401E-02    0.00       1.1  T
   7    -10.5591662 -0.838754E-05  0.288E-02    0.00       1.6  T
   8    -10.5591757 -0.959242E-05  0.495E-03    0.00       9.0  T
   9    -10.5591760 -0.256295E-06  0.119E-03    0.00      37.5  T
  10    -10.5591760 -0.117948E-07  0.308E-04    0.00     145.1  T
  11    -10.5591760  0.102370E-08  0.354E-04    0.00     126.4  T
     SCC iter.                  ...        0 min,  0.001 sec
     gradient                   ...        0 min,  0.001 sec
 * total energy  :   -10.2730940 Eh     change       -0.1688777E-03 Eh
   gradient norm :     0.0096682 Eh/α   predicted    -0.1133974E-03 ( -32.85%)
   displ. norm   :     0.1050248 α      lambda       -0.2394220E-03
   maximum displ.:     0.0811060 α      in ANC's #1, #8, #7, ...
 * RMSD in coord.:     1.2358916 α      energy gain  -0.2215733E+00 Eh

generating ANC from model Hessian ...
Using Lindh-Hessian (1995)
 Shifting diagonal of input Hessian by    9.0995646015501665E-003
 Lowest  eigenvalues of input Hessian
   -0.000000   -0.000000   -0.000000    0.000000    0.000000    0.000000
    0.010000    0.010624    0.120588    0.309779    0.466301    0.983060
    1.148090    2.153558    2.822501
 Highest eigenvalues
    0.309779    0.466301    0.983060    1.148090    2.153558    2.822501


........................................................................
.............................. CYCLE   21 ..............................
........................................................................
   1    -10.5604382 -0.105604E+02  0.340E-01    0.00       0.0  T
   2    -10.5603701  0.680736E-04  0.218E-01    0.00       1.0  T
   3    -10.5237613  0.366088E-01  0.167E+00    0.00       1.0  T
   4    -10.5604102 -0.366488E-01  0.598E-02    0.00       1.0  T
   5    -10.5604257 -0.155309E-04  0.388E-02    0.00       1.2  T
   6    -10.5604326 -0.691464E-05  0.274E-02    0.00       1.6  T
   7    -10.5604359 -0.330806E-05  0.204E-02    0.00       2.2  T
   8    -10.5604406 -0.464820E-05  0.506E-03    0.00       8.8  T
   9    -10.5604408 -0.277619E-06  0.108E-03    0.00      41.4  T
  10    -10.5604408 -0.965554E-08  0.453E-04    0.00      98.7  T
  11    -10.5604408  0.110133E-08  0.478E-04    0.00      93.6  T
     SCC iter.                  ...        0 min,  0.001 sec
     gradient                   ...        0 min,  0.001 sec
 * total energy  :   -10.2732617 Eh     change       -0.1677182E-03 Eh
   gradient norm :     0.0076334 Eh/α   predicted     0.0000000E+00 (-100.00%)
   displ. norm   :     0.0460999 α      lambda       -0.4857749E-04
   maximum displ.:     0.0444026 α      in ANC's #2, #1, #9, ...

........................................................................
.............................. CYCLE   22 ..............................
........................................................................
   1    -10.5600300 -0.105600E+02  0.135E-01    0.00       0.0  T
   2    -10.5600300 -0.821325E-07  0.811E-02    0.00       1.0  T
   3    -10.5598947  0.135336E-03  0.100E-01    0.00       1.0  T
   4    -10.5599546 -0.599367E-04  0.793E-02    0.00       1.0  T
   5    -10.5600241 -0.694973E-04  0.237E-02    0.00       1.9  T
   6    -10.5600256 -0.142925E-05  0.204E-02    0.00       2.2  T
   7    -10.5600280 -0.240059E-05  0.143E-02    0.00       3.1  T
   8    -10.5600303 -0.233318E-05  0.187E-03    0.00      23.9  T
   9    -10.5600303 -0.329717E-07  0.753E-04    0.00      59.4  T
  10    -10.5600303 -0.626435E-08  0.699E-05    0.00     639.4  T
     SCC iter.                  ...        0 min,  0.001 sec
     gradient                   ...        0 min,  0.001 sec
 * total energy  :   -10.2732563 Eh     change        0.5373224E-05 Eh
   gradient norm :     0.0053479 Eh/α   predicted    -0.2433964E-04 (-552.98%)
   displ. norm   :     0.0391046 α      lambda       -0.8450526E-04
   maximum displ.:     0.0361638 α      in ANC's #1, #2, #6, ...

........................................................................
.............................. CYCLE   23 ..............................
........................................................................
   1    -10.5602037 -0.105602E+02  0.120E-01    0.00       0.0  T
   2    -10.5601761  0.275898E-04  0.932E-02    0.00       1.0  T
   3    -10.5542593  0.591682E-02  0.668E-01    0.00       1.0  T
   4    -10.5601448 -0.588550E-02  0.721E-02    0.00       1.0  T
   5    -10.5601733 -0.284836E-04  0.521E-02    0.00       1.0  T
   6    -10.5601947 -0.214342E-04  0.293E-02    0.00       1.5  T
   7    -10.5602017 -0.701663E-05  0.154E-02    0.00       2.9  T
   8    -10.5602043 -0.261122E-05  0.316E-03    0.00      14.2  T
   9    -10.5602045 -0.104753E-06  0.778E-04    0.00      57.5  T
  10    -10.5602045 -0.628711E-08  0.200E-04    0.00     223.1  T
     SCC iter.                  ...        0 min,  0.001 sec
     gradient                   ...        0 min,  0.001 sec
 * total energy  :   -10.2733044 Eh     change       -0.4804557E-04 Eh
   gradient norm :     0.0025951 Eh/α   predicted    -0.4231892E-04 ( -11.92%)
   displ. norm   :     0.0064469 α      lambda       -0.1119862E-04
   maximum displ.:     0.0046677 α      in ANC's #2, #6, #5, ...

........................................................................
.............................. CYCLE   24 ..............................
........................................................................
   1    -10.5603843 -0.105604E+02  0.249E-02    0.00       0.0  T
   2    -10.5603767  0.764310E-05  0.321E-02    0.00       1.4  T
   3    -10.5603550  0.216695E-04  0.464E-02    0.00       1.0  T
   4    -10.5603784 -0.233766E-04  0.229E-02    0.00       1.9  T
   5    -10.5603830 -0.462092E-05  0.113E-02    0.00       4.0  T
   6    -10.5603839 -0.892589E-06  0.683E-03    0.00       6.6  T
   7    -10.5603842 -0.271079E-06  0.476E-03    0.00       9.4  T
   8    -10.5603844 -0.259237E-06  0.342E-04    0.00     130.8  T
   9    -10.5603844 -0.109407E-08  0.137E-04    0.00     327.0  T
     SCC iter.                  ...        0 min,  0.001 sec
     gradient                   ...        0 min,  0.001 sec
 * total energy  :   -10.2733137 Eh     change       -0.9324671E-05 Eh
   gradient norm :     0.0024956 Eh/α   predicted    -0.5600535E-05 ( -39.94%)
   displ. norm   :     0.0176626 α      lambda       -0.2928507E-04
   maximum displ.:     0.0134725 α      in ANC's #6, #2, #5, ...

........................................................................
.............................. CYCLE   25 ..............................
........................................................................
   1    -10.5606643 -0.105607E+02  0.622E-02    0.00       0.0  T
   2    -10.5606136  0.507001E-04  0.788E-02    0.00       1.0  T
   3    -10.5603282  0.285474E-03  0.159E-01    0.00       1.0  T
   4    -10.5606455 -0.317348E-03  0.414E-02    0.00       1.1  T
   5    -10.5606544 -0.887216E-05  0.305E-02    0.00       1.5  T
   6    -10.5606620 -0.761684E-05  0.159E-02    0.00       2.8  T
   7    -10.5606636 -0.158799E-05  0.106E-02    0.00       4.2  T
   8    -10.5606648 -0.126080E-05  0.171E-03    0.00      26.2  T
   9    -10.5606649 -0.302817E-07  0.500E-04    0.00      89.5  T
  10    -10.5606649 -0.277616E-08  0.900E-05    0.00     496.8  T
     SCC iter.                  ...        0 min,  0.001 sec
     gradient                   ...        0 min,  0.001 sec
 * total energy  :   -10.2733342 Eh     change       -0.2054867E-04 Eh
   gradient norm :     0.0040461 Eh/α   predicted    -0.1464508E-04 ( -28.73%)
   displ. norm   :     0.0165094 α      lambda       -0.2282382E-04
   maximum displ.:     0.0152175 α      in ANC's #6, #5, #3, ...

........................................................................
.............................. CYCLE   26 ..............................
........................................................................
   1    -10.5607111 -0.105607E+02  0.558E-02    0.00       0.0  T
   2    -10.5607059  0.516466E-05  0.406E-02    0.00       1.1  T
   3    -10.5592515  0.145441E-02  0.334E-01    0.00       1.0  T
   4    -10.5607094 -0.145786E-02  0.133E-02    0.00       3.4  T
   5    -10.5607105 -0.114487E-05  0.806E-03    0.00       5.5  T
   6    -10.5607110 -0.465649E-06  0.439E-03    0.00      10.2  T
   7    -10.5607111 -0.952848E-07  0.324E-03    0.00      13.8  T
   8    -10.5607112 -0.807938E-07  0.184E-03    0.00      24.2  T
   9    -10.5607112 -0.376817E-07  0.334E-04    0.00     134.0  T
  10    -10.5607112 -0.126160E-08  0.341E-05    0.00    1313.4  T
     SCC iter.                  ...        0 min,  0.001 sec
     gradient                   ...        0 min,  0.001 sec
 * total energy  :   -10.2733515 Eh     change       -0.1730723E-04 Eh
   gradient norm :     0.0045511 Eh/α   predicted    -0.1141486E-04 ( -34.05%)
   displ. norm   :     0.0223665 α      lambda       -0.2650759E-04
   maximum displ.:     0.0197490 α      in ANC's #6, #2, #5, ...

........................................................................
.............................. CYCLE   27 ..............................
........................................................................
   1    -10.5606365 -0.105606E+02  0.758E-02    0.00       0.0  T
   2    -10.5606299  0.656401E-05  0.542E-02    0.00       1.0  T
   3    -10.5579793  0.265062E-02  0.449E-01    0.00       1.0  T
   4    -10.5606309 -0.265160E-02  0.224E-02    0.00       2.0  T
   5    -10.5606343 -0.342882E-05  0.145E-02    0.00       3.1  T
   6    -10.5606354 -0.109502E-05  0.105E-02    0.00       4.2  T
   7    -10.5606362 -0.793549E-06  0.638E-03    0.00       7.0  T
   8    -10.5606366 -0.402395E-06  0.238E-03    0.00      18.8  T
   9    -10.5606367 -0.609378E-07  0.572E-04    0.00      78.1  T
  10    -10.5606367 -0.355661E-08  0.140E-04    0.00     319.3  T
     SCC iter.                  ...        0 min,  0.001 sec
     gradient                   ...        0 min,  0.001 sec
 * total energy  :   -10.2733689 Eh     change       -0.1737210E-04 Eh
   gradient norm :     0.0030649 Eh/α   predicted    -0.1325997E-04 ( -23.67%)
   displ. norm   :     0.0133869 α      lambda       -0.8784446E-05
   maximum displ.:     0.0081451 α      in ANC's #2, #1, #6, ...

........................................................................
.............................. CYCLE   28 ..............................
........................................................................
   1    -10.5606453 -0.105606E+02  0.449E-02    0.00       0.0  T
   2    -10.5606273  0.179458E-04  0.508E-02    0.00       1.0  T
   3    -10.5604042  0.223136E-03  0.134E-01    0.00       1.0  T
   4    -10.5606353 -0.231104E-03  0.299E-02    0.00       1.5  T
   5    -10.5606388 -0.351733E-05  0.242E-02    0.00       1.8  T
   6    -10.5606449 -0.612949E-05  0.710E-03    0.00       6.3  T
   7    -10.5606453 -0.419386E-06  0.352E-03    0.00      12.7  T
   8    -10.5606455 -0.136024E-06  0.804E-04    0.00      55.6  T
   9    -10.5606455 -0.701881E-08  0.115E-04    0.00     388.4  T
     SCC iter.                  ...        0 min,  0.001 sec
     gradient                   ...        0 min,  0.001 sec
 * total energy  :   -10.2733745 Eh     change       -0.5549557E-05 Eh
   gradient norm :     0.0010495 Eh/α   predicted    -0.4393040E-05 ( -20.84%)
   displ. norm   :     0.0092339 α      lambda       -0.1979801E-05
   maximum displ.:     0.0064170 α      in ANC's #1, #2, #5, ...

........................................................................
.............................. CYCLE   29 ..............................
........................................................................
   1    -10.5606623 -0.105607E+02  0.293E-02    0.00       0.0  T
   2    -10.5606576  0.470692E-05  0.291E-02    0.00       1.5  T
   3    -10.5604909  0.166729E-03  0.113E-01    0.00       1.0  T
   4    -10.5606560 -0.165102E-03  0.238E-02    0.00       1.9  T
   5    -10.5606587 -0.269056E-05  0.181E-02    0.00       2.5  T
   6    -10.5606620 -0.333476E-05  0.597E-03    0.00       7.5  T
   7    -10.5606623 -0.325423E-06  0.250E-03    0.00      17.9  T
   8    -10.5606624 -0.706183E-07  0.402E-04    0.00     111.3  T
   9    -10.5606624 -0.174176E-08  0.513E-05    0.00     872.4  T
     SCC iter.                  ...        0 min,  0.001 sec
     gradient                   ...        0 min,  0.001 sec
 * total energy  :   -10.2733759 Eh     change       -0.1414978E-05 Eh
   gradient norm :     0.0007724 Eh/α   predicted    -0.9900021E-06 ( -30.03%)
   displ. norm   :     0.0022480 α      lambda       -0.5003913E-06
   maximum displ.:     0.0017032 α      in ANC's #5, #2, #6, ...

   *** GEOMETRY OPTIMIZATION CONVERGED AFTER 29 ITERATIONS ***

------------------------------------------------------------------------
 total energy gain   :        -0.2218552 Eh     -139.2162 kcal/mol
 total RMSD          :         1.2394785 a0        0.6559 Å
 total power (kW/mol):       -20.0855408 (step)-5267.6881 (real)
------------------------------------------------------------------------

 ANCopt (total)                0 d,  0 h,  0 min,  0.111 sec
 optimizer setup                ...        0 min,  0.000 sec (  0.053%)
 model hessian                  ...        0 min,  0.000 sec (  0.084%)
 ANC generation                 ...        0 min,  0.000 sec (  0.079%)
 coordinate transformation      ...        0 min,  0.000 sec (  0.055%)
 single point calculation       ...        0 min,  0.108 sec ( 97.824%)
 optimization log               ...        0 min,  0.001 sec (  0.624%)
 hessian update                 ...        0 min,  0.000 sec (  0.053%)
 rational function              ...        0 min,  0.001 sec (  0.548%)

================
 final structure:
================
5
 xtb: 6.2.2 (9d81278992624c895f80dd42a50cac0aa55982e2)
C         1.24444909031090    0.06014646069058   -0.59673817301885
C        -0.00037566377587    0.00113233174648   -0.24277163506666
C        -1.24450852076514   -0.06049761693922    0.11085867265105
C         2.44542815432124    0.12327614954675   -0.93427779541246
C        -2.44499306009114   -0.12405732504458    0.45187493084690

 Bond Distances (Angstroems)
 ---------------------------
C1-C2=1.2955         C1-C4=1.2491         C2-C1=1.2955         C2-C3=1.2949         C3-C2=1.2949         C3-C5=1.2496         
C4-C1=1.2491         C5-C3=1.2496         
 C  C  Rav=1.2723 sigma=0.0229  Rmin=1.2491  Rmax=1.2955     4

 selected bond angles (degree)
 --------------------
C4-C1-C2=179.66                C3-C2-C1=179.88                C5-C3-C2=179.81                

 selected dihedral angles (degree)
 ---------------------------------
C3-C2-C1-C4=208.51            C5-C3-C2-C1=  0.11            
           -------------------------------------------------
          |                Final Singlepoint                |
           -------------------------------------------------

          ...................................................
          :                      SETUP                      :
          :.................................................:
          :  # basis functions                  20          :
          :  # atomic orbitals                  20          :
          :  # shells                           10          :
          :  # electrons                        20          :
          :  max. iterations                   250          :
          :  Hamiltonian                  GFN2-xTB          :
          :  restarted?                      false          :
          :  GBSA solvation                  false          :
          :  PC potential                    false          :
          :  electronic temp.          300.0000000     K    :
          :  accuracy                    1.0000000          :
          :  -> integral cutoff          0.2500000E+02      :
          :  -> integral neglect         0.1000000E-07      :
          :  -> SCF convergence          0.1000000E-05 Eh   :
          :  -> wf. convergence          0.1000000E-03 e    :
          :  Broyden damping             0.4000000          :
          ...................................................

 iter      E             dE          RMSdq      gap      omega  full diag
   1    -10.5606624 -0.105607E+02  0.276E-05    0.00       0.0  T
   2    -10.5606624 -0.106581E-12  0.170E-05    0.00    2633.7  T
   3    -10.5606624  0.314593E-11  0.143E-05    0.00    3136.1  T

   *** convergence criteria satisfied after 3 iterations ***

         #    Occupation            Energy/Eh            Energy/eV
      -------------------------------------------------------------
         1        2.0000           -0.6748125             -18.3626
       ...           ...                  ...                  ...
         5        2.0000           -0.5210198             -14.1777
         6        2.0000           -0.5210196             -14.1777
         7        2.0000           -0.4637009             -12.6179
         8        2.0000           -0.4636998             -12.6179
         9        1.9997           -0.4455940             -12.1252
        10        1.0003           -0.4298353             -11.6964
        11        0.5000           -0.3737222             -10.1695 (HOMO)
        12        0.5000           -0.3737219             -10.1695 (LUMO)
        13                         -0.2234041              -6.0791
        14                         -0.2234015              -6.0791
        15                         -0.0968900              -2.6365
        16                         -0.0968870              -2.6364
       ...                                ...                  ...
        20                          1.4477175              39.3944
      -------------------------------------------------------------
                  HL-Gap            0.0000003 Eh            0.0000 eV
             Fermi-level           -0.4057183 Eh          -11.0402 eV

 transition dipole moment (au) for excitation:          10          11
     X       Y       Z   
  -0.0038  -0.0002   0.0011  total (au/Debye):    0.004   0.010
 dE (eV)             :    1.527
 oscillator strength :  0.82279E-06

 SCC (total)                   0 d,  0 h,  0 min,  0.004 sec
 SCC setup                      ...        0 min,  0.000 sec (  1.141%)
 Dispersion                     ...        0 min,  0.000 sec (  0.259%)
 integral evaluation            ...        0 min,  0.001 sec ( 34.197%)
 zeroth order Hamiltonian       ...        0 min,  0.000 sec (  0.382%)
 iterations                     ...        0 min,  0.000 sec (  8.438%)
 molecular gradient             ...        0 min,  0.001 sec ( 32.568%)
 printout                       ...        0 min,  0.001 sec ( 22.866%)

         :::::::::::::::::::::::::::::::::::::::::::::::::::::
         ::                     SUMMARY                     ::
         :::::::::::::::::::::::::::::::::::::::::::::::::::::
         :: total energy             -10.273375869081 Eh    ::
         :: gradient norm              0.000773787753 Eh/a0 ::
         :: HOMO-LUMO gap              0.000007991658 eV    ::
         ::.................................................::
         :: SCC energy               -10.560662416935 Eh    ::
         :: -> isotropic ES           -0.007250937760 Eh    ::
         :: -> anisotropic ES         -0.000290995694 Eh    ::
         :: -> anisotropic XC          0.016102942558 Eh    ::
         :: -> dispersion             -0.002748872699 Eh    ::
         :: repulsion energy           0.287287835970 Eh    ::
         :: add. restraining           0.000000000000 Eh    ::
         :::::::::::::::::::::::::::::::::::::::::::::::::::::

           ------------------------------------------------- 
          |                Numerical Hessian                |
           ------------------------------------------------- 
step length          :   0.00500
SCC accuracy         :   0.30000
Hessian scale factor :   1.00000
frozen atoms in %    :   0.00000    0
RMS gradient         :   0.00077
estimated CPU  time      0.00 min
estimated wall time      0.00 min

writing file <hessian>.

 vibrational frequencies (cm-1)
eigval :        0.00     0.00     0.00     0.00     0.00   121.06
eigval :      121.09   290.21   290.25   343.33   343.34   814.59
eigval :     1470.54  1690.46  2006.18
           -------------------------------------------------
          |                Property Printout                |
           -------------------------------------------------

    * Orbital Energies and Occupations

         #    Occupation            Energy/Eh            Energy/eV
      -------------------------------------------------------------
         1        2.0000           -0.6748125             -18.3626
         2        2.0000           -0.6648931             -18.0927
         3        2.0000           -0.6399775             -17.4147
         4        2.0000           -0.5923005             -16.1173
         5        2.0000           -0.5210197             -14.1777
         6        2.0000           -0.5210196             -14.1777
         7        2.0000           -0.4637009             -12.6179
         8        2.0000           -0.4636998             -12.6179
         9        1.9997           -0.4455940             -12.1252
        10        1.0003           -0.4298353             -11.6964
        11        0.5000           -0.3737222             -10.1695 (HOMO)
        12        0.5000           -0.3737219             -10.1695 (LUMO)
        13                         -0.2234041              -6.0791
        14                         -0.2234015              -6.0791
        15                         -0.0968900              -2.6365
        16                         -0.0968870              -2.6364
        17                          0.1086967               2.9578
        18                          0.5232582              14.2386
        19                          1.0435589              28.3967
        20                          1.4477176              39.3944
      -------------------------------------------------------------
                  HL-Gap            0.0000003 Eh            0.0000 eV
             Fermi-level           -0.4057184 Eh          -11.0402 eV

     #   Z        covCN         q      C6AA      α(0)
Molecule has the following symmetry elements: (i) (Cinf) (C2) 2*(sigma) 
It seems to be the Dinfh point group
     1   6 C      1.962     0.040    30.049     8.852
     2   6 C      1.965     0.072    29.262     8.736
     3   6 C      1.962     0.040    30.046     8.852
     4   6 C      0.983    -0.076    38.301    10.396
     5   6 C      0.983    -0.076    38.311    10.397

 Mol. C6AA /au·bohr⁶  :        826.481981
 Mol. C8AA /au·bohr⁸  :      23903.295113
 Mol. α(0) /au        :         47.233039


Wiberg/Mayer (AO) data.
largest (>0.10) Wiberg bond orders for each atom
          total WBO             WBO to atom ...
     1  C   3.915        C    4 2.151    C    2 1.629    C    5 0.124
     2  C   3.401        C    3 1.633    C    1 1.629
     3  C   3.915        C    5 2.148    C    2 1.633    C    4 0.124
     4  C   2.567        C    1 2.151    C    5 0.223    C    3 0.124
     5  C   2.564        C    3 2.148    C    4 0.223    C    1 0.124

MOs/occ written to file <molden.input>


molecular dipole:
                 x           y           z       tot (Debye)
 q only:        0.001       0.000      -0.001
   full:        0.002       0.000      -0.002       0.008
molecular quadrupole (traceless):
                xx          xy          yy          xz          yz          zz
 q only:       -2.682      -0.214       1.503       1.188       0.060       1.178
  q+dip:       -1.129      -0.088       0.632       0.499       0.025       0.497
   full:       -5.588      -0.443       3.133       2.476       0.125       2.455

           -------------------------------------------------
          |                Geometry Summary                 |
           -------------------------------------------------

      molecular mass/u    :       60.0536795
   center of mass at/Å    :       -0.0000008      -0.0000004      -0.2422108
  moments of inertia/u·Å² :        0.2142634E-03   0.1958288E+03   0.1958289E+03
rotational constants/cm⁻¹ :        0.7867714E+05   0.8608353E-01   0.8608348E-01

 * 4 selected distances

     #   Z        #   Z                                     value/Å
     1   6 C      2   6 C                                 1.2955167 (max)
     2   6 C      3   6 C                                 1.2948819
     1   6 C      4   6 C                                 1.2491073 (min)
     3   6 C      5   6 C                                 1.2495980

 * 1 distinct bonds (by element types)

   Z      Z             #   av. dist./Å        max./Å        min./Å
   6 C    6 C           4     1.2722760     1.2955167     1.2491073

           -------------------------------------------------
          |               Frequency Printout                |
           -------------------------------------------------
 vibrational frequencies (cm-1)
eigval :        0.00     0.00     0.00     0.00     0.00   121.06
eigval :      121.09   290.21   290.25   343.33   343.34   814.59
eigval :     1470.54  1690.46  2006.18
 reduced masses (amu)
   1: 12.01   2: 12.01   3: 12.01   4: 12.01   5: 12.01   6: 12.01   7: 12.01   8: 12.01
   9: 12.01  10: 12.01  11: 12.01  12: 12.01  13: 12.01  14: 12.01  15: 12.01
 IR intensities (amu)
   1:  0.00   2:  0.00   3:  0.02   4:  0.00   5:  0.01   6:  0.31   7:  0.33   8:  0.15
   9:  0.22  10:  0.00  11:  0.00  12:  0.00  13:  4.84  14:  2.14  15:  0.00
 Raman intensities (amu)
   1:  0.00   2:  0.00   3:  0.00   4:  0.00   5:  0.00   6:  0.00   7:  0.00   8:  0.00
   9:  0.00  10:  0.00  11:  0.00  12:  0.00  13:  0.00  14:  0.00  15:  0.00
 output can be read by thermo (or use thermo option).
 writing <g98.out> molden fake output.
 recommended (thermochemical) frequency scaling factor: 1.0
           -------------------------------------------------
          |             Thermodynamic Functions             |
           -------------------------------------------------

din symmetry found (for desy threshold:  0.10E+00) used in thermo

          ...................................................
          :                      SETUP                      :
          :.................................................:
          :  # frequencies                          10      :
          :  # imaginary freq.                       0      :
          :  linear?                              true      :
          :  only rotor calc.                    false      :
          :  symmetry                              din      :
          :  rotational number                       2      :
          :  scaling factor                  1.0000000      :
          :  rotor cutoff                   50.0000000 cm⁻¹ :
          :  imag. cutoff                  -20.0000000 cm⁻¹ :
          :.................................................:

    mode    ω/cm⁻¹     T·S(HO)/kcal·mol⁻¹    T·S(FR)/kcal·mol⁻¹   T·S(vib)
   ------------------------------------------------------------------------
       1    121.06    -0.00000 ( 97.17%)     0.00709 (  2.83%)     0.00020
       2    121.09    -0.00000 ( 97.18%)     0.00710 (  2.82%)     0.00020
       3    290.21    -0.00000 ( 99.91%)     0.01577 (  0.09%)     0.00001
       4    290.25    -0.00000 ( 99.91%)     0.01578 (  0.09%)     0.00001
   ------------------------------------------------------------------------

   temp. (K)  partition function   enthalpy   heat capacity  entropy
                                   cal/mol     cal/K/mol   cal/K/mol   J/K/mol
 298.15  VIB   14.0                 1929.778     11.185     11.698
         ROT  0.120E+04              592.502      1.987     16.083
         INT  0.169E+05             2522.279     13.172     27.781
         TR   0.450E+27             1481.254      4.968     38.181
         TOT                        4003.5333    18.1400    65.9617   275.9837

   temp. (K)  partition function   enthalpy   heat capacity  entropy
                                   cal/mol     cal/K/mol   cal/K/mol   J/K/mol
 120.00  VIB   1.88                  297.150      6.069      3.748
         ROT   484.                  238.471      1.987     14.274
         INT   909.                  535.622      8.056     18.022
         TR   0.115E+27              596.178      4.968     33.661
         TOT                        1131.7995    13.0240    51.6835   216.2439

   temp. (K)  partition function   enthalpy   heat capacity  entropy
                                   cal/mol     cal/K/mol   cal/K/mol   J/K/mol
 100.00  VIB   1.54                  187.102      4.910      2.754
         ROT   404.                  198.726      1.987     13.912
         INT   621.                  385.828      6.897     16.666
         TR   0.875E+26              496.815      4.968     32.756
         TOT                         882.6434    11.8652    49.4221   206.7819

   temp. (K)  partition function   enthalpy   heat capacity  entropy
                                   cal/mol     cal/K/mol   cal/K/mol   J/K/mol
  80.00  VIB   1.29                  101.611      3.625      1.811
         ROT   323.                  158.981      1.987     13.469
         INT   417.                  260.592      5.613     15.280
         TR   0.626E+26              397.452      4.968     31.648
         TOT                         658.0440    10.5808    46.9276   196.3449

   temp. (K)  partition function   enthalpy   heat capacity  entropy
                                   cal/mol     cal/K/mol   cal/K/mol   J/K/mol
  60.00  VIB   1.12                   42.272      2.311      0.969
         ROT   242.                  119.236      1.987     12.897
         INT   272.                  161.507      4.299     13.866
         TR   0.406E+26              298.089      4.968     30.219
         TOT                         459.5962     9.2668    44.0855   184.4538

   temp. (K)  partition function   enthalpy   heat capacity  entropy
                                   cal/mol     cal/K/mol   cal/K/mol   J/K/mol
  40.00  VIB   1.03                    9.064      1.009      0.307
         ROT   161.                   79.490      1.987     12.091
         INT   166.                   88.555      2.996     12.399
         TR   0.221E+26              198.726      4.968     28.206
         TOT                         287.2808     7.9641    40.6045   169.8894

   temp. (K)  partition function   enthalpy   heat capacity  entropy
                                   cal/mol     cal/K/mol   cal/K/mol   J/K/mol
  20.00  VIB   1.00                    0.114      0.050      0.002
         ROT   80.7                   39.745      1.987     10.714
         INT   80.8                   39.859      2.037     10.716
         TR   0.782E+25               99.363      4.968     24.764
         TOT                         139.2224     7.0052    35.4802   148.4492

   temp. (K)  partition function   enthalpy   heat capacity  entropy
                                   cal/mol     cal/K/mol   cal/K/mol   J/K/mol
  10.00  VIB   1.00                    0.000      0.000     -0.044
         ROT   40.4                   19.873      1.987      9.336
         INT   40.4                   19.873      1.987      9.292
         TR   0.277E+25               49.681      4.968     21.322
         TOT                          69.5541     6.9554    30.6138   128.0882

       T/K    H(0)-H(T)+PV         H(T)/Eh          T*S/Eh         G(T)/Eh
   ------------------------------------------------------------------------
    298.15    0.638004E-02    0.234459E-01    0.313405E-01   -0.789462E-02
    120.00    0.180364E-02    0.188695E-01    0.988355E-02    0.898596E-02
    100.00    0.140658E-02    0.184725E-01    0.787591E-02    0.105965E-01
     80.00    0.104866E-02    0.181145E-01    0.598271E-02    0.121318E-01
     60.00    0.732413E-03    0.177983E-01    0.421528E-02    0.135830E-01
     40.00    0.457811E-03    0.175237E-01    0.258830E-02    0.149354E-01
     20.00    0.221865E-03    0.172877E-01    0.113083E-02    0.161569E-01
     10.00    0.110842E-03    0.171767E-01    0.487862E-03    0.166889E-01 (used)
   ------------------------------------------------------------------------

         :::::::::::::::::::::::::::::::::::::::::::::::::::::
         ::                  THERMODYNAMIC                  ::
         :::::::::::::::::::::::::::::::::::::::::::::::::::::
         :: total free energy         -10.256687015393 Eh   ::
         ::.................................................::
         :: total energy              -10.273375869123 Eh   ::
         :: zero point energy           0.017065874334 Eh   ::
         :: G(RRHO) w/o ZPVE           -0.000377020605 Eh   ::
         :: G(RRHO) contrib.            0.016688853729 Eh   ::
         :::::::::::::::::::::::::::::::::::::::::::::::::::::

optimized geometry written to: xtbopt.xyz


           -------------------------------------------------
          | TOTAL ENERGY              -10.273375869123 Eh   |
          | TOTAL ENTHALPY            -10.256199153244 Eh   |
          | TOTAL FREE ENERGY         -10.256687015393 Eh   |
          | GRADIENT NORM               0.000773768084 Eh/α |
          | HOMO-LUMO GAP               0.000007995103 eV   |
           -------------------------------------------------

------------------------------------------------------------------------
 * finished run on 2020/05/12 at 11:44:32.077     
------------------------------------------------------------------------
 total:
 * wall-time:     0 d,  0 h,  0 min,  0.243 sec
 *  cpu-time:     0 d,  0 h,  0 min,  0.242 sec
 * ratio c/w:     0.998 speedup
 SCF:
 * wall-time:     0 d,  0 h,  0 min,  0.006 sec
 *  cpu-time:     0 d,  0 h,  0 min,  0.006 sec
 * ratio c/w:     0.998 speedup
 ANC optimizer:
 * wall-time:     0 d,  0 h,  0 min,  0.115 sec
 *  cpu-time:     0 d,  0 h,  0 min,  0.115 sec
 * ratio c/w:     0.999 speedup
 numerical hessian:
 * wall-time:     0 d,  0 h,  0 min,  0.106 sec
 *  cpu-time:     0 d,  0 h,  0 min,  0.106 sec
 * ratio c/w:     0.997 speedup

