5
 energy: -10.051520695485 gnorm: 0.368098990049 xtb: 6.2.2 (9d81278992624c895f80dd42a50cac0aa55982e2)
C         1.02522300000000    0.41387100000000   -0.16522600000000
C         0.02082300000000   -0.68055800000000   -0.47409200000000
C        -1.16372300000000   -0.59636900000000    0.47204700000000
C         2.19301400000000    0.31190400000000   -1.12326600000000
C        -2.07533700000000    0.55115200000000    0.07948300000000
5
 energy: -10.186444114242 gnorm: 0.230521695626 xtb: 6.2.2 (9d81278992624c895f80dd42a50cac0aa55982e2)
C         1.05083736585526    0.33286959898620   -0.25958541260462
C         0.00217338801642   -0.61735641778373   -0.39576710513991
C        -1.15245073482832   -0.52604536075562    0.39322578208185
C         2.13201445720834    0.32963320425519   -1.05717767872923
C        -2.03257447625169    0.48089897529796    0.10825041439191
5
 energy: -10.211246108788 gnorm: 0.334860527772 xtb: 6.2.2 (9d81278992624c895f80dd42a50cac0aa55982e2)
C         1.10552114515717    0.23836646825142   -0.37200676504294
C        -0.03428866445919   -0.53596696618373   -0.30650764319319
C        -1.14002384078674   -0.43858511432655    0.30377965120956
C         2.06436480292870    0.34884574849885   -0.97844606717042
C        -1.99557344283993    0.38733986376001    0.14212682419699
5
 energy: -10.241972159398 gnorm: 0.114913244761 xtb: 6.2.2 (9d81278992624c895f80dd42a50cac0aa55982e2)
C         1.08159468430903    0.16168113025415   -0.40857450276636
C        -0.03472129931479   -0.58385480423780   -0.29598412928868
C        -1.14050963189271   -0.40510141156705    0.31846821677886
C         2.19878136392705    0.41440735326109   -0.99668130094555
C        -2.10514511702859    0.41286773228961    0.17171771622173
5
 energy: -10.247071954342 gnorm: 0.115395506836 xtb: 6.2.2 (9d81278992624c895f80dd42a50cac0aa55982e2)
C         1.22948775169633    0.08932062755196   -0.36000207341863
C         0.02968588728321   -0.52108153449871   -0.27664293611797
C        -1.16327026773997   -0.33640286168081    0.28436167538299
C         2.21215977415335    0.40349737163954   -1.05687382379743
C        -2.30806314539294    0.36466639698803    0.19810315795104
5
 energy: -10.256566741840 gnorm: 0.057096645544 xtb: 6.2.2 (9d81278992624c895f80dd42a50cac0aa55982e2)
C         1.23262405104764    0.02968371198750   -0.39705853600750
C         0.01478596751522   -0.53229668872398   -0.22774239687855
C        -1.20385289558627   -0.32152554657158    0.27621852416960
C         2.21706460478741    0.46398255584834   -1.05559322960259
C        -2.26062172776400    0.36015596745971    0.19312163831904
5
 energy: -10.259973402296 gnorm: 0.075254799373 xtb: 6.2.2 (9d81278992624c895f80dd42a50cac0aa55982e2)
C         1.16147767223472    0.01975304288199   -0.51939870577911
C        -0.02570696902130   -0.44387811912964   -0.28459816677779
C        -1.13133588957424   -0.24479340801291    0.27762917547767
C         2.26726275943065    0.40305014432316   -0.93724924145757
C        -2.27169757306985    0.26586833993740    0.25256293853680
5
 energy: -10.265633810717 gnorm: 0.033303234724 xtb: 6.2.2 (9d81278992624c895f80dd42a50cac0aa55982e2)
C         1.21856525278942   -0.01442818021281   -0.54594159235965
C        -0.00056164070144   -0.41999441121171   -0.25818008828839
C        -1.17346845093683   -0.21215446704302    0.25408907793393
C         2.31256012479378    0.40887549625515   -0.94908753266054
C        -2.35709528594494    0.23770156221240    0.28806613537464
5
 energy: -10.265161428864 gnorm: 0.076888292777 xtb: 6.2.2 (9d81278992624c895f80dd42a50cac0aa55982e2)
C         1.23876866032161   -0.03881935096669   -0.52189446691695
C         0.04136478745877   -0.39902195354290   -0.21760426331266
C        -1.20643698472468   -0.20450729592621    0.22024789796849
C         2.28513480723910    0.41231293279482   -0.98115442394189
C        -2.35883127029482    0.23003566764098    0.28935125620300
5
 energy: -10.266375628428 gnorm: 0.038632215627 xtb: 6.2.2 (9d81278992624c895f80dd42a50cac0aa55982e2)
C         1.30794914087348   -0.12650852391310   -0.49401548310552
C         0.01925999900002   -0.31216719925219   -0.20900376787220
C        -1.20745147417799   -0.13785275096663    0.22543684991103
C         2.30829921482898    0.42224943922897   -1.01445778766511
C        -2.42805688052450    0.15427903490295    0.28098618873179
5
 energy: -10.268564427216 gnorm: 0.035293772771 xtb: 6.2.2 (9d81278992624c895f80dd42a50cac0aa55982e2)
C         1.24702239748111   -0.03954602078201   -0.56422344700396
C         0.01055284375349   -0.31463317073715   -0.23290547628103
C        -1.19404004265517   -0.16955369959016    0.21603509025697
C         2.35356458429319    0.36539021342504   -0.95661157524501
C        -2.41709978287264    0.15834267768428    0.32665140827303
5
 energy: -10.269724868700 gnorm: 0.026655397852 xtb: 6.2.2 (9d81278992624c895f80dd42a50cac0aa55982e2)
C         1.25057024843863   -0.02537988360483   -0.57214736912722
C         0.01473547688376   -0.27331005743595   -0.21610990719436
C        -1.21563580376291   -0.18165859728772    0.20186466936501
C         2.36744927521280    0.34109817184152   -0.96272184094824
C        -2.41711919677230    0.13925036648699    0.33806044790481
5
 energy: -10.271003647353 gnorm: 0.032246917925 xtb: 6.2.2 (9d81278992624c895f80dd42a50cac0aa55982e2)
C         1.25437604935366   -0.02343589579446   -0.60257627986507
C         0.03394224311707   -0.16923844335920   -0.18576340561106
C        -1.24326915584992   -0.15640472002923    0.15349938210877
C         2.41285629188433    0.28240259835926   -0.96323697871029
C        -2.45790542850516    0.06667646082364    0.38702328207764
5
 energy: -10.272150997848 gnorm: 0.018366984651 xtb: 6.2.2 (9d81278992624c895f80dd42a50cac0aa55982e2)
C         1.24550087705601   -0.02040586466383   -0.58223314367673
C         0.02187358659646   -0.11680564230960   -0.19549893313288
C        -1.23228017200998   -0.14730399938012    0.15538748374647
C         2.41025422356102    0.25346806355743   -0.96981864344667
C        -2.44534851520353    0.03104744279613    0.38110923650980
5
 energy: -10.272280709690 gnorm: 0.024904145832 xtb: 6.2.2 (9d81278992624c895f80dd42a50cac0aa55982e2)
C         1.26082343230845   -0.00616355198868   -0.57690295110172
C         0.00779569431499   -0.02078342474939   -0.19855925319753
C        -1.23423989059772   -0.13441918116127    0.14395098150340
C         2.43273985195731    0.19605069192622   -0.97531403635533
C        -2.46711908798305   -0.03468453402687    0.39577125915117
5
 energy: -10.272562371759 gnorm: 0.009864487715 xtb: 6.2.2 (9d81278992624c895f80dd42a50cac0aa55982e2)
C         1.25920503531544   -0.01270629102629   -0.55921754466637
C         0.01688095864040   -0.04708296967560   -0.19479974505568
C        -1.23044403132491   -0.13413331748703    0.14141534869935
C         2.41004838845496    0.21133960208899   -0.98380789315258
C        -2.45569035108590   -0.01741702390007    0.38535583417527
5
 energy: -10.272644399979 gnorm: 0.016125607106 xtb: 6.2.2 (9d81278992624c895f80dd42a50cac0aa55982e2)
C         1.24420226302039    0.00380444684259   -0.58239359026586
C         0.01569029090135   -0.04946433194152   -0.19549907059538
C        -1.23491531783930   -0.13853190648611    0.13666187714856
C         2.42477727978092    0.20265760488611   -0.96916102806391
C        -2.44975451586338   -0.01846581330105    0.39933781177658
5
 energy: -10.272775200000 gnorm: 0.010452552556 xtb: 6.2.2 (9d81278992624c895f80dd42a50cac0aa55982e2)
C         1.24913614086230    0.00352751830488   -0.57828492840807
C         0.01438231408084   -0.03472498108838   -0.19602195121243
C        -1.23460461908566   -0.13175524028837    0.13314316062310
C         2.42432865930791    0.19433340913356   -0.97109553485646
C        -2.45324249516541   -0.03138070606167    0.40120525385385
5
 energy: -10.272925083515 gnorm: 0.008939293306 xtb: 6.2.2 (9d81278992624c895f80dd42a50cac0aa55982e2)
C         1.25086001615739    0.01062826280125   -0.58110506240049
C         0.01185321725959   -0.01560206909877   -0.19923392660828
C        -1.23544632407047   -0.11941424061487    0.12523805633528
C         2.42766833607140    0.17786197228422   -0.96657055700260
C        -2.45493524541794   -0.05347392537182    0.41061748967608
5
 energy: -10.273093961259 gnorm: 0.009886093831 xtb: 6.2.2 (9d81278992624c895f80dd42a50cac0aa55982e2)
C         1.24883827158354    0.02567623961754   -0.59013046247424
C         0.00865532003511   -0.00054470201226   -0.20651843522136
C        -1.23775297170585   -0.10345760204411    0.11544130910617
C         2.43357684343621    0.15740527986009   -0.95569113334282
C        -2.45331746334903   -0.07907921542125    0.42584472193222
5
 energy: -10.273261679417 gnorm: 0.007633443343 xtb: 6.2.2 (9d81278992624c895f80dd42a50cac0aa55982e2)
C         1.24396825922387    0.04799269728699   -0.60264002346862
C         0.00460775596088    0.00674954256452   -0.21934318752580
C        -1.24159525654903   -0.08582329132508    0.10705138588876
C         2.44109416391663    0.13578228768639   -0.94018155542141
C        -2.44807492255236   -0.10470123621280    0.44405938052706
5
 energy: -10.273256306193 gnorm: 0.005348085009 xtb: 6.2.2 (9d81278992624c895f80dd42a50cac0aa55982e2)
C         1.24764967816310    0.04077277553239   -0.59067377268288
C         0.00286618186846    0.01193572774445   -0.22648896032297
C        -1.24619243510802   -0.08036992694957    0.09585778900300
C         2.44097930344049    0.13733888067345   -0.94307334500009
C        -2.44530272836406   -0.10967745700071    0.45332428900293
5
 energy: -10.273304351758 gnorm: 0.002600170071 xtb: 6.2.2 (9d81278992624c895f80dd42a50cac0aa55982e2)
C         1.24353074566253    0.04867996163772   -0.60161184887681
C         0.00235383345748    0.01448340299169   -0.23077295373679
C        -1.24556171402003   -0.08102377743559    0.10371674662066
C         2.44473456427088    0.13029790783513   -0.93475907187448
C        -2.44505742937088   -0.11243749502894    0.45237312786740
5
 energy: -10.273313676429 gnorm: 0.002499786886 xtb: 6.2.2 (9d81278992624c895f80dd42a50cac0aa55982e2)
C         1.24275563430943    0.04971403878460   -0.60213207315525
C         0.00280098875684    0.01261906020373   -0.23067069829431
C        -1.24531754924784   -0.08001720673287    0.10549411393447
C         2.44482756977715    0.13019540234450   -0.93479401238570
C        -2.44506664359559   -0.11251129459994    0.45104866990078
5
 energy: -10.273334225095 gnorm: 0.004046926905 xtb: 6.2.2 (9d81278992624c895f80dd42a50cac0aa55982e2)
C         1.24193139805327    0.05159677420730   -0.60112145571094
C         0.00374327737277    0.00651272769330   -0.23065591644658
C        -1.24485672573336   -0.07568718638569    0.10903880960739
C         2.44460297876624    0.13075490966233   -0.93635888031514
C        -2.44542092845894   -0.11317722517723    0.44804344286526
5
 energy: -10.273351532322 gnorm: 0.004551293055 xtb: 6.2.2 (9d81278992624c895f80dd42a50cac0aa55982e2)
C         1.24210873324560    0.05367918575594   -0.59945305555380
C         0.00363985052701    0.00160127550619   -0.23245724950298
C        -1.24456764909197   -0.07029944588581    0.11136883913302
C         2.44456729406399    0.13031927481729   -0.93732384350582
C        -2.44574822874465   -0.11530029019358    0.44681130942956
5
 energy: -10.273368904419 gnorm: 0.003065032460 xtb: 6.2.2 (9d81278992624c895f80dd42a50cac0aa55982e2)
C         1.24312656171772    0.05700025143479   -0.59736466619324
C         0.00211313226561   -0.00198209355036   -0.23733122632248
C        -1.24433976770007   -0.06293893452882    0.11278186500881
C         2.44485354400157    0.12780462352861   -0.93691200676494
C        -2.44575347028485   -0.11988384688421    0.44777203427183
5
 energy: -10.273374453976 gnorm: 0.001050014550 xtb: 6.2.2 (9d81278992624c895f80dd42a50cac0aa55982e2)
C         1.24394946713541    0.05890423151761   -0.59669739541332
C         0.00058182868720   -0.00112692591116   -0.24091011617530
C        -1.24434477362152   -0.06025817937812    0.11209932513806
C         2.44515708522801    0.12528202346128   -0.93550608115039
C        -2.44534360742912   -0.12280114968959    0.44996026760093
5
 energy: -10.273375868953 gnorm: 0.000773887653 xtb: 6.2.2 (9d81278992624c895f80dd42a50cac0aa55982e2)
C         1.24444909031090    0.06014646069058   -0.59673817301885
C        -0.00037566377587    0.00113233174648   -0.24277163506666
C        -1.24450852076514   -0.06049761693922    0.11085867265105
C         2.44542815432124    0.12327614954675   -0.93427779541246
C        -2.44499306009114   -0.12405732504458    0.45187493084690
