$hessian                                                                        
        0.9074034058   0.0442400591  -0.2476761091  -0.2611884759  -0.0116831683
        0.0708526084  -0.3039857152  -0.0149647660   0.0829601651  -0.5074247229
       -0.0259566465   0.1386555623   0.1652173706   0.0083779337  -0.0447893959
        0.0442400591   0.0329119174  -0.0124924013  -0.0112304506  -0.0127182116
        0.0031949176  -0.0144997672  -0.0126456025   0.0041191492  -0.0264071088
       -0.0154672781   0.0074216910   0.0078981422   0.0079210020  -0.0022432218
       -0.2476761091  -0.0124924013   0.1006405699   0.0713316745   0.0033470904
       -0.0324868063   0.0826264993   0.0042336455  -0.0353713761   0.1383189915
        0.0072775074  -0.0529504564  -0.0446065070  -0.0023696347   0.0201689908
       -0.2611884759  -0.0112304506   0.0713316745   0.9531357783   0.0456119462
       -0.2648611861  -0.2633010926  -0.0121311879   0.0714357389  -0.2143158242
       -0.0110122599   0.0607643530  -0.2142789701  -0.0111509771   0.0613325413
       -0.0116831683  -0.0127182116   0.0033470904   0.0456119462   0.0233498818
       -0.0129603562  -0.0128960373  -0.0126921944   0.0036659346  -0.0105417337
        0.0010247080   0.0029673729  -0.0104880045   0.0010384332   0.0029801332
        0.0708526084   0.0031949176  -0.0324868063  -0.2648611861  -0.0129603562
        0.0963814575   0.0712416024   0.0034382992  -0.0323232157   0.0612643757
        0.0031256360  -0.0156818989   0.0614867966   0.0031769045  -0.0158901285
       -0.3039857152  -0.0144997672   0.0826264993  -0.2633010926  -0.0128960373
        0.0712416024   0.9059620586   0.0451284360  -0.2486239876   0.1652661771
        0.0082126400  -0.0443459233  -0.5039237535  -0.0259822233   0.1391055035
       -0.0149647660  -0.0126456025   0.0042336455  -0.0121311879  -0.0126921944
        0.0034382992   0.0451284360   0.0330026181  -0.0128179361   0.0082573404
        0.0079380894  -0.0023213281  -0.0262891238  -0.0156032808   0.0074675055
        0.0829601651   0.0041191492  -0.0353713761   0.0714357389   0.0036659346
       -0.0323232157  -0.2486239876  -0.0128179361   0.1012916802  -0.0448035216
       -0.0023327448   0.0201021930   0.1390275031   0.0073760505  -0.0536984048
       -0.5074247229  -0.0264071088   0.1383189915  -0.2143158242  -0.0105417337
        0.0612643757   0.1652661771   0.0082573404  -0.0448035216   0.6598243977
        0.0340457956  -0.1832983074  -0.1033996494  -0.0054164631   0.0285137247
       -0.0259566465  -0.0154672781   0.0072775074  -0.0110122599   0.0010247080
        0.0031256360   0.0082126400   0.0079380894  -0.0023327448   0.0340457956
        0.0097558605  -0.0095732618  -0.0052920354  -0.0032549068   0.0015026235
        0.1386555623   0.0074216910  -0.0529504564   0.0607643530   0.0029673729
       -0.0156818989  -0.0443459233  -0.0023213281   0.0201021930  -0.1832983074
       -0.0095732618   0.0595162795   0.0282383851   0.0015230755  -0.0109866673
        0.1652173706   0.0078981422  -0.0446065070  -0.2142789701  -0.0104880045
        0.0614867966  -0.5039237535  -0.0262891238   0.1390275031  -0.1033996494
       -0.0052920354   0.0282383851   0.6563436720   0.0341696601  -0.1841510873
        0.0083779337   0.0079210020  -0.0023696347  -0.0111509771   0.0010384332
        0.0031769045  -0.0259822233  -0.0156032808   0.0073760505  -0.0054164631
       -0.0032549068   0.0015230755   0.0341696601   0.0098982052  -0.0097066517
       -0.0447893959  -0.0022432218   0.0201689908   0.0613325413   0.0029801332
       -0.0158901285   0.1391055035   0.0074675055  -0.0536984048   0.0285137247
        0.0015026235  -0.0109866673  -0.1841510873  -0.0097066517   0.0604055532
