$hessian                                                                        
        0.4206283057   0.1720242624   0.1119302656  -0.1753527414  -0.0068951834
       -0.1643030840  -0.0832125749  -0.0120610971  -0.0087361671  -0.1624175518
       -0.1570099956   0.0605108975   0.0003545624   0.0039420137   0.0005980880
        0.1720242624   0.1779621010  -0.0074749121  -0.0527528518  -0.0056258048
       -0.0310912595  -0.0074175306   0.0510904424  -0.0157757048  -0.1139955817
       -0.2159295539   0.0542738973   0.0021417017  -0.0074971847   0.0000679791
        0.1119302656  -0.0074749121   0.2014172984  -0.1004676398  -0.0291324121
       -0.1936342816   0.0138314667  -0.0141809132   0.0514037217  -0.0038928413
        0.0505353900  -0.0476503414  -0.0214012512   0.0002528474  -0.0115363971
       -0.1753527414  -0.0527528518  -0.1004676398   0.2604032096   0.0103031794
        0.0027056381  -0.1744592165   0.0277374362   0.1030722900   0.1071428287
        0.0135649060  -0.0075122672  -0.0177340805   0.0011473302   0.0022019789
       -0.0068951834  -0.0056258048  -0.0291324121   0.0103031794   0.1235482538
        0.0412356065  -0.0183987809  -0.0005451688  -0.0145364303   0.0136234424
       -0.0691234602   0.0776254862   0.0013673425  -0.0482538200  -0.0751922503
       -0.1643030840  -0.0310912595  -0.1936342816   0.0027056381   0.0412356065
        0.7852005898   0.1666586081  -0.0084542859  -0.1992407311  -0.0085614150
        0.0915896149  -0.0800963087   0.0035002527  -0.0932796760  -0.3122292685
       -0.0832125749  -0.0074175306   0.0138314667  -0.1744592165  -0.0183987809
        0.1666586081   0.4594832260  -0.1320502580  -0.1147850218  -0.2032677442
        0.1604567073  -0.0648399311   0.0014563096  -0.0025901378  -0.0008651219
       -0.0120610971   0.0510904424  -0.0141809132   0.0277374362  -0.0005451688
       -0.0084542859  -0.1320502580   0.1348236524  -0.0205029283   0.1172615229
       -0.1771537306   0.0431479485  -0.0008876039  -0.0082151953  -0.0000098211
       -0.0087361671  -0.0157757048   0.0514037217   0.1030722900  -0.0145364303
       -0.1992407311  -0.1147850218  -0.0205029283   0.2062540984  -0.0004142418
        0.0475040504  -0.0464515912   0.0208631407   0.0033110130  -0.0119654978
       -0.1624175518  -0.1139955817  -0.0038928413   0.1071428287   0.0136234424
       -0.0085614150  -0.2032677442   0.1172615229  -0.0004142418   0.2697747577
       -0.0146409557   0.0124682709  -0.0112322904  -0.0022484278   0.0004002272
       -0.1570099956  -0.2159295539   0.0505353900   0.0135649060  -0.0691234602
        0.0915896149   0.1604567073  -0.1771537306   0.0475040504  -0.0146409557
        0.4409571613  -0.1849568469  -0.0023706620   0.0212495834  -0.0046722084
        0.0605108975   0.0542738973  -0.0476503414  -0.0075122672   0.0776254862
       -0.0800963087  -0.0648399311   0.0431479485  -0.0464515912   0.0124682709
       -0.1849568469   0.1783663230  -0.0006269701   0.0099095148  -0.0041680817
        0.0003545624   0.0021417017  -0.0214012512  -0.0177340805   0.0013673425
        0.0035002527   0.0014563096  -0.0008876039   0.0208631407  -0.0112322904
       -0.0023706620  -0.0006269701   0.0271554988  -0.0002507783  -0.0023351721
        0.0039420137  -0.0074971847   0.0002528474   0.0011473302  -0.0482538200
       -0.0932796760  -0.0025901378  -0.0082151953   0.0033110130  -0.0022484278
        0.0212495834   0.0099095148  -0.0002507783   0.0427166166   0.0798063007
        0.0005980880   0.0000679791  -0.0115363971   0.0022019789  -0.0751922503
       -0.3122292685  -0.0008651219  -0.0000098211  -0.0119654978   0.0004002272
       -0.0046722084  -0.0041680817  -0.0023351721   0.0798063007   0.3398992452
