      -----------------------------------------------------------      
     |                   =====================                   |     
     |                           x T B                           |     
     |                   =====================                   |     
     |                         S. Grimme                         |     
     |          Mulliken Center for Theoretical Chemistry        |     
     |                    University of Bonn                     |     
      -----------------------------------------------------------      

   * xtb version 6.2.2 (9d81278992624c895f80dd42a50cac0aa55982e2) compiled by '@Darwin' on 04/03/2020

   xtb is free software: you can redistribute it and/or modify it under
   the terms of the GNU Lesser General Public License as published by
   the Free Software Foundation, either version 3 of the License, or
   (at your option) any later version.
   
   xtb is distributed in the hope that it will be useful,
   but WITHOUT ANY WARRANTY; without even the implied warranty of
   MERCHANTABILITY or FITNESS FOR A PARTICULAR PURPOSE.  See the
   GNU Lesser General Public License for more details.
   
   Cite this work as:
   * S. Grimme, C. Bannwarth, P. Shushkov, J. Chem. Theory Comput., 2017,
     13, 1989-2009. DOI: 10.1021/acs.jctc.7b00118
   * C. Bannwarth, S. Ehlert and S. Grimme., J. Chem. Theory Comput., 2019,
     15, 1652-1671. DOI: 10.1021/acs.jctc.8b01176
   * P. Pracht, E. Caldeweyher, S. Ehlert, S. Grimme, ChemRxiv, 2019, preprint.
     DOI: 10.26434/chemrxiv.8326202.v1
   
   for DFT-D4:
   * E. Caldeweyher, C. Bannwarth and S. Grimme, J. Chem. Phys., 2017,
     147, 034112. DOI: 10.1063/1.4993215
   * E. Caldeweyher, S. Ehlert, A. Hansen, H. Neugebauer, S. Spicher,
     C. Bannwarth and S. Grimme, J. Chem. Phys., 2019, 150, 154122.
     DOI: 10.1063/1.5090222
   
   for sTDA-xTB:
   * S. Grimme and C. Bannwarth, J. Chem. Phys., 2016, 145, 054103.
     DOI: 10.1063/1.4959605
   
   in the mass-spec context:
   * V. Asgeirsson, C. Bauer and S. Grimme, Chem. Sci., 2017, 8, 4879.
     DOI: 10.1039/c7sc00601b
   
   for metadynamics refer to:
   * S. Grimme, J. Chem. Theory Comput., 2019, 155, 2847-2862
     DOI: 10.1021/acs.jctc.9b00143
   
   with help from (in alphabetical order)
   C. Bannwarth, F. Bohle, G. Brandenburg, E. Caldeweyher, M. Checinski,
   S. Dohm, S. Ehlert, S. Ehrlich, F. März, H. Neugebauer, J. Pisarek,
   P. Pracht, P. Shushkov, and S. Spicher.
   
 * started run on 2020/05/12 at 11:44:50.237     

           -------------------------------------------------
          |                Calculation Setup                |
           -------------------------------------------------

          program call               : xtb --input H1C3N1_1_S_0.input H1C3N1_1_S_0.xyz --ohess --molden --namespace H1C3N1_1_S_0 output.out
          calculation namespace      : H1C3N1_1_S_0
          coordinate file            : H1C3N1_1_S_0.xyz
          number of atoms            :                     5
          number of electrons        :                    18
          charge                     :                     0
          spin                       :                   0.0
          first test random number   :      0.15857049638753

   ID    Z sym.   atoms
    1    6 C      1-3
    2    7 N      4
    3    1 H      5

           -------------------------------------------------
          |                 G F N 2 - x T B                 |
           -------------------------------------------------

        Reference                      10.1021/acs.jctc.8b01176
      * Hamiltonian:
        H0-scaling (s, p, d)           1.850000    2.230000    2.230000
        zeta-weighting                 0.500000
      * Dispersion:
        s8                             2.700000
        a1                             0.520000
        a2                             5.000000
        s9                             5.000000
      * Repulsion:
        kExp                           1.500000    1.000000
        rExp                           1.000000
      * Coulomb:
        alpha                          2.000000
        third order                    shell-resolved
        anisotropic                    true
        a3                             3.000000
        a5                             4.000000
        cn-shift                       1.200000
        cn-exp                         4.000000
        max-rad                        5.000000


          ...................................................
          :                      SETUP                      :
          :.................................................:
          :  # basis functions                  17          :
          :  # atomic orbitals                  17          :
          :  # shells                            9          :
          :  # electrons                        18          :
          :  max. iterations                   250          :
          :  Hamiltonian                  GFN2-xTB          :
          :  restarted?                      false          :
          :  GBSA solvation                  false          :
          :  PC potential                    false          :
          :  electronic temp.          300.0000000     K    :
          :  accuracy                    1.0000000          :
          :  -> integral cutoff          0.2500000E+02      :
          :  -> integral neglect         0.1000000E-07      :
          :  -> SCF convergence          0.1000000E-05 Eh   :
          :  -> wf. convergence          0.1000000E-03 e    :
          :  Broyden damping             0.4000000          :
          ...................................................

 iter      E             dE          RMSdq      gap      omega  full diag
   1     -9.2242571 -0.922426E+01  0.889E+00    0.60       0.0  T
   2     -8.1940522  0.103020E+01  0.149E+01    1.54       1.0  T
   3     -8.8557384 -0.661686E+00  0.105E+01    0.89       1.0  T
   4     -7.3132178  0.154252E+01  0.168E+01    0.49       1.0  T
   5     -9.2471769 -0.193396E+01  0.387E+00    0.68       1.0  T
   6     -9.0904775  0.156699E+00  0.654E+00    0.67       1.0  T
   7     -9.1742386 -0.837611E-01  0.541E+00    0.68       1.0  T
   8     -9.3427365 -0.168498E+00  0.980E-01    0.66       1.0  T
   9     -9.2943500  0.483865E-01  0.257E+00    0.67       1.0  T
  10     -9.3039479 -0.959793E-02  0.236E+00    0.67       1.0  T
  11     -9.3301725 -0.262245E-01  0.154E+00    0.67       1.0  T
  12     -9.3444810 -0.143085E-01  0.713E-01    0.66       1.0  T
  13     -9.3456877 -0.120677E-02  0.582E-01    0.66       1.0  T
  14     -9.3475936 -0.190584E-02  0.329E-01    0.66       1.0  T
  15     -9.3473470  0.246558E-03  0.376E-01    0.66       1.0  T
  16     -9.3476675 -0.320512E-03  0.295E-01    0.66       1.0  T
  17     -9.3482441 -0.576556E-03  0.528E-02    0.66       1.0  T
  18     -9.3482563 -0.122084E-04  0.287E-02    0.66       1.6  T
  19     -9.3482603 -0.403112E-05  0.765E-03    0.66       5.8  T
  20     -9.3482606 -0.259941E-06  0.222E-03    0.66      20.1  T
  21     -9.3482606 -0.279248E-07  0.777E-04    0.66      57.5  T
  22     -9.3482606 -0.400883E-08  0.296E-04    0.66     151.1  T

   *** convergence criteria satisfied after 22 iterations ***

         #    Occupation            Energy/Eh            Energy/eV
      -------------------------------------------------------------
         1        2.0000           -0.7172974             -19.5187
       ...           ...                  ...                  ...
         3        2.0000           -0.6460934             -17.5811
         4        2.0000           -0.6061693             -16.4947
         5        2.0000           -0.5273885             -14.3510
         6        2.0000           -0.5060122             -13.7693
         7        2.0000           -0.4918015             -13.3826
         8        2.0000           -0.4275426             -11.6340
         9        2.0000           -0.4256141             -11.5815 (HOMO)
        10        0.0000           -0.4012448             -10.9184 (LUMO)
        11                         -0.3968843             -10.7998
        12                         -0.3960195             -10.7762
        13                         -0.3874919             -10.5442
        14                          0.0509815               1.3873
       ...                                ...                  ...
        17                          0.1173162               3.1923
      -------------------------------------------------------------
                  HL-Gap            0.0243692 Eh            0.6631 eV
             Fermi-level           -0.4133775 Eh          -11.2486 eV

 SCC (total)                   0 d,  0 h,  0 min,  0.004 sec
 SCC setup                      ...        0 min,  0.000 sec (  1.968%)
 Dispersion                     ...        0 min,  0.000 sec (  0.408%)
 integral evaluation            ...        0 min,  0.001 sec ( 23.809%)
 zeroth order Hamiltonian       ...        0 min,  0.000 sec (  0.425%)
 iterations                     ...        0 min,  0.002 sec ( 47.329%)
 molecular gradient             ...        0 min,  0.001 sec ( 23.894%)
 printout                       ...        0 min,  0.000 sec (  1.973%)

         :::::::::::::::::::::::::::::::::::::::::::::::::::::
         ::                     SUMMARY                     ::
         :::::::::::::::::::::::::::::::::::::::::::::::::::::
         :: total energy              -9.292761488124 Eh    ::
         :: gradient norm              0.136336480878 Eh/a0 ::
         :: HOMO-LUMO gap              0.663120908959 eV    ::
         ::.................................................::
         :: SCC energy                -9.348260618611 Eh    ::
         :: -> isotropic ES           -0.019514614542 Eh    ::
         :: -> anisotropic ES         -0.001337395973 Eh    ::
         :: -> anisotropic XC          0.009051364453 Eh    ::
         :: -> dispersion             -0.002119487194 Eh    ::
         :: repulsion energy           0.055499011150 Eh    ::
         :: add. restraining           0.000000000000 Eh    ::
         :::::::::::::::::::::::::::::::::::::::::::::::::::::

      ----------------------------------------------------------- 
     |                   =====================                   |
     |                        A N C O P T                        |
     |                   =====================                   |
     |               Approximate Normal Coordinate               |
     |                Rational Function Optimizer                |
      ----------------------------------------------------------- 

          ...................................................
          :                      SETUP                      :
          :.................................................:
          :   optimization level            normal          :
          :   max. optcycles                   200          :
          :   ANC micro-cycles                  20          :
          :   degrees of freedom                 9          :
          :.................................................:
          :   RF solver                   davidson          :
          :   write xtbopt.log                true          :
          :   linear?                        false          :
          :   energy convergence         0.5000000E-05 Eh   :
          :   grad. convergence          0.1000000E-02 Eh/α :
          :   maximium RF displ.         1.0000000          :
          :   Hlow (freq-cutoff)         0.1000000E-01      :
          :   Hmax (freq-cutoff)         5.0000000          :
          :   S6 in model hess.         20.0000000          :
          ...................................................

generating ANC from model Hessian ...
Using Lindh-Hessian (1995)
 Shifting diagonal of input Hessian by    0.0000000000000000     
 Lowest  eigenvalues of input Hessian
   -0.000000   -0.000000   -0.000000    0.000000    0.000000    0.000000
    0.066376    0.073964    0.088378    0.107163    0.113119    0.448800
    1.010551    1.032350    1.178798
 Highest eigenvalues
    0.107163    0.113119    0.448800    1.010551    1.032350    1.178798


........................................................................
.............................. CYCLE    1 ..............................
........................................................................
   1     -9.3482606 -0.934826E+01  0.333E-05    0.66       0.0  T
   2     -9.3482606  0.641993E-10  0.994E-05    0.66     450.0  T
   3     -9.3482606 -0.588702E-10  0.375E-05    0.66    1192.4  T
     SCC iter.                  ...        0 min,  0.000 sec
     gradient                   ...        0 min,  0.001 sec
 * total energy  :    -9.2927615 Eh     change       -0.1501473E-08 Eh
   gradient norm :     0.1363356 Eh/α   predicted     0.0000000E+00 (-100.00%)
   displ. norm   :     0.3663429 α      lambda       -0.4013051E-01
   maximum displ.:     0.2687173 α      in ANC's #3, #6, #1, ...

........................................................................
.............................. CYCLE    2 ..............................
........................................................................
   1     -9.4009048 -0.940090E+01  0.195E+00    0.68       0.0  T
   2     -9.1843549  0.216550E+00  0.550E+00    0.85       1.0  T
   3     -9.3875380 -0.203183E+00  0.195E+00    0.64       1.0  T
   4     -9.4076639 -0.201259E-01  0.396E-01    0.66       1.0  T
   5     -9.4078917 -0.227750E-03  0.105E-01    0.65       1.0  T
   6     -9.4078008  0.908940E-04  0.126E-01    0.65       1.0  T
   7     -9.4078297 -0.289236E-04  0.918E-02    0.65       1.0  T
   8     -9.4079007 -0.710134E-04  0.262E-02    0.65       1.7  T
   9     -9.4079046 -0.389039E-05  0.113E-02    0.65       4.0  T
  10     -9.4079053 -0.752593E-06  0.188E-03    0.65      23.7  T
  11     -9.4079054 -0.159737E-07  0.568E-04    0.65      78.8  T
  12     -9.4079054 -0.153788E-08  0.147E-04    0.65     303.3  T
     SCC iter.                  ...        0 min,  0.001 sec
     gradient                   ...        0 min,  0.001 sec
 * total energy  :    -9.3250900 Eh     change       -0.3232852E-01 Eh
   gradient norm :     0.0726608 Eh/α   predicted    -0.2275815E-01 ( -29.60%)
   displ. norm   :     0.6018160 α      lambda       -0.3558770E-01
   maximum displ.:     0.5279786 α      in ANC's #3, #6, #5, ...

........................................................................
.............................. CYCLE    3 ..............................
........................................................................
   1     -9.4747761 -0.947478E+01  0.517E+00    0.74       0.0  T
   2     -9.4733440  0.143209E-02  0.315E+00    0.40       1.0  T
   3     -9.3825942  0.907498E-01  0.398E+00    1.00       1.0  T
   4     -9.4789691 -0.963748E-01  0.717E-01    0.40       1.0  T
   5     -9.4792281 -0.259090E-03  0.389E-01    0.39       1.0  T
   6     -9.4796867 -0.458548E-03  0.568E-02    0.43       1.0  T
   7     -9.4796858  0.916075E-06  0.404E-02    0.42       1.1  T
   8     -9.4796877 -0.190464E-05  0.188E-02    0.43       2.4  T
   9     -9.4796893 -0.163039E-05  0.104E-02    0.43       4.3  T
  10     -9.4796898 -0.503644E-06  0.264E-03    0.43      16.9  T
  11     -9.4796899 -0.338160E-07  0.553E-04    0.43      80.9  T
  12     -9.4796899 -0.121086E-08  0.178E-04    0.43     251.1  T
     SCC iter.                  ...        0 min,  0.001 sec
     gradient                   ...        0 min,  0.001 sec
 * total energy  :    -9.3665874 Eh     change       -0.4149736E-01 Eh
   gradient norm :     0.1355850 Eh/α   predicted    -0.2423846E-01 ( -41.59%)
   displ. norm   :     0.7994288 α      lambda       -0.9862071E-01
   maximum displ.:     0.7593165 α      in ANC's #3, #1, #6, ...

........................................................................
.............................. CYCLE    4 ..............................
........................................................................
   1     -9.5529390 -0.955294E+01  0.656E+00    1.77       0.0  T
   2     -9.5659380 -0.129990E-01  0.339E+00    2.19       1.0  T
   3     -9.5571167  0.882125E-02  0.261E+00    1.44       1.0  T
   4     -9.5771600 -0.200433E-01  0.772E-01    1.82       1.0  T
   5     -9.5796841 -0.252412E-02  0.170E-01    1.72       1.0  T
   6     -9.5796810  0.308504E-05  0.443E-02    1.71       1.0  T
   7     -9.5796889 -0.790567E-05  0.563E-03    1.72       7.9  T
   8     -9.5796890 -0.206417E-07  0.151E-03    1.72      29.6  T
   9     -9.5796890  0.267018E-08  0.780E-04    1.72      57.3  T
  10     -9.5796890 -0.212095E-08  0.476E-04    1.72      94.1  T
     SCC iter.                  ...        0 min,  0.001 sec
     gradient                   ...        0 min,  0.001 sec
 * total energy  :    -9.4913229 Eh     change       -0.1247355E+00 Eh
   gradient norm :     0.1810305 Eh/α   predicted    -0.8082398E-01 ( -35.20%)
   displ. norm   :     0.8212621 α      lambda       -0.1356097E+00
   maximum displ.:     0.7318904 α      in ANC's #3, #6, #1, ...

........................................................................
.............................. CYCLE    5 ..............................
........................................................................
   1     -9.6459226 -0.964592E+01  0.713E+00    2.83       0.0  T
   2     -9.6787478 -0.328252E-01  0.352E+00    3.05       1.0  T
   3     -9.6825184 -0.377069E-02  0.244E+00    3.37       1.0  T
   4     -9.6895523 -0.703388E-02  0.704E-01    2.93       1.0  T
   5     -9.6917475 -0.219514E-02  0.146E-01    3.11       1.0  T
   6     -9.6917483 -0.857392E-06  0.378E-02    3.13       1.2  T
   7     -9.6917524 -0.404971E-05  0.122E-02    3.12       3.7  T
   8     -9.6917524 -0.558890E-07  0.150E-03    3.12      29.9  T
   9     -9.6917524 -0.303039E-09  0.118E-03    3.12      38.0  T
  10     -9.6917524 -0.978862E-08  0.297E-04    3.12     150.7  T
  11     -9.6917524 -0.110406E-09  0.643E-05    3.12     695.6  T
     SCC iter.                  ...        0 min,  0.001 sec
     gradient                   ...        0 min,  0.001 sec
 * total energy  :    -9.5537884 Eh     change       -0.6246558E-01 Eh
   gradient norm :     0.1567977 Eh/α   predicted    -0.1135373E+00 (  81.76%)
   displ. norm   :     0.2922326 α      lambda       -0.3664925E-01
   maximum displ.:     0.1715276 α      in ANC's #3, #5, #6, ...

........................................................................
.............................. CYCLE    6 ..............................
........................................................................
   1     -9.6645350 -0.966453E+01  0.240E+00    3.09       0.0  T
   2     -9.6708946 -0.635957E-02  0.130E+00    3.24       1.0  T
   3     -9.6727539 -0.185931E-02  0.781E-01    3.20       1.0  T
   4     -9.6731208 -0.366881E-03  0.185E-01    3.22       1.0  T
   5     -9.6732841 -0.163314E-03  0.513E-02    3.23       1.0  T
   6     -9.6732850 -0.931366E-06  0.804E-03    3.23       5.6  T
   7     -9.6732851 -0.902758E-07  0.353E-03    3.23      12.7  T
   8     -9.6732851  0.318735E-07  0.260E-03    3.23      17.2  T
   9     -9.6732851 -0.532584E-07  0.629E-04    3.23      71.1  T
  10     -9.6732851 -0.604956E-09  0.762E-05    3.23     586.6  T
     SCC iter.                  ...        0 min,  0.001 sec
     gradient                   ...        0 min,  0.001 sec
 * total energy  :    -9.5668476 Eh     change       -0.1305913E-01 Eh
   gradient norm :     0.0735648 Eh/α   predicted    -0.1988954E-01 (  52.30%)
   displ. norm   :     0.1514720 α      lambda       -0.8202954E-02
   maximum displ.:     0.0954416 α      in ANC's #1, #5, #6, ...

........................................................................
.............................. CYCLE    7 ..............................
........................................................................
   1     -9.6929285 -0.969293E+01  0.104E+00    3.23       0.0  T
   2     -9.6936275 -0.699055E-03  0.569E-01    3.16       1.0  T
   3     -9.6937315 -0.104009E-03  0.335E-01    3.17       1.0  T
   4     -9.6938343 -0.102822E-03  0.670E-02    3.15       1.0  T
   5     -9.6938501 -0.157709E-04  0.286E-02    3.15       1.6  T
   6     -9.6938506 -0.443326E-06  0.495E-03    3.15       9.0  T
   7     -9.6938505  0.113808E-08  0.190E-03    3.15      23.6  T
   8     -9.6938505  0.359017E-08  0.130E-03    3.15      34.4  T
   9     -9.6938506 -0.130441E-07  0.273E-04    3.15     163.7  T
  10     -9.6938506 -0.120778E-09  0.308E-05    3.15    1451.3  T
     SCC iter.                  ...        0 min,  0.001 sec
     gradient                   ...        0 min,  0.001 sec
 * total energy  :    -9.5713650 Eh     change       -0.4517487E-02 Eh
   gradient norm :     0.0430896 Eh/α   predicted    -0.4195581E-02 (  -7.13%)
   displ. norm   :     0.1740900 α      lambda       -0.6477127E-02
   maximum displ.:     0.1005499 α      in ANC's #5, #3, #9, ...

........................................................................
.............................. CYCLE    8 ..............................
........................................................................
   1     -9.7006029 -0.970060E+01  0.940E-01    3.44       0.0  T
   2     -9.7009747 -0.371803E-03  0.566E-01    3.43       1.0  T
   3     -9.7010685 -0.938425E-04  0.336E-01    3.44       1.0  T
   4     -9.7012657 -0.197177E-03  0.523E-02    3.43       1.0  T
   5     -9.7012724 -0.666216E-05  0.239E-02    3.43       1.9  T
   6     -9.7012726 -0.180882E-06  0.259E-03    3.43      17.3  T
   7     -9.7012726 -0.246562E-08  0.640E-04    3.43      69.9  T
   8     -9.7012726  0.189926E-09  0.319E-04    3.43     140.4  T
     SCC iter.                  ...        0 min,  0.001 sec
     gradient                   ...        0 min,  0.001 sec
 * total energy  :    -9.5746269 Eh     change       -0.3261831E-02 Eh
   gradient norm :     0.0451897 Eh/α   predicted    -0.3336717E-02 (   2.30%)
   displ. norm   :     0.1201630 α      lambda       -0.3248591E-02
   maximum displ.:     0.0854035 α      in ANC's #5, #9, #1, ...

........................................................................
.............................. CYCLE    9 ..............................
........................................................................
   1     -9.6981957 -0.969820E+01  0.435E-01    3.37       0.0  T
   2     -9.6982938 -0.981400E-04  0.232E-01    3.40       1.0  T
   3     -9.6983011 -0.728747E-05  0.121E-01    3.39       1.0  T
   4     -9.6983123 -0.111924E-04  0.211E-02    3.40       2.1  T
   5     -9.6983135 -0.120842E-05  0.111E-02    3.40       4.0  T
   6     -9.6983136 -0.944180E-07  0.275E-03    3.40      16.2  T
   7     -9.6983137 -0.357061E-07  0.159E-03    3.40      28.1  T
   8     -9.6983137 -0.105668E-07  0.309E-04    3.40     144.5  T
   9     -9.6983137 -0.141991E-09  0.116E-04    3.40     386.6  T
     SCC iter.                  ...        0 min,  0.001 sec
     gradient                   ...        0 min,  0.001 sec
 * total energy  :    -9.5771216 Eh     change       -0.2494751E-02 Eh
   gradient norm :     0.0244320 Eh/α   predicted    -0.1647749E-02 ( -33.95%)
   displ. norm   :     0.1842441 α      lambda       -0.3140836E-02
   maximum displ.:     0.1157084 α      in ANC's #5, #9, #3, ...

........................................................................
.............................. CYCLE   10 ..............................
........................................................................
   1     -9.6999787 -0.969998E+01  0.762E-01    3.27       0.0  T
   2     -9.7002567 -0.277956E-03  0.398E-01    3.27       1.0  T
   3     -9.7002883 -0.316059E-04  0.267E-01    3.26       1.0  T
   4     -9.7003899 -0.101602E-03  0.434E-02    3.27       1.0  T
   5     -9.7003972 -0.731607E-05  0.166E-02    3.26       2.7  T
   6     -9.7003972 -0.536046E-09  0.434E-03    3.26      10.3  T
   7     -9.7003973 -0.122148E-06  0.190E-03    3.26      23.6  T
   8     -9.7003973 -0.123932E-07  0.416E-04    3.26     107.5  T
   9     -9.7003973 -0.223899E-09  0.112E-04    3.26     399.5  T
     SCC iter.                  ...        0 min,  0.001 sec
     gradient                   ...        0 min,  0.001 sec
 * total energy  :    -9.5782715 Eh     change       -0.1149829E-02 Eh
   gradient norm :     0.0168721 Eh/α   predicted    -0.1623726E-02 (  41.21%)
   displ. norm   :     0.0376926 α      lambda       -0.3861882E-03
   maximum displ.:     0.0279669 α      in ANC's #1, #3, #7, ...

........................................................................
.............................. CYCLE   11 ..............................
........................................................................
   1     -9.6992482 -0.969925E+01  0.196E-01    3.33       0.0  T
   2     -9.6992653 -0.171259E-04  0.107E-01    3.32       1.0  T
   3     -9.6992686 -0.323581E-05  0.720E-02    3.32       1.0  T
   4     -9.6992770 -0.837150E-05  0.108E-02    3.32       4.1  T
   5     -9.6992774 -0.421223E-06  0.452E-03    3.32       9.9  T
   6     -9.6992773  0.839223E-07  0.441E-03    3.32      10.1  T
   7     -9.6992774 -0.141322E-06  0.362E-04    3.32     123.5  T
   8     -9.6992774 -0.404654E-10  0.946E-05    3.32     472.6  T
     SCC iter.                  ...        0 min,  0.001 sec
     gradient                   ...        0 min,  0.001 sec
 * total energy  :    -9.5784526 Eh     change       -0.1811038E-03 Eh
   gradient norm :     0.0028149 Eh/α   predicted    -0.1933671E-03 (   6.77%)
   displ. norm   :     0.0111630 α      lambda       -0.2166825E-04
   maximum displ.:     0.0081987 α      in ANC's #1, #5, #6, ...

........................................................................
.............................. CYCLE   12 ..............................
........................................................................
   1     -9.7003523 -0.970035E+01  0.387E-02    3.34       0.0  T
   2     -9.7003525 -0.190861E-06  0.219E-02    3.34       2.0  T
   3     -9.7003514  0.102969E-05  0.125E-02    3.34       3.6  T
   4     -9.7003524 -0.980886E-06  0.533E-03    3.34       8.4  T
   5     -9.7003526 -0.204999E-06  0.133E-03    3.34      33.6  T
   6     -9.7003526  0.531942E-09  0.551E-04    3.34      81.1  T
   7     -9.7003526 -0.119057E-08  0.140E-04    3.34     318.9  T
     SCC iter.                  ...        0 min,  0.001 sec
     gradient                   ...        0 min,  0.001 sec
 * total energy  :    -9.5784602 Eh     change       -0.7629216E-05 Eh
   gradient norm :     0.0007337 Eh/α   predicted    -0.1083425E-04 (  42.01%)
   displ. norm   :     0.0092231 α      lambda       -0.3789475E-05
   maximum displ.:     0.0070680 α      in ANC's #5, #9, #2, ...

........................................................................
.............................. CYCLE   13 ..............................
........................................................................
   1     -9.7001750 -0.970018E+01  0.492E-02    3.33       0.0  T
   2     -9.7001747  0.302651E-06  0.296E-02    3.34       1.5  T
   3     -9.7001694  0.536286E-05  0.282E-02    3.33       1.6  T
   4     -9.7001757 -0.635744E-05  0.526E-03    3.33       8.5  T
   5     -9.7001759 -0.146922E-06  0.184E-03    3.33      24.3  T
   6     -9.7001759 -0.222131E-08  0.849E-04    3.33      52.7  T
   7     -9.7001759 -0.218636E-08  0.184E-04    3.33     243.4  T
     SCC iter.                  ...        0 min,  0.001 sec
     gradient                   ...        0 min,  0.001 sec
 * total energy  :    -9.5784601 Eh     change        0.1073397E-06 Eh
   gradient norm :     0.0013747 Eh/α   predicted    -0.1893552E-05 (*******%)
   displ. norm   :     0.0086949 α      lambda       -0.4610304E-05
   maximum displ.:     0.0055019 α      in ANC's #2, #5, #4, ...

........................................................................
.............................. CYCLE   14 ..............................
........................................................................
   1     -9.6999784 -0.969998E+01  0.749E-02    3.33       0.0  T
   2     -9.6999771  0.124689E-05  0.448E-02    3.33       1.0  T
   3     -9.6999622  0.149036E-04  0.460E-02    3.33       1.0  T
   4     -9.6999800 -0.178287E-04  0.447E-03    3.33      10.0  T
   5     -9.6999801 -0.595548E-07  0.243E-03    3.33      18.4  T
   6     -9.6999801 -0.906553E-08  0.804E-04    3.33      55.6  T
   7     -9.6999801 -0.216265E-08  0.246E-04    3.33     182.1  T
     SCC iter.                  ...        0 min,  0.001 sec
     gradient                   ...        0 min,  0.001 sec
 * total energy  :    -9.5784574 Eh     change        0.2733648E-05 Eh
   gradient norm :     0.0017810 Eh/α   predicted    -0.2304364E-05 (-184.30%)
   displ. norm   :     0.0094642 α      lambda       -0.6906027E-05
   maximum displ.:     0.0073811 α      in ANC's #5, #9, #1, ...

........................................................................
.............................. CYCLE   15 ..............................
........................................................................
   1     -9.7003111 -0.970031E+01  0.431E-02    3.34       0.0  T
   2     -9.7003111  0.872213E-07  0.259E-02    3.34       1.7  T
   3     -9.7003075  0.358677E-05  0.233E-02    3.33       1.9  T
   4     -9.7003116 -0.413018E-05  0.563E-03    3.34       7.9  T
   5     -9.7003118 -0.190588E-06  0.170E-03    3.34      26.3  T
   6     -9.7003118 -0.124025E-08  0.813E-04    3.34      55.0  T
   7     -9.7003118 -0.193015E-08  0.165E-04    3.34     271.7  T
     SCC iter.                  ...        0 min,  0.001 sec
     gradient                   ...        0 min,  0.001 sec
 * total energy  :    -9.5784618 Eh     change       -0.4484209E-05 Eh
   gradient norm :     0.0004132 Eh/α   predicted    -0.3453072E-05 ( -22.99%)
   displ. norm   :     0.0022816 α      lambda       -0.4274774E-06
   maximum displ.:     0.0017942 α      in ANC's #5, #9, #7, ...

   *** GEOMETRY OPTIMIZATION CONVERGED AFTER 15 ITERATIONS ***

------------------------------------------------------------------------
 total energy gain   :        -0.2857003 Eh     -179.2797 kcal/mol
 total RMSD          :         1.0975264 a0        0.5808 Å
 total power (kW/mol):       -50.0070772 (step)********** (real)
------------------------------------------------------------------------

 ANCopt (total)                0 d,  0 h,  0 min,  0.045 sec
 optimizer setup                ...        0 min,  0.000 sec (  0.139%)
 model hessian                  ...        0 min,  0.000 sec (  0.204%)
 ANC generation                 ...        0 min,  0.000 sec (  0.112%)
 coordinate transformation      ...        0 min,  0.000 sec (  0.076%)
 single point calculation       ...        0 min,  0.044 sec ( 96.844%)
 optimization log               ...        0 min,  0.000 sec (  0.817%)
 hessian update                 ...        0 min,  0.000 sec (  0.068%)
 rational function              ...        0 min,  0.000 sec (  0.771%)

================
 final structure:
================
5
 xtb: 6.2.2 (9d81278992624c895f80dd42a50cac0aa55982e2)
C        -0.96686909974624   -0.28131265077492   -0.54679692440803
C         0.02353430885338   -0.25980441539506    0.47942900542718
C         0.98504266513667   -0.14240556262952   -0.56770163592872
N        -0.05666849752620    0.66802580865035   -0.87536935851123
H         0.01495962328239    0.01549682014915    1.51043891342080

 Bond Distances (Angstroems)
 ---------------------------
C1-C2=1.4264         C1-N4=1.3556         C2-C1=1.4264         C2-C3=1.4265         C2-N4=1.6440         C2-H5=1.0672         
C3-C2=1.4265         C3-N4=1.3552         N4-C1=1.3556         N4-C2=1.6440         N4-C3=1.3552         H5-C2=1.0672         
 C  H  Rav=1.0672 sigma=0.0000  Rmin=1.0672  Rmax=1.0672     1
 C  C  Rav=1.4264 sigma=0.0000  Rmin=1.4264  Rmax=1.4265     2
 N  C  Rav=1.4516 sigma=0.1360  Rmin=1.3552  Rmax=1.6440     3

 selected bond angles (degree)
 --------------------
N4-C1-C2= 72.40                C3-C2-C1= 86.62                N4-C2-C1= 51.81                N4-C2-C3= 51.79                
H5-C2-C1=133.90                H5-C2-C3=133.90                H5-C2-N4=130.55                N4-C3-C2= 72.41                
C2-N4-C1= 55.79                C3-N4-C1= 92.42                C3-N4-C2= 55.80                

 selected dihedral angles (degree)
 ---------------------------------
C3-C2-C1-N4=317.89            H5-C2-C1-N4=113.02            N4-C3-C2-C1= 42.12            N4-C3-C2-H5=246.99            
C3-N4-C1-C2= 44.84            C1-N4-C2-C3=121.59            C1-N4-C2-H5=240.79            C3-N4-C2-C1=238.41            
C3-N4-C2-H5=119.20            C1-N4-C3-C2=315.16            
           -------------------------------------------------
          |                Final Singlepoint                |
           -------------------------------------------------

          ...................................................
          :                      SETUP                      :
          :.................................................:
          :  # basis functions                  17          :
          :  # atomic orbitals                  17          :
          :  # shells                            9          :
          :  # electrons                        18          :
          :  max. iterations                   250          :
          :  Hamiltonian                  GFN2-xTB          :
          :  restarted?                      false          :
          :  GBSA solvation                  false          :
          :  PC potential                    false          :
          :  electronic temp.          300.0000000     K    :
          :  accuracy                    1.0000000          :
          :  -> integral cutoff          0.2500000E+02      :
          :  -> integral neglect         0.1000000E-07      :
          :  -> SCF convergence          0.1000000E-05 Eh   :
          :  -> wf. convergence          0.1000000E-03 e    :
          :  Broyden damping             0.4000000          :
          ...................................................

 iter      E             dE          RMSdq      gap      omega  full diag
   1     -9.7003118 -0.970031E+01  0.352E-05    3.34       0.0  T
   2     -9.7003118  0.133760E-11  0.241E-05    3.34    1852.9  T
   3     -9.7003118  0.376588E-12  0.241E-05    3.34    1856.3  T

   *** convergence criteria satisfied after 3 iterations ***

         #    Occupation            Energy/Eh            Energy/eV
      -------------------------------------------------------------
         1        2.0000           -0.7536186             -20.5070
       ...           ...                  ...                  ...
         3        2.0000           -0.6337753             -17.2459
         4        2.0000           -0.5888304             -16.0229
         5        2.0000           -0.5466865             -14.8761
         6        2.0000           -0.5261815             -14.3181
         7        2.0000           -0.4665498             -12.6955
         8        2.0000           -0.4599566             -12.5161
         9        2.0000           -0.4293689             -11.6837 (HOMO)
        10                         -0.3067948              -8.3483 (LUMO)
        11                         -0.3061990              -8.3321
        12                         -0.2558330              -6.9616
        13                          0.0387837               1.0554
        14                          0.0464141               1.2630
       ...                                ...                  ...
        17                          0.5167615              14.0618
      -------------------------------------------------------------
                  HL-Gap            0.1225741 Eh            3.3354 eV
             Fermi-level           -0.3680819 Eh          -10.0160 eV

 SCC (total)                   0 d,  0 h,  0 min,  0.003 sec
 SCC setup                      ...        0 min,  0.000 sec (  2.003%)
 Dispersion                     ...        0 min,  0.000 sec (  0.424%)
 integral evaluation            ...        0 min,  0.001 sec ( 36.888%)
 zeroth order Hamiltonian       ...        0 min,  0.000 sec (  0.523%)
 iterations                     ...        0 min,  0.001 sec ( 19.224%)
 molecular gradient             ...        0 min,  0.001 sec ( 38.863%)
 printout                       ...        0 min,  0.000 sec (  1.777%)

         :::::::::::::::::::::::::::::::::::::::::::::::::::::
         ::                     SUMMARY                     ::
         :::::::::::::::::::::::::::::::::::::::::::::::::::::
         :: total energy              -9.578461833991 Eh    ::
         :: gradient norm              0.000417497331 Eh/a0 ::
         :: HOMO-LUMO gap              3.335410226494 eV    ::
         ::.................................................::
         :: SCC energy                -9.700311795377 Eh    ::
         :: -> isotropic ES           -0.008196916070 Eh    ::
         :: -> anisotropic ES          0.003095240783 Eh    ::
         :: -> anisotropic XC          0.010288522725 Eh    ::
         :: -> dispersion             -0.001960461589 Eh    ::
         :: repulsion energy           0.121849933210 Eh    ::
         :: add. restraining           0.000000000000 Eh    ::
         :::::::::::::::::::::::::::::::::::::::::::::::::::::

           ------------------------------------------------- 
          |                Numerical Hessian                |
           ------------------------------------------------- 
step length          :   0.00500
SCC accuracy         :   0.30000
Hessian scale factor :   1.00000
frozen atoms in %    :   0.00000    0
RMS gradient         :   0.00042
estimated CPU  time      0.00 min
estimated wall time      0.00 min

writing file <hessian>.

 projected vibrational frequencies (cm-1)
eigval :       -0.00    -0.00     0.00     0.00     0.00     0.00
eigval :      605.94   728.38   733.16   822.60   916.49  1189.50
eigval :     1331.06  1472.18  3194.98
           -------------------------------------------------
          |                Property Printout                |
           -------------------------------------------------

    * Orbital Energies and Occupations

         #    Occupation            Energy/Eh            Energy/eV
      -------------------------------------------------------------
         1        2.0000           -0.7536186             -20.5070
         2        2.0000           -0.6490900             -17.6626
         3        2.0000           -0.6337753             -17.2459
         4        2.0000           -0.5888305             -16.0229
         5        2.0000           -0.5466865             -14.8761
         6        2.0000           -0.5261815             -14.3181
         7        2.0000           -0.4665498             -12.6955
         8        2.0000           -0.4599566             -12.5161
         9        2.0000           -0.4293689             -11.6837 (HOMO)
        10                         -0.3067948              -8.3483 (LUMO)
        11                         -0.3061991              -8.3321
        12                         -0.2558330              -6.9616
        13                          0.0387837               1.0554
        14                          0.0464140               1.2630
        15                          0.1886874               5.1344
        16                          0.2432754               6.6199
        17                          0.5167615              14.0618
      -------------------------------------------------------------
                  HL-Gap            0.1225741 Eh            3.3354 eV
             Fermi-level           -0.3680819 Eh          -10.0160 eV

     #   Z        covCN         q      C6AA      α(0)
     1   6 C      2.469    -0.069    30.011     8.943
     2   6 C      3.752     0.093    19.098     6.232
     3   6 C      2.469    -0.069    30.009     8.943
     4   7 N      2.685    -0.035    21.930     6.955
     5   1 H      0.927     0.080     1.979     2.200

 Mol. C6AA /au·bohr⁶  :        457.478793
 Mol. C8AA /au·bohr⁸  :      11918.941765
 Mol. α(0) /au        :         33.272577


Wiberg/Mayer (AO) data.
largest (>0.10) Wiberg bond orders for each atom
          total WBO             WBO to atom ...
     1  C   2.836        N    4 1.244    C    2 1.116    C    3 0.469
     2  C   3.806        C    1 1.116    C    3 1.115    H    5 0.953    N    4 0.622
     3  C   2.836        N    4 1.245    C    2 1.115    C    1 0.469
     4  N   3.137        C    3 1.245    C    1 1.244    C    2 0.622
     5  H   0.994        C    2 0.953

MOs/occ written to file <molden.input>


molecular dipole:
                 x           y           z       tot (Debye)
 q only:        0.008      -0.033       0.516
   full:       -0.007       0.245       0.952       2.498
molecular quadrupole (traceless):
Molecule has the following symmetry elements: (sigma) 
It seems to be the Cs point group
                xx          xy          yy          xz          yz          zz
 q only:       -0.679      -0.044      -0.063       0.017      -0.028       0.742
  q+dip:       -2.852      -0.218       0.288       0.011       0.652       2.565
   full:       -3.275      -0.294       0.982      -0.006       0.911       2.293

           -------------------------------------------------
          |                Geometry Summary                 |
           -------------------------------------------------

      molecular mass/u    :       51.0468517
   center of mass at/Å    :       -0.0054416       0.0227794      -0.3597922
  moments of inertia/u·Å² :        0.2481002E+02   0.2769440E+02   0.4311306E+02
rotational constants/cm⁻¹ :        0.6794686E+00   0.6087019E+00   0.3910099E+00

 * 5 selected distances

     #   Z        #   Z                                     value/Å
     1   6 C      2   6 C                                 1.4263594
     2   6 C      3   6 C                                 1.4264513 (max)
     1   6 C      4   7 N                                 1.3556063
     3   6 C      4   7 N                                 1.3552198
     2   6 C      5   1 H                                 1.0671671 (min)

 * 3 distinct bonds (by element types)

   Z      Z             #   av. dist./Å        max./Å        min./Å
   1 H    6 C           1     1.0671671     1.0671671     1.0671671
   6 C    6 C           2     1.4264054     1.4264513     1.4263594
   6 C    7 N           2     1.3554130     1.3556063     1.3552198

           -------------------------------------------------
          |               Frequency Printout                |
           -------------------------------------------------
 projected vibrational frequencies (cm-1)
eigval :       -0.00    -0.00     0.00     0.00     0.00     0.00
eigval :      605.94   728.38   733.16   822.60   916.49  1189.50
eigval :     1331.06  1472.18  3194.98
 reduced masses (amu)
   1: 11.98   2: 11.82   3: 12.10   4: 10.97   5: 12.55   6: 12.33   7: 12.45   8: 11.21
   9: 10.89  10:  4.96  11:  3.65  12: 11.70  13: 12.36  14: 12.25  15:  1.93
 IR intensities (amu)
   1:  0.14   2:  0.20   3:  0.14   4:  0.15   5:  0.01   6:  0.12   7:  0.18   8:  0.39
   9:  0.36  10:  0.26  11:  0.01  12:  0.92  13:  0.51  14:  0.46  15:  0.03
 Raman intensities (amu)
   1:  0.00   2:  0.00   3:  0.00   4:  0.00   5:  0.00   6:  0.00   7:  0.00   8:  0.00
   9:  0.00  10:  0.00  11:  0.00  12:  0.00  13:  0.00  14:  0.00  15:  0.00
 output can be read by thermo (or use thermo option).
 writing <g98.out> molden fake output.
 recommended (thermochemical) frequency scaling factor: 1.0
           -------------------------------------------------
          |             Thermodynamic Functions             |
           -------------------------------------------------

cs  symmetry found (for desy threshold:  0.10E+00) used in thermo

          ...................................................
          :                      SETUP                      :
          :.................................................:
          :  # frequencies                           9      :
          :  # imaginary freq.                       0      :
          :  linear?                             false      :
          :  only rotor calc.                    false      :
          :  symmetry                               cs      :
          :  rotational number                       1      :
          :  scaling factor                  1.0000000      :
          :  rotor cutoff                   50.0000000 cm⁻¹ :
          :  imag. cutoff                  -20.0000000 cm⁻¹ :
          :.................................................:

    mode    ω/cm⁻¹     T·S(HO)/kcal·mol⁻¹    T·S(FR)/kcal·mol⁻¹   T·S(vib)
   ------------------------------------------------------------------------
   ------------------------------------------------------------------------

   temp. (K)  partition function   enthalpy   heat capacity  entropy
                                   cal/mol     cal/K/mol   cal/K/mol   J/K/mol
 298.15  VIB   1.16                  322.679      4.082      1.384
         ROT  0.131E+05              888.752      2.981     21.828
         INT  0.153E+05             1211.432      7.063     23.212
         TR   0.353E+27             1481.254      4.968     37.697
         TOT                        2692.6857    12.0314    60.9085   254.8410

   temp. (K)  partition function   enthalpy   heat capacity  entropy
                                   cal/mol     cal/K/mol   cal/K/mol   J/K/mol
 120.00  VIB   1.00                    2.037      0.136      0.019
         ROT  0.336E+04              357.707      2.981     19.115
         INT  0.336E+04              359.744      3.117     19.134
         TR   0.901E+26              596.178      4.968     33.177
         TOT                         955.9218     8.0848    52.3115   218.8713

   temp. (K)  partition function   enthalpy   heat capacity  entropy
                                   cal/mol     cal/K/mol   cal/K/mol   J/K/mol
 100.00  VIB   1.00                    0.419      0.039      0.005
         ROT  0.255E+04              298.089      2.981     18.572
         INT  0.255E+04              298.508      3.020     18.576
         TR   0.685E+26              496.815      4.968     32.272
         TOT                         795.3231     7.9884    50.8482   212.7487

   temp. (K)  partition function   enthalpy   heat capacity  entropy
                                   cal/mol     cal/K/mol   cal/K/mol   J/K/mol
  80.00  VIB   1.00                    0.041      0.006      0.001
         ROT  0.183E+04              238.471      2.981     17.907
         INT  0.183E+04              238.513      2.987     17.907
         TR   0.490E+26              397.452      4.968     31.164
         TOT                         635.9645     7.9550    49.0708   205.3123

   temp. (K)  partition function   enthalpy   heat capacity  entropy
                                   cal/mol     cal/K/mol   cal/K/mol   J/K/mol
  60.00  VIB   1.00                    0.001      0.000     -0.000
         ROT  0.119E+04              178.853      2.981     17.049
         INT  0.119E+04              178.854      2.981     17.049
         TR   0.319E+26              298.089      4.968     29.735
         TOT                         476.9434     7.9493    46.7841   195.7448

   temp. (K)  partition function   enthalpy   heat capacity  entropy
                                   cal/mol     cal/K/mol   cal/K/mol   J/K/mol
  40.00  VIB   1.00                    0.000      0.000     -0.000
         ROT   646.                  119.236      2.981     15.840
         INT   646.                  119.236      2.981     15.840
         TR   0.173E+26              198.726      4.968     27.722
         TOT                         317.9616     7.9490    43.5620   182.2634

   temp. (K)  partition function   enthalpy   heat capacity  entropy
                                   cal/mol     cal/K/mol   cal/K/mol   J/K/mol
  20.00  VIB   1.00                    0.000      0.000     -0.000
         ROT   228.                   59.618      2.981     13.774
         INT   228.                   59.618      2.981     13.774
         TR   0.613E+25               99.363      4.968     24.280
         TOT                         158.9808     7.9490    38.0537   159.2169

   temp. (K)  partition function   enthalpy   heat capacity  entropy
                                   cal/mol     cal/K/mol   cal/K/mol   J/K/mol
  10.00  VIB   1.00                    0.000      0.000     -0.000
         ROT   80.8                   29.809      2.981     11.708
         INT   80.8                   29.809      2.981     11.708
         TR   0.217E+25               49.681      4.968     20.838
         TOT                          79.4904     7.9490    32.5455   136.1703

       T/K    H(0)-H(T)+PV         H(T)/Eh          T*S/Eh         G(T)/Eh
   ------------------------------------------------------------------------
    298.15    0.429107E-02    0.293379E-01    0.289396E-01    0.398332E-03
    120.00    0.152336E-02    0.265702E-01    0.100036E-01    0.165666E-01
    100.00    0.126743E-02    0.263143E-01    0.810317E-02    0.182111E-01
     80.00    0.101347E-02    0.260603E-01    0.625595E-02    0.198044E-01
     60.00    0.760058E-03    0.258069E-01    0.447332E-02    0.213336E-01
     40.00    0.506704E-03    0.255535E-01    0.277682E-02    0.227767E-01
     20.00    0.253352E-03    0.253002E-01    0.121285E-02    0.240873E-01
     10.00    0.126676E-03    0.251735E-01    0.518645E-03    0.246549E-01 (used)
   ------------------------------------------------------------------------

         :::::::::::::::::::::::::::::::::::::::::::::::::::::
         ::                  THERMODYNAMIC                  ::
         :::::::::::::::::::::::::::::::::::::::::::::::::::::
         :: total free energy          -9.553806959859 Eh   ::
         ::.................................................::
         :: total energy               -9.578461833955 Eh   ::
         :: zero point energy           0.025046843452 Eh   ::
         :: G(RRHO) w/o ZPVE           -0.000391969355 Eh   ::
         :: G(RRHO) contrib.            0.024654874096 Eh   ::
         :::::::::::::::::::::::::::::::::::::::::::::::::::::

optimized geometry written to: xtbopt.xyz


           -------------------------------------------------
          | TOTAL ENERGY               -9.578461833955 Eh   |
          | TOTAL ENTHALPY             -9.553288314488 Eh   |
          | TOTAL FREE ENERGY          -9.553806959859 Eh   |
          | GRADIENT NORM               0.000417593337 Eh/α |
          | HOMO-LUMO GAP               3.335410416472 eV   |
           -------------------------------------------------

------------------------------------------------------------------------
 * finished run on 2020/05/12 at 11:44:50.386     
------------------------------------------------------------------------
 total:
 * wall-time:     0 d,  0 h,  0 min,  0.148 sec
 *  cpu-time:     0 d,  0 h,  0 min,  0.148 sec
 * ratio c/w:     0.999 speedup
 SCF:
 * wall-time:     0 d,  0 h,  0 min,  0.004 sec
 *  cpu-time:     0 d,  0 h,  0 min,  0.004 sec
 * ratio c/w:     1.000 speedup
 ANC optimizer:
 * wall-time:     0 d,  0 h,  0 min,  0.049 sec
 *  cpu-time:     0 d,  0 h,  0 min,  0.049 sec
 * ratio c/w:     0.998 speedup
 numerical hessian:
 * wall-time:     0 d,  0 h,  0 min,  0.079 sec
 *  cpu-time:     0 d,  0 h,  0 min,  0.079 sec
 * ratio c/w:     0.999 speedup

