 Entering Gaussian System
 *********************************************
 Gaussian 98:
 frequency output generated by the xtb code
 *********************************************
                         Standard orientation:
 --------------------------------------------------------------------
  Center     Atomic     Atomic              Coordinates (Angstroms)
  Number     Number      Type              X           Y           Z
 --------------------------------------------------------------------
    1          6             0       -0.083340    0.083917    0.028339
    2          7             0       -1.312730    0.292571    0.100195
    3          6             0        1.151235    0.038547    0.018634
    4          1             0       -1.953017   -0.441086   -0.171190
    5          1             0        2.197853    0.026050    0.024023
 --------------------------------------------------------------------
     1 basis functions        1 primitive gaussians
     1 alpha electrons        1 beta electrons

 Harmonic frequencies (cm**-1), IR intensities (KM/Mole),
 Raman scattering activities (A**4/amu), Raman depolarization ratios,
 reduced masses (AMU), force constants (mDyne/A) and normal coordinates:
                      1                      2                      3
                        a                      a                      a 
 Frequencies --   184.6924               387.6635               466.8595
 Red. masses --     9.2733                11.1999                 2.4484
 Frc consts  --     0.0000                 0.0000                 0.0000
 IR Inten    --     0.4905                 0.3052                 0.1164
 Raman Activ --     0.0000                 0.0000                 0.0000
 Depolar     --     0.0000                 0.0000                 0.0000
 Atom AN      X      Y      Z        X      Y      Z        X      Y      Z
   1   6    -0.05  -0.60  -0.22    -0.00  -0.28   0.77    -0.00   0.01  -0.05
   2   7     0.08   0.17   0.06    -0.00   0.10  -0.27     0.00  -0.03   0.08
   3   6    -0.01   0.51   0.19     0.00   0.14  -0.39     0.00   0.12  -0.32
   4   1    -0.10   0.14   0.05     0.00   0.10  -0.28    -0.00  -0.04   0.12
   5   1    -0.01  -0.44  -0.16     0.00   0.01  -0.04    -0.01  -0.30   0.87
                      4                      5                      6
                        a                      a                      a 
 Frequencies --   495.5105               995.5587              1296.3229
 Red. masses --     4.0071                 3.7760                12.3116
 Frc consts  --     0.0000                 0.0000                 0.0000
 IR Inten    --     0.1642                 0.6889                 0.7989
 Raman Activ --     0.0000                 0.0000                 0.0000
 Depolar     --     0.0000                 0.0000                 0.0000
 Atom AN      X      Y      Z        X      Y      Z        X      Y      Z
   1   6     0.05   0.43   0.15    -0.01  -0.25  -0.09    -0.16   0.09   0.03
   2   7    -0.12  -0.18  -0.07    -0.11   0.35   0.13     0.72  -0.11  -0.04
   3   6     0.01   0.05   0.01    -0.07  -0.02  -0.01    -0.61   0.03   0.01
   4   1     0.22  -0.25  -0.08     0.68  -0.51  -0.18     0.16   0.01   0.01
   5   1    -0.00  -0.75  -0.25    -0.02   0.13   0.05    -0.21  -0.00  -0.00
                      7                      8                      9
                        a                      a                      a 
 Frequencies --  2101.9009              3390.6864              3406.9388
 Red. masses --    11.5314                 1.8828                 2.2361
 Frc consts  --     0.0000                 0.0000                 0.0000
 IR Inten    --     1.0841                 0.0483                 0.2206
 Raman Activ --     0.0000                 0.0000                 0.0000
 Depolar     --     0.0000                 0.0000                 0.0000
 Atom AN      X      Y      Z        X      Y      Z        X      Y      Z
   1   6     0.82  -0.05  -0.01     0.01  -0.01  -0.00     0.06  -0.00  -0.00
   2   7    -0.24   0.02   0.01    -0.18  -0.17  -0.06    -0.01  -0.01  -0.01
   3   6    -0.46   0.02   0.00     0.03  -0.00  -0.00    -0.33   0.01  -0.00
   4   1    -0.10   0.02   0.01     0.64   0.68   0.25     0.04   0.05   0.02
   5   1    -0.21   0.01   0.00    -0.07   0.00   0.00     0.94  -0.01   0.00
