$hessian                                                                        
        1.3745933209  -0.0893723521  -0.0261120789  -0.5331503298   0.0420889531
        0.0134985929  -0.7842128552   0.0236016075   0.0040206719  -0.0431982236
        0.0201379219   0.0072248913  -0.0140319122   0.0035438697   0.0013679228
       -0.0893723521   0.0703221578   0.0087104728   0.0941954880  -0.0547015836
       -0.0134743454   0.0179616653  -0.0024648471   0.0069932626  -0.0229936864
        0.0007942439   0.0021518619   0.0002088852  -0.0139499710  -0.0043812519
       -0.0261120789   0.0087104728   0.0486076775   0.0326166787  -0.0135097178
       -0.0223504917   0.0021059292   0.0069569892  -0.0185258453  -0.0085900838
        0.0021813173  -0.0041119301  -0.0000204452  -0.0043390615  -0.0036194104
       -0.5331503298   0.0941954880   0.0326166787   0.8079739476   0.0916706375
        0.0366773233  -0.1182486967   0.0106731088   0.0033696727  -0.1582947863
       -0.1938927180  -0.0716651382   0.0017198652  -0.0026465163  -0.0009985365
        0.0420889531  -0.0547015836  -0.0135097178   0.0916706375   0.2624745640
        0.0940390457   0.0215316472  -0.0032446390  -0.0030861432  -0.1537001041
       -0.2149413312  -0.0802569561  -0.0015911337   0.0104129898   0.0028137714
        0.0134985929  -0.0134743454  -0.0223504917   0.0366773233   0.0940390457
        0.0418690040   0.0073571865  -0.0031419747   0.0043185902  -0.0569226129
       -0.0803072020  -0.0275708859  -0.0006104898   0.0028844763   0.0037337833
       -0.7842128552   0.0179616653   0.0021059292  -0.1182486967   0.0215316472
        0.0073571865   1.2911901587  -0.0381950705  -0.0052540254   0.0018564674
       -0.0036040607  -0.0013058025  -0.3905850743   0.0023058186  -0.0029032878
        0.0236016075  -0.0024648471   0.0069569892   0.0106731088  -0.0032446390
       -0.0031419747  -0.0381950705   0.0085265266  -0.0057153866  -0.0023029004
        0.0007903292  -0.0001032328   0.0062232546  -0.0036073697   0.0020036048
        0.0040206719   0.0069932626  -0.0185258453   0.0033696727  -0.0030861432
        0.0043185902  -0.0052540254  -0.0057153866   0.0212789268  -0.0008432545
       -0.0001435851   0.0010509623  -0.0012930647   0.0019518523  -0.0081226340
       -0.0431982236  -0.0229936864  -0.0085900838  -0.1582947863  -0.1537001041
       -0.0569226129   0.0018564674  -0.0023029004  -0.0008432545   0.1999908339
        0.1764758945   0.0654331828  -0.0003542914   0.0025207964   0.0009227685
        0.0201379219   0.0007942439   0.0021813173  -0.1938927180  -0.2149413312
       -0.0803072020  -0.0036040607   0.0007903292  -0.0001435851   0.1764758945
        0.2131901744   0.0785889669   0.0008829623   0.0001665838  -0.0003194970
        0.0072248913   0.0021518619  -0.0041119301  -0.0716651382  -0.0802569561
       -0.0275708859  -0.0013058025  -0.0001032328   0.0010509623   0.0654331828
        0.0785889669   0.0296959643   0.0003128666  -0.0003806399   0.0009358893
       -0.0140319122   0.0002088852  -0.0000204452   0.0017198652  -0.0015911337
       -0.0006104898  -0.3905850743   0.0062232546  -0.0012930647  -0.0003542914
        0.0008829623   0.0003128666   0.4032514126  -0.0057239684   0.0016111331
        0.0035438697  -0.0139499710  -0.0043390615  -0.0026465163   0.0104129898
        0.0028844763   0.0023058186  -0.0036073697   0.0019518523   0.0025207964
        0.0001665838  -0.0003806399  -0.0057239684   0.0069777671  -0.0001166272
        0.0013679228  -0.0043812519  -0.0036194104  -0.0009985365   0.0028137714
        0.0037337833  -0.0029032878   0.0020036048  -0.0081226340   0.0009227685
       -0.0003194970   0.0009358893   0.0016111331  -0.0001166272   0.0070723718
