 Entering Gaussian System, Link 0=g16
 Initial command:
 /applis/site/cecic/gaussian16/B.01/nehalem/g16/l1.exe "/bettik/tinaccil/g16/12753900_Mg/Gau-139380.inp" -scrdir="/bettik/tinaccil/g16/12753900_Mg/"
 Entering Link 1 = /applis/site/cecic/gaussian16/B.01/nehalem/g16/l1.exe PID=    139382.
  
 Copyright (c) 1988-2017, Gaussian, Inc.  All Rights Reserved.
  
 This is part of the Gaussian(R) 16 program.  It is based on
 the Gaussian(R) 09 system (copyright 2009, Gaussian, Inc.),
 the Gaussian(R) 03 system (copyright 2003, Gaussian, Inc.),
 the Gaussian(R) 98 system (copyright 1998, Gaussian, Inc.),
 the Gaussian(R) 94 system (copyright 1995, Gaussian, Inc.),
 the Gaussian 92(TM) system (copyright 1992, Gaussian, Inc.),
 the Gaussian 90(TM) system (copyright 1990, Gaussian, Inc.),
 the Gaussian 88(TM) system (copyright 1988, Gaussian, Inc.),
 the Gaussian 86(TM) system (copyright 1986, Carnegie Mellon
 University), and the Gaussian 82(TM) system (copyright 1983,
 Carnegie Mellon University). Gaussian is a federally registered
 trademark of Gaussian, Inc.
  
 This software contains proprietary and confidential information,
 including trade secrets, belonging to Gaussian, Inc.
  
 This software is provided under written license and may be
 used, copied, transmitted, or stored only in accord with that
 written license.
  
 The following legend is applicable only to US Government
 contracts under FAR:
  
                    RESTRICTED RIGHTS LEGEND
  
 Use, reproduction and disclosure by the US Government is
 subject to restrictions as set forth in subparagraphs (a)
 and (c) of the Commercial Computer Software - Restricted
 Rights clause in FAR 52.227-19.
  
 Gaussian, Inc.
 340 Quinnipiac St., Bldg. 40, Wallingford CT 06492
  
  
 ---------------------------------------------------------------
 Warning -- This program may not be used in any manner that
 competes with the business of Gaussian, Inc. or will provide
 assistance to any competitor of Gaussian, Inc.  The licensee
 of this program is prohibited from giving any competitor of
 Gaussian, Inc. access to this program.  By using this program,
 the user acknowledges that Gaussian, Inc. is engaged in the
 business of creating and licensing software in the field of
 computational chemistry and represents and warrants to the
 licensee that it is not a competitor of Gaussian, Inc. and that
 it will not use this program in any manner prohibited above.
 ---------------------------------------------------------------
  

 Cite this work as:
 Gaussian 16, Revision B.01,
 M. J. Frisch, G. W. Trucks, H. B. Schlegel, G. E. Scuseria, 
 M. A. Robb, J. R. Cheeseman, G. Scalmani, V. Barone, 
 G. A. Petersson, H. Nakatsuji, X. Li, M. Caricato, A. V. Marenich, 
 J. Bloino, B. G. Janesko, R. Gomperts, B. Mennucci, H. P. Hratchian, 
 J. V. Ortiz, A. F. Izmaylov, J. L. Sonnenberg, D. Williams-Young, 
 F. Ding, F. Lipparini, F. Egidi, J. Goings, B. Peng, A. Petrone, 
 T. Henderson, D. Ranasinghe, V. G. Zakrzewski, J. Gao, N. Rega, 
 G. Zheng, W. Liang, M. Hada, M. Ehara, K. Toyota, R. Fukuda, 
 J. Hasegawa, M. Ishida, T. Nakajima, Y. Honda, O. Kitao, H. Nakai, 
 T. Vreven, K. Throssell, J. A. Montgomery, Jr., J. E. Peralta, 
 F. Ogliaro, M. J. Bearpark, J. J. Heyd, E. N. Brothers, K. N. Kudin, 
 V. N. Staroverov, T. A. Keith, R. Kobayashi, J. Normand, 
 K. Raghavachari, A. P. Rendell, J. C. Burant, S. S. Iyengar, 
 J. Tomasi, M. Cossi, J. M. Millam, M. Klene, C. Adamo, R. Cammi, 
 J. W. Ochterski, R. L. Martin, K. Morokuma, O. Farkas, 
 J. B. Foresman, and D. J. Fox, Gaussian, Inc., Wallingford CT, 2016.
 
 ******************************************
 Gaussian 16:  ES64L-G16RevB.01 20-Dec-2017
                 5-Oct-2020 
 ******************************************
 %nosave
 %nproc=8
 Will use up to    8 processors via shared memory.
 %mem=2gb
 %chk=input
 ----------------------
 #P CCSD(T)/aug-cc-pvtz
 ----------------------
 1/38=1,172=1/1;
 2/12=2,17=6,18=5,40=1/2;
 3/5=16,6=1,7=10,11=9,25=1,30=1/1,2,3;
 4//1;
 5/5=2,38=5/2;
 8/6=4,9=120000,10=1/1,4;
 9/5=7,14=2/13;
 6/7=2,8=2,9=2,10=2/1;
 99/5=1,9=1/99;
 Leave Link    1 at Mon Oct  5 21:27:04 2020, MaxMem=   268435456 cpu:               0.8 elap:               0.2
 (Enter /applis/site/cecic/gaussian16/B.01/nehalem/g16/l101.exe)
 -----
 Title
 -----
 Symbolic Z-matrix:
 Charge =  0 Multiplicity = 1
 Mg
 
 ITRead=  0
 MicOpt= -1
 NAtoms=      1 NQM=        1 NQMF=       0 NMMI=      0 NMMIF=      0
                NMic=       0 NMicF=      0.
                    Isotopes and Nuclear Properties:
 (Nuclear quadrupole moments (NQMom) in fm**2, nuclear magnetic moments (NMagM)
  in nuclear magnetons)

  Atom         1
 IAtWgt=          24
 AtmWgt=  23.9850450
 NucSpn=           0
 AtZEff=  -0.0000000
 NQMom=    0.0000000
 NMagM=    0.0000000
 AtZNuc=  12.0000000
 Leave Link  101 at Mon Oct  5 21:27:05 2020, MaxMem=   268435456 cpu:               1.8 elap:               0.3
 (Enter /applis/site/cecic/gaussian16/B.01/nehalem/g16/l202.exe)
                          Input orientation:                          
 ---------------------------------------------------------------------
 Center     Atomic      Atomic             Coordinates (Angstroms)
 Number     Number       Type             X           Y           Z
 ---------------------------------------------------------------------
      1         12           0        0.000000    0.000000    0.000000
 ---------------------------------------------------------------------
 Stoichiometry    Mg
 Framework group  OH[O(Mg)]
 Deg. of freedom     0
 Full point group                 OH      NOp  48
 Largest Abelian subgroup         D2H     NOp   8
 Largest concise Abelian subgroup C1      NOp   1
                         Standard orientation:                         
 ---------------------------------------------------------------------
 Center     Atomic      Atomic             Coordinates (Angstroms)
 Number     Number       Type             X           Y           Z
 ---------------------------------------------------------------------
      1         12           0        0.000000    0.000000    0.000000
 ---------------------------------------------------------------------
 Leave Link  202 at Mon Oct  5 21:27:05 2020, MaxMem=   268435456 cpu:               0.5 elap:               0.2
 (Enter /applis/site/cecic/gaussian16/B.01/nehalem/g16/l301.exe)
 Standard basis: Aug-CC-pVTZ (5D, 7F)
 Ernie: Thresh=  0.10000D-02 Tol=  0.10000D-05 Strict=F.
 Ernie:  14 primitive shells out of 66 were deleted.
 There are    15 symmetry adapted cartesian basis functions of AG  symmetry.
 There are     3 symmetry adapted cartesian basis functions of B1G symmetry.
 There are     3 symmetry adapted cartesian basis functions of B2G symmetry.
 There are     3 symmetry adapted cartesian basis functions of B3G symmetry.
 There are     2 symmetry adapted cartesian basis functions of AU  symmetry.
 There are    11 symmetry adapted cartesian basis functions of B1U symmetry.
 There are    11 symmetry adapted cartesian basis functions of B2U symmetry.
 There are    11 symmetry adapted cartesian basis functions of B3U symmetry.
 There are    12 symmetry adapted basis functions of AG  symmetry.
 There are     3 symmetry adapted basis functions of B1G symmetry.
 There are     3 symmetry adapted basis functions of B2G symmetry.
 There are     3 symmetry adapted basis functions of B3G symmetry.
 There are     2 symmetry adapted basis functions of AU  symmetry.
 There are     9 symmetry adapted basis functions of B1U symmetry.
 There are     9 symmetry adapted basis functions of B2U symmetry.
 There are     9 symmetry adapted basis functions of B3U symmetry.
    50 basis functions,   117 primitive gaussians,    59 cartesian basis functions
     6 alpha electrons        6 beta electrons
       nuclear repulsion energy         0.0000000000 Hartrees.
 IExCor=    0 DFT=F Ex=HF Corr=None ExCW=0 ScaHFX=  1.000000
 ScaDFX=  1.000000  1.000000  1.000000  1.000000 ScalE2=  1.000000  1.000000
 IRadAn=      5 IRanWt=     -1 IRanGd=            0 ICorTp=0 IEmpDi=  4
 NAtoms=    1 NActive=    1 NUniq=    1 SFac= 1.00D+00 NAtFMM=   60 NAOKFM=F Big=F
 Integral buffers will be    131072 words long.
 Raffenetti 1 integral format.
 Two-electron integral symmetry is turned on.
 Leave Link  301 at Mon Oct  5 21:27:05 2020, MaxMem=   268435456 cpu:               0.7 elap:               0.1
 (Enter /applis/site/cecic/gaussian16/B.01/nehalem/g16/l302.exe)
 NPDir=0 NMtPBC=     1 NCelOv=     1 NCel=       1 NClECP=     1 NCelD=      1
         NCelK=      1 NCelE2=     1 NClLst=     1 CellRange=     0.0.
 One-electron integrals computed using PRISM.
 One-electron integral symmetry used in STVInt
 NBasis=    50 RedAO= T EigKep=  1.27D-02  NBF=    12     3     3     3     2     9     9     9
 NBsUse=    50 1.00D-06 EigRej= -1.00D+00 NBFU=    12     3     3     3     2     9     9     9
 Leave Link  302 at Mon Oct  5 21:27:05 2020, MaxMem=   268435456 cpu:               1.7 elap:               0.3
 (Enter /applis/site/cecic/gaussian16/B.01/nehalem/g16/l303.exe)
 DipDrv:  MaxL=1.
 Leave Link  303 at Mon Oct  5 21:27:06 2020, MaxMem=   268435456 cpu:               0.4 elap:               0.1
 (Enter /applis/site/cecic/gaussian16/B.01/nehalem/g16/l401.exe)
 ExpMin= 9.17D-03 ExpMax= 1.65D+05 ExpMxC= 1.60D+03 IAcc=3 IRadAn=         5 AccDes= 0.00D+00
 Harris functional with IExCor=  205 and IRadAn=       5 diagonalized for initial guess.
 HarFok:  IExCor=  205 AccDes= 0.00D+00 IRadAn=         5 IDoV= 1 UseB2=F ITyADJ=14
 ICtDFT=  3500011 ScaDFX=  1.000000  1.000000  1.000000  1.000000
 FoFCou: FMM=F IPFlag=           0 FMFlag=      100000 FMFlg1=           0
         NFxFlg=           0 DoJE=T BraDBF=F KetDBF=T FulRan=T
         wScrn=  0.000000 ICntrl=       500 IOpCl=  0 I1Cent=   200000004 NGrid=           0
         NMat0=    1 NMatS0=      1 NMatT0=    0 NMatD0=    1 NMtDS0=    0 NMtDT0=    0
 Petite list used in FoFCou.
 Harris En= -199.341075192832    
 JPrj=0 DoOrth=F DoCkMO=F.
 Initial guess orbital symmetries:
       Occupied  (A1G) (A1G) (T1U) (T1U) (T1U) (A1G)
       Virtual   (T1U) (T1U) (T1U) (A1G) (T1U) (T1U) (T1U) (T2G)
                 (T2G) (T2G) (EG) (EG) (T1U) (T1U) (T1U) (A1G)
                 (T2U) (T2U) (T2U) (A2U) (T1U) (T1U) (T1U) (T2G)
                 (T2G) (T2G) (EG) (EG) (T1U) (T1U) (T1U) (T2G)
                 (T2G) (T2G) (EG) (EG) (T2U) (T2U) (T2U) (A2U)
                 (T1U) (T1U) (T1U) (A1G)
 The electronic state of the initial guess is 1-A1G.
 Leave Link  401 at Mon Oct  5 21:27:06 2020, MaxMem=   268435456 cpu:               1.8 elap:               0.3
 (Enter /applis/site/cecic/gaussian16/B.01/nehalem/g16/l502.exe)
 Keep R1 ints in memory in symmetry-blocked form, NReq=4747226.
 FoFCou: FMM=F IPFlag=           0 FMFlag=           0 FMFlg1=           0
         NFxFlg=           0 DoJE=F BraDBF=F KetDBF=F FulRan=T
         wScrn=  0.000000 ICntrl=       600 IOpCl=  0 I1Cent=           0 NGrid=           0
         NMat0=    1 NMatS0=   1275 NMatT0=    0 NMatD0=    1 NMtDS0=    0 NMtDT0=    0
 Petite list used in FoFCou.
 Closed shell SCF:
 Using DIIS extrapolation, IDIIS=  1040.
 NGot=   268435456 LenX=   268311200 LenY=   268307278
 Requested convergence on RMS density matrix=1.00D-08 within 128 cycles.
 Requested convergence on MAX density matrix=1.00D-06.
 Requested convergence on             energy=1.00D-06.
 No special actions if energy rises.

 Cycle   1  Pass 1  IDiag  1:
 E= -199.598322735313    
 DIIS: error= 5.56D-02 at cycle   1 NSaved=   1.
 NSaved= 1 IEnMin= 1 EnMin= -199.598322735313     IErMin= 1 ErrMin= 5.56D-02
 ErrMax= 5.56D-02  0.00D+00 EMaxC= 1.00D-01 BMatC= 3.82D-02 BMatP= 3.82D-02
 IDIUse=3 WtCom= 4.44D-01 WtEn= 5.56D-01
 Coeff-Com:  0.100D+01
 Coeff-En:   0.100D+01
 Coeff:      0.100D+01
 Gap=     0.296 Goal=   None    Shift=    0.000
 GapD=    0.296 DampG=1.000 DampE=0.500 DampFc=0.5000 IDamp=-1.
 Damping current iteration by 5.00D-01
 RMSDP=4.79D-03 MaxDP=9.94D-02              OVMax= 2.24D-02

 Cycle   2  Pass 1  IDiag  1:
 E= -199.605797430508     Delta-E=       -0.007474695195 Rises=F Damp=T
 DIIS: error= 2.68D-02 at cycle   2 NSaved=   2.
 NSaved= 2 IEnMin= 2 EnMin= -199.605797430508     IErMin= 2 ErrMin= 2.68D-02
 ErrMax= 2.68D-02  0.00D+00 EMaxC= 1.00D-01 BMatC= 9.05D-03 BMatP= 3.82D-02
 IDIUse=3 WtCom= 7.32D-01 WtEn= 2.68D-01
 Coeff-Com: -0.939D+00 0.194D+01
 Coeff-En:   0.000D+00 0.100D+01
 Coeff:     -0.687D+00 0.169D+01
 Gap=     0.268 Goal=   None    Shift=    0.000
 RMSDP=2.33D-03 MaxDP=4.80D-02 DE=-7.47D-03 OVMax= 7.56D-03

 Cycle   3  Pass 1  IDiag  1:
 E= -199.613329776041     Delta-E=       -0.007532345533 Rises=F Damp=F
 DIIS: error= 8.14D-04 at cycle   3 NSaved=   3.
 NSaved= 3 IEnMin= 3 EnMin= -199.613329776041     IErMin= 3 ErrMin= 8.14D-04
 ErrMax= 8.14D-04  0.00D+00 EMaxC= 1.00D-01 BMatC= 7.40D-06 BMatP= 9.05D-03
 IDIUse=3 WtCom= 9.92D-01 WtEn= 8.14D-03
 Coeff-Com:  0.241D+00-0.502D+00 0.126D+01
 Coeff-En:   0.000D+00 0.000D+00 0.100D+01
 Coeff:      0.239D+00-0.498D+00 0.126D+01
 Gap=     0.269 Goal=   None    Shift=    0.000
 RMSDP=1.89D-04 MaxDP=4.27D-03 DE=-7.53D-03 OVMax= 4.01D-03

 Cycle   4  Pass 1  IDiag  1:
 E= -199.613350595907     Delta-E=       -0.000020819865 Rises=F Damp=F
 DIIS: error= 9.22D-05 at cycle   4 NSaved=   4.
 NSaved= 4 IEnMin= 4 EnMin= -199.613350595907     IErMin= 4 ErrMin= 9.22D-05
 ErrMax= 9.22D-05  0.00D+00 EMaxC= 1.00D-01 BMatC= 1.06D-07 BMatP= 7.40D-06
 IDIUse=1 WtCom= 1.00D+00 WtEn= 0.00D+00
 Coeff-Com: -0.458D-01 0.950D-01-0.271D+00 0.122D+01
 Coeff:     -0.458D-01 0.950D-01-0.271D+00 0.122D+01
 Gap=     0.269 Goal=   None    Shift=    0.000
 RMSDP=2.79D-05 MaxDP=6.93D-04 DE=-2.08D-05 OVMax= 7.97D-04

 Cycle   5  Pass 1  IDiag  1:
 E= -199.613351081712     Delta-E=       -0.000000485806 Rises=F Damp=F
 DIIS: error= 1.47D-05 at cycle   5 NSaved=   5.
 NSaved= 5 IEnMin= 5 EnMin= -199.613351081712     IErMin= 5 ErrMin= 1.47D-05
 ErrMax= 1.47D-05  0.00D+00 EMaxC= 1.00D-01 BMatC= 1.56D-09 BMatP= 1.06D-07
 IDIUse=1 WtCom= 1.00D+00 WtEn= 0.00D+00
 Coeff-Com:  0.368D-02-0.763D-02 0.258D-01-0.221D+00 0.120D+01
 Coeff:      0.368D-02-0.763D-02 0.258D-01-0.221D+00 0.120D+01
 Gap=     0.269 Goal=   None    Shift=    0.000
 RMSDP=4.17D-06 MaxDP=1.33D-04 DE=-4.86D-07 OVMax= 1.40D-04

 Cycle   6  Pass 1  IDiag  1:
 E= -199.613351092803     Delta-E=       -0.000000011090 Rises=F Damp=F
 DIIS: error= 1.74D-06 at cycle   6 NSaved=   6.
 NSaved= 6 IEnMin= 6 EnMin= -199.613351092803     IErMin= 6 ErrMin= 1.74D-06
 ErrMax= 1.74D-06  0.00D+00 EMaxC= 1.00D-01 BMatC= 2.37D-11 BMatP= 1.56D-09
 IDIUse=1 WtCom= 1.00D+00 WtEn= 0.00D+00
 Coeff-Com: -0.960D-03 0.197D-02-0.648D-02 0.633D-01-0.417D+00 0.136D+01
 Coeff:     -0.960D-03 0.197D-02-0.648D-02 0.633D-01-0.417D+00 0.136D+01
 Gap=     0.269 Goal=   None    Shift=    0.000
 RMSDP=9.65D-07 MaxDP=2.01D-05 DE=-1.11D-08 OVMax= 2.25D-05

 Cycle   7  Pass 1  IDiag  1:
 E= -199.613351093016     Delta-E=       -0.000000000214 Rises=F Damp=F
 DIIS: error= 1.22D-07 at cycle   7 NSaved=   7.
 NSaved= 7 IEnMin= 7 EnMin= -199.613351093016     IErMin= 7 ErrMin= 1.22D-07
 ErrMax= 1.22D-07  0.00D+00 EMaxC= 1.00D-01 BMatC= 1.19D-13 BMatP= 2.37D-11
 IDIUse=1 WtCom= 1.00D+00 WtEn= 0.00D+00
 Coeff-Com:  0.233D-03-0.477D-03 0.153D-02-0.147D-01 0.971D-01-0.347D+00
 Coeff-Com:  0.126D+01
 Coeff:      0.233D-03-0.477D-03 0.153D-02-0.147D-01 0.971D-01-0.347D+00
 Coeff:      0.126D+01
 Gap=     0.269 Goal=   None    Shift=    0.000
 RMSDP=1.06D-07 MaxDP=2.53D-06 DE=-2.14D-10 OVMax= 1.39D-06

 Cycle   8  Pass 1  IDiag  1:
 E= -199.613351093017     Delta-E=       -0.000000000001 Rises=F Damp=F
 DIIS: error= 6.69D-09 at cycle   8 NSaved=   8.
 NSaved= 8 IEnMin= 8 EnMin= -199.613351093017     IErMin= 8 ErrMin= 6.69D-09
 ErrMax= 6.69D-09  0.00D+00 EMaxC= 1.00D-01 BMatC= 6.26D-16 BMatP= 1.19D-13
 IDIUse=1 WtCom= 1.00D+00 WtEn= 0.00D+00
 Coeff-Com: -0.846D-05 0.172D-04-0.476D-04 0.437D-03-0.240D-02 0.716D-02
 Coeff-Com: -0.423D-01 0.104D+01
 Coeff:     -0.846D-05 0.172D-04-0.476D-04 0.437D-03-0.240D-02 0.716D-02
 Coeff:     -0.423D-01 0.104D+01
 Gap=     0.269 Goal=   None    Shift=    0.000
 RMSDP=3.46D-09 MaxDP=9.29D-08 DE=-8.53D-13 OVMax= 4.48D-08

 SCF Done:  E(RHF) =  -199.613351093     A.U. after    8 cycles
            NFock=  8  Conv=0.35D-08     -V/T= 2.0000
 KE= 1.996092215258D+02 PE=-4.790378231423D+02 EE= 7.981525052346D+01
 Leave Link  502 at Mon Oct  5 21:27:07 2020, MaxMem=   268435456 cpu:               4.3 elap:               0.6
 (Enter /applis/site/cecic/gaussian16/B.01/nehalem/g16/l801.exe)
 Windowed orbitals will be sorted by symmetry type.
 ExpMin= 9.17D-03 ExpMax= 1.65D+05 ExpMxC= 1.60D+03 IAcc=3 IRadAn=         5 AccDes= 0.00D+00
 HarFok:  IExCor=  205 AccDes= 0.00D+00 IRadAn=         5 IDoV=-2 UseB2=F ITyADJ=14
 ICtDFT= 12500011 ScaDFX=  1.000000  1.000000  1.000000  1.000000
 Largest valence mixing into a core orbital is  3.07D-04
 Largest core mixing into a valence orbital is  9.70D-05
 Range of M.O.s used for correlation:     6    50
 NBasis=    50 NAE=     6 NBE=     6 NFC=     5 NFV=     0
 NROrb=     45 NOA=     1 NOB=     1 NVA=    44 NVB=    44
 Leave Link  801 at Mon Oct  5 21:27:07 2020, MaxMem=   268435456 cpu:               1.6 elap:               0.3
 (Enter /applis/site/cecic/gaussian16/B.01/nehalem/g16/l804.exe)
 Closed-shell transformation, MDV=   268435456 ITran=4 ISComp=2.
 Unit  1 TFree=         79124 TCopy=        243900.
 Semi-Direct transformation.
 ModeAB=           2 MOrb=             1 LenV=     268147625
 LASXX=         5722 LTotXX=        5722 LenRXX=        5722
 LTotAB=        6302 MaxLAS=       79650 LenRXY=       79650
 NonZer=       86400 LenScr=      720896 LnRSAI=           0
 LnScr1=           0 LExtra=           0 Total=       806268
 MaxDsk=          -1 SrtSym=           F ITran=            4
 DoSDTr:  NPSUse=  8
 JobTyp=0 Pass  1:  I=   1 to   1.
 (rs|ai) integrals will be sorted in core.
 Complete sort for first half transformation.
 First half transformation complete.
 Complete sort for second half transformation.
 Second half transformation complete.
 Spin components of T(2) and E(2):
     alpha-alpha T2 =       0.0000000000D+00 E2=      0.0000000000D+00
     alpha-beta  T2 =       0.2780890757D-01 E2=     -0.2366114792D-01
     beta-beta   T2 =       0.0000000000D+00 E2=      0.0000000000D+00
 ANorm=    0.1013809108D+01
 E2 =    -0.2366114792D-01 EUMP2 =    -0.19963701224094D+03
 Leave Link  804 at Mon Oct  5 21:27:07 2020, MaxMem=   268435456 cpu:               2.0 elap:               0.3
 (Enter /applis/site/cecic/gaussian16/B.01/nehalem/g16/l913.exe)
 CIDS:  MDV=   268435456.
 Frozen-core window:  NFC=   5 NFV=   0.
 IFCWin=0 IBDFC=1 NFBD=     0     0 NFCmp=     0     0 NFFFC=     0     0
 Using DD3R+UMP44R for 1st iteration.
 Using DD4RQ for 2nd and later iterations.
 Keep R2 and R3 ints in memory in symmetry-blocked form, NReq=4750512.
 FoFCou: FMM=F IPFlag=           0 FMFlag=           0 FMFlg1=           0
         NFxFlg=           0 DoJE=F BraDBF=F KetDBF=F FulRan=T
         wScrn=  0.000000 ICntrl=       600 IOpCl=  0 I1Cent=           0 NGrid=           0
         NMat0=    1 NMatS0=   1275 NMatT0=    0 NMatD0=    1 NMtDS0=    0 NMtDT0=    0
 Petite list used in FoFCou.
 CIDS: In Core Option IDoMem=           1.
 CCSD(T)
 =======
 Iterations=  50 Convergence= 0.100D-06
 Produce multiple copies of IABC intergrals
 Iteration Nr.   1
 **********************
 DD1Dir will call FoFMem   1 times, MxPair=         2
 NAB=     1 NAA=     0 NBB=     0.
 MP4(R+Q)=  0.65799068D-03
 Maximum subspace dimension=  5
 A-vector RMS=  4.8892662D-03 Max=  1.6855852D-02 conv= 1.00D-05.
 RLE energy=       -0.0303126204
 E3=       -0.58532208D-02        EUMP3=      -0.19964286546D+03
 E4(DQ)=   -0.22147601D-02        UMP4(DQ)=   -0.19964508022D+03
 E4(SDQ)=  -0.23200838D-02        UMP4(SDQ)=  -0.19964518555D+03
 VARIATIONAL ENERGIES WITH THE FIRST-ORDER WAVEFUNCTION:
 DE(Corr)= -0.28853094E-01 E(Corr)=     -199.64220419    
 NORM(A)=   0.10266142D+01
 Iteration Nr.   2
 **********************
 DD1Dir will call FoFMem   1 times, MxPair=         2
 NAB=     1 NAA=     0 NBB=     0.
 A-vector RMS=  1.6233559D-03 Max=  6.2391148D-03 conv= 1.00D-05.
 RLE energy=       -0.0336312547
 DE(Corr)= -0.31910749E-01 E(CORR)=     -199.64526184     Delta=-3.06D-03
 NORM(A)=   0.10359552D+01
 Iteration Nr.   3
 **********************
 DD1Dir will call FoFMem   1 times, MxPair=         2
 NAB=     1 NAA=     0 NBB=     0.
 A-vector RMS=  1.0590537D-04 Max=  9.0322764D-04 conv= 1.00D-05.
 RLE energy=       -0.0337102751
 DE(Corr)= -0.33609707E-01 E(CORR)=     -199.64696080     Delta=-1.70D-03
 NORM(A)=   0.10366435D+01
 Iteration Nr.   4
 **********************
 DD1Dir will call FoFMem   1 times, MxPair=         2
 NAB=     1 NAA=     0 NBB=     0.
 A-vector RMS=  3.1300179D-05 Max=  1.4242054D-04 conv= 1.00D-05.
 RLE energy=       -0.0337561927
 DE(Corr)= -0.33728813E-01 E(CORR)=     -199.64707991     Delta=-1.19D-04
 NORM(A)=   0.10368168D+01
 Iteration Nr.   5
 **********************
 DD1Dir will call FoFMem   1 times, MxPair=         2
 NAB=     1 NAA=     0 NBB=     0.
 A-vector RMS=  9.6736757D-06 Max=  2.2120623D-05 conv= 1.00D-05.
 RLE energy=       -0.0337491307
 DE(Corr)= -0.33752566E-01 E(CORR)=     -199.64710366     Delta=-2.38D-05
 NORM(A)=   0.10367999D+01
 Iteration Nr.   6
 **********************
 DD1Dir will call FoFMem   1 times, MxPair=         2
 NAB=     1 NAA=     0 NBB=     0.
 A-vector RMS=  1.9292624D-06 Max=  7.1444778D-06 conv= 1.00D-05.
 RLE energy=       -0.0337499254
 DE(Corr)= -0.33749577E-01 E(CORR)=     -199.64710067     Delta= 2.99D-06
 NORM(A)=   0.10368028D+01
 Iteration Nr.   7
 **********************
 DD1Dir will call FoFMem   1 times, MxPair=         2
 NAB=     1 NAA=     0 NBB=     0.
 A-vector RMS=  8.3126312D-07 Max=  1.9412680D-06 conv= 1.00D-05.
 RLE energy=       -0.0337499012
 DE(Corr)= -0.33749901E-01 E(CORR)=     -199.64710099     Delta=-3.24D-07
 NORM(A)=   0.10368030D+01
 Iteration Nr.   8
 **********************
 DD1Dir will call FoFMem   1 times, MxPair=         2
 NAB=     1 NAA=     0 NBB=     0.
 A-vector RMS=  1.6848770D-07 Max=  3.5046764D-07 conv= 1.00D-05.
 RLE energy=       -0.0337499041
 DE(Corr)= -0.33749898E-01 E(CORR)=     -199.64710099     Delta= 2.99D-09
 NORM(A)=   0.10368031D+01
 CI/CC converged in    8 iterations to DelEn= 2.99D-09 Conv= 1.00D-07 ErrA1= 1.68D-07 Conv= 1.00D-05
 Wavefunction amplitudes converged. E(Corr)=     -199.64710099    
 Largest amplitude= 8.01D-02
 Time for triples=        0.02 seconds.
 T4(CCSD)=  0.00000000D+00
 T5(CCSD)=  0.00000000D+00
 CCSD(T)= -0.19964710099D+03
 Discarding MO integrals.
 Leave Link  913 at Mon Oct  5 21:27:08 2020, MaxMem=   268435456 cpu:               6.1 elap:               0.9
 (Enter /applis/site/cecic/gaussian16/B.01/nehalem/g16/l601.exe)
 Copying SCF densities to generalized density rwf, IOpCl= 0 IROHF=0.

 **********************************************************************

            Population analysis using the SCF Density.

 **********************************************************************

 Orbital symmetries:
       Occupied  (A1G) (A1G) (T1U) (T1U) (T1U) (A1G)
       Virtual   (T1U) (T1U) (T1U) (A1G) (T1U) (T1U) (T1U) (T2G)
                 (T2G) (T2G) (EG) (EG) (T1U) (T1U) (T1U) (A1G)
                 (?A) (?A) (?A) (A2U) (?A) (?A) (?A) (EG) (EG)
                 (T2G) (T2G) (T2G) (T1U) (T1U) (T1U) (EG) (EG)
                 (T2G) (T2G) (T2G) (A2U) (?A) (?A) (?A) (?A) (?A)
                 (?A) (A1G)
 The electronic state is 1-A1G.
 Alpha  occ. eigenvalues --  -49.03188  -3.76772  -2.28213  -2.28213  -2.28213
 Alpha  occ. eigenvalues --   -0.25306
 Alpha virt. eigenvalues --    0.01616   0.01616   0.01616   0.03180   0.05514
 Alpha virt. eigenvalues --    0.05514   0.05514   0.08166   0.08166   0.08166
 Alpha virt. eigenvalues --    0.08166   0.08166   0.20837   0.20837   0.20837
 Alpha virt. eigenvalues --    0.21293   0.28475   0.28475   0.28475   0.28475
 Alpha virt. eigenvalues --    0.28475   0.28475   0.28475   0.35645   0.35645
 Alpha virt. eigenvalues --    0.35645   0.35645   0.35645   0.73576   0.73576
 Alpha virt. eigenvalues --    0.73576   0.99915   0.99915   0.99915   0.99915
 Alpha virt. eigenvalues --    0.99915   1.06029   1.06029   1.06029   1.06029
 Alpha virt. eigenvalues --    1.06029   1.06029   1.06029   1.29655
          Condensed to atoms (all electrons):
               1
     1  Mg  12.000000
 Mulliken charges:
               1
     1  Mg   0.000000
 Sum of Mulliken charges =   0.00000
 Mulliken charges with hydrogens summed into heavy atoms:
               1
     1  Mg   0.000000
 Electronic spatial extent (au):  <R**2>=             29.6197
 Charge=              0.0000 electrons
 Dipole moment (field-independent basis, Debye):
    X=              0.0000    Y=              0.0000    Z=              0.0000  Tot=              0.0000
 Quadrupole moment (field-independent basis, Debye-Ang):
   XX=            -13.2799   YY=            -13.2799   ZZ=            -13.2799
   XY=              0.0000   XZ=              0.0000   YZ=              0.0000
 Traceless Quadrupole moment (field-independent basis, Debye-Ang):
   XX=              0.0000   YY=              0.0000   ZZ=              0.0000
   XY=              0.0000   XZ=              0.0000   YZ=              0.0000
 Octapole moment (field-independent basis, Debye-Ang**2):
  XXX=              0.0000  YYY=              0.0000  ZZZ=              0.0000  XYY=              0.0000
  XXY=              0.0000  XXZ=              0.0000  XZZ=              0.0000  YZZ=              0.0000
  YYZ=              0.0000  XYZ=              0.0000
 Hexadecapole moment (field-independent basis, Debye-Ang**3):
 XXXX=            -41.8491 YYYY=            -41.8491 ZZZZ=            -41.8491 XXXY=              0.0000
 XXXZ=              0.0000 YYYX=              0.0000 YYYZ=             -0.0000 ZZZX=              0.0000
 ZZZY=             -0.0000 XXYY=            -13.9497 XXZZ=            -13.9497 YYZZ=            -13.9497
 XXYZ=             -0.0000 YYXZ=              0.0000 ZZXY=              0.0000
 N-N= 0.000000000000D+00 E-N=-4.790378234195D+02  KE= 1.996092215258D+02
 Symmetry AG   KE= 1.531043574051D+02
 Symmetry B1G  KE= 3.306098186233D-61
 Symmetry B2G  KE= 2.555793208598D-61
 Symmetry B3G  KE= 4.023501640627D-61
 Symmetry AU   KE= 2.015043263129D-62
 Symmetry B1U  KE= 1.550162137358D+01
 Symmetry B2U  KE= 1.550162137358D+01
 Symmetry B3U  KE= 1.550162137358D+01
 Leave Link  601 at Mon Oct  5 21:27:08 2020, MaxMem=   268435456 cpu:               0.8 elap:               0.2
 (Enter /applis/site/cecic/gaussian16/B.01/nehalem/g16/l9999.exe)
 1\1\GINC-DAHU74\SP\RCCSD(T)-FC\Aug-CC-pVTZ\Mg1\TINACCIL\05-Oct-2020\0\
 \#P CCSD(T)/aug-cc-pvtz\\Title\\0,1\Mg\\Version=ES64L-G16RevB.01\State
 =1-A1G\HF=-199.6133511\MP2=-199.6370122\MP3=-199.6428655\MP4D=-199.645
 7382\MP4DQ=-199.6450802\MP4SDQ=-199.6451855\CCSD=-199.647101\CCSD(T)=-
 199.647101\RMSD=3.465e-09\PG=OH [O(Mg1)]\\@


 I LOVE MANKIND - IT'S PEOPLE I CAN'T STAND.
     -- LINUS OF PEANUTS
 Job cpu time:       0 days  0 hours  0 minutes 23.4 seconds.
 Elapsed time:       0 days  0 hours  0 minutes  4.0 seconds.
 File lengths (MBytes):  RWF=     19 Int=      0 D2E=      0 Chk=      1 Scr=      1
 Normal termination of Gaussian 16 at Mon Oct  5 21:27:09 2020.
