$hessian                                                                        
        0.6435887619   0.0000489532  -0.0000022466  -0.3221841432   0.1912642539
        0.0000007908  -0.3214046188  -0.1913132071   0.0000014558
        0.0000489532   0.5356149387  -0.0000009350   0.3203311561  -0.2674271066
       -0.0000006514  -0.3203801094  -0.2681878321   0.0000015864
       -0.0000022466  -0.0000009350   0.0000000000   0.0000005656  -0.0000002009
       -0.0000000000   0.0000016811   0.0000011359  -0.0000000000
       -0.3221841432   0.3203311561   0.0000005656   0.4864717618  -0.2556050350
       -0.0000012520  -0.1642876187  -0.0647261211   0.0000006864
        0.1912642539  -0.2674271066  -0.0000002009  -0.2556050350   0.1903789161
        0.0000005600   0.0643407811   0.0770481905  -0.0000003591
        0.0000007908  -0.0000006514  -0.0000000000  -0.0000012520   0.0000005600
        0.0000000000   0.0000004612   0.0000000915  -0.0000000000
       -0.3214046188  -0.3203801094   0.0000016811  -0.1642876187   0.0643407811
        0.0000004612   0.4856922374   0.2560393283  -0.0000021423
       -0.1913132071  -0.2681878321   0.0000011359  -0.0647261211   0.0770481905
        0.0000000915   0.2560393283   0.1911396417  -0.0000012273
        0.0000014558   0.0000015864  -0.0000000000   0.0000006864  -0.0000003591
       -0.0000000000  -0.0000021423  -0.0000012273   0.0000000000
