3
 energy: -10.070601569130 gnorm: 0.000292286683 xtb: 6.2.2 (9d81278992624c895f80dd42a50cac0aa55982e2)
C        -0.00032062476204    0.42083820251178   -0.00000073337434
O         1.06208773788501   -0.20960853937693   -0.00000334156322
O        -1.06176711312297   -0.21122966313485    0.00000407493755
