 Entering Gaussian System
 *********************************************
 Gaussian 98:
 frequency output generated by the xtb code
 *********************************************
                         Standard orientation:
 --------------------------------------------------------------------
  Center     Atomic     Atomic              Coordinates (Angstroms)
  Number     Number      Type              X           Y           Z
 --------------------------------------------------------------------
    1          6             0       -0.000321    0.420838   -0.000001
    2          8             0        1.062088   -0.209609   -0.000003
    3          8             0       -1.061767   -0.211230    0.000004
 --------------------------------------------------------------------
     1 basis functions        1 primitive gaussians
     1 alpha electrons        1 beta electrons

 Harmonic frequencies (cm**-1), IR intensities (KM/Mole),
 Raman scattering activities (A**4/amu), Raman depolarization ratios,
 reduced masses (AMU), force constants (mDyne/A) and normal coordinates:
                      1                      2                      3
                        a                      a                      a 
 Frequencies --   546.2625              1461.2421              1548.0489
 Red. masses --    14.9271                13.3544                14.1716
 Frc consts  --     0.0000                 0.0000                 0.0000
 IR Inten    --     0.4608                 1.0392                 0.3043
 Raman Activ --     0.0000                 0.0000                 0.0000
 Depolar     --     0.0000                 0.0000                 0.0000
 Atom AN      X      Y      Z        X      Y      Z        X      Y      Z
   1   6     0.00  -0.52   0.00     0.81   0.00  -0.00    -0.00   0.68  -0.00
   2   8     0.56   0.23  -0.00    -0.35   0.21   0.00     0.43  -0.29  -0.00
   3   8    -0.56   0.22   0.00    -0.35  -0.21   0.00    -0.43  -0.29   0.00
