[Molden Format]
[Title]
[Atoms] AU
C      1     6 -0.60589293281076E-03  0.79526887174211E+00 -0.13858765190224E-05
O      2     8  0.20070547587117E+01 -0.39610269605487E+00 -0.63146387202886E-05
O      3     8 -0.20064488657789E+01 -0.39916617568724E+00  0.77005152393110E-05
[GTO]
           1 0
 s           4   1.0000000000000000     
   51.049363095579913      -0.16312063210127389     
   8.7911227406887544      -0.19911024581000730     
  0.70640422258929825       0.31882047753655751     
  0.26922813413411617       0.12706504184240380     
 p           4   1.0000000000000000     
   5.8263656140800002       0.73716451545209605     
   1.5106896018720002       0.68216371614850257     
  0.53256483288000001       0.35783053929253711     
  0.21202323690600003        5.3983030275847881E-002

           2 0
 s           4   1.0000000000000000     
   69.137961906196551      -0.20478756370077797     
   11.906129132707308      -0.24997023136827334     
  0.95670827744340703       0.40025880240639616     
  0.36462520496073686       0.15952206667693555     
 p           4   1.0000000000000000     
   8.2124193257781641        1.1321556799186829     
   2.1293576997098116        1.0476840782254817     
  0.75066448202360914       0.54956508217158984     
  0.29885246543283073        8.2908486592766617E-002

           3 0
 s           4   1.0000000000000000     
   69.137961906196551      -0.20478756370077797     
   11.906129132707308      -0.24997023136827334     
  0.95670827744340703       0.40025880240639616     
  0.36462520496073686       0.15952206667693555     
 p           4   1.0000000000000000     
   8.2124193257781641        1.1321556799186829     
   2.1293576997098116        1.0476840782254817     
  0.75066448202360914       0.54956508217158984     
  0.29885246543283073        8.2908486592766617E-002

[MO]
Sym=     1a
Ene=  -0.80405899213627885     
Spin= Alpha
Occup=     2.00000000
           1 -0.39290386520159859     
           2  -1.2515310524319475E-004
           3  0.16101845632661296     
           4  -2.8134193749383147E-007
           5 -0.41621694859283831     
           6  0.19460000522715729     
           7  -6.9041981052121545E-002
           8  -5.6875431210679786E-007
           9 -0.41620938997952639     
          10 -0.19449338747709263     
          11  -6.9337508524189281E-002
          12   8.1320666681950103E-007
Sym=     2a
Ene=  -0.77738512176721863     
Spin= Alpha
Occup=     2.00000000
           1   2.8350691518592503E-006
           2 -0.33160913046489371     
           3  -2.5428572148344800E-004
           4   1.1513473726743790E-006
           5 -0.54782133557645796     
           6   4.0154182717362104E-002
           7  -9.3368636361132559E-002
           8   8.0214879673719711E-009
           9  0.54782683085361172     
          10   4.0015356189155665E-002
          11   9.3430522868216279E-002
          12  -3.2413449806072675E-007
Sym=     3a
Ene=  -0.67464385814570305     
Spin= Alpha
Occup=     2.00000000
           1  0.34835516053613019     
           2  -6.4176885004914964E-005
           3   8.4923402269804243E-002
           4  -1.3592074476916461E-007
           5 -0.48669980329630297     
           6 -0.34834965076006169     
           7  0.24815185921358887     
           8   7.7398904556334222E-007
           9 -0.48669892440020918     
          10  0.34796831972051007     
          11  0.24868100351751105     
          12  -1.6096382155079752E-006
Sym=     4a
Ene=  -0.64373049577198627     
Spin= Alpha
Occup=     2.00000000
           1  -1.7201958677004927E-008
           2   1.6994726274003608E-006
           3   8.5264694359198013E-007
           4  0.50146432245772354     
           5   3.3509854545225619E-008
           6   1.8192923505617562E-006
           7   8.1664344391008161E-007
           8  0.51390010682883136     
           9  -1.9722549212111055E-008
          10   1.8294865344052071E-006
          11   9.2571337741012553E-007
          12  0.51389659068498350     
Sym=     5a
Ene=  -0.62604621089672263     
Spin= Alpha
Occup=     2.00000000
           1 -0.20760241527639534     
           2   3.1393524176920941E-004
           3 -0.42149929582526863     
           4   7.1137325357808913E-007
           5 -0.14505810982485715     
           6 -0.33518061203251459     
           7 -0.42120840961921657     
           8   1.8776177698976032E-006
           9 -0.14507592299262165     
          10  0.33583642206427822     
          11 -0.42067291391593470     
          12  -4.5625910839740703E-007
Sym=     6a
Ene=  -0.62112693367884431     
Spin= Alpha
Occup=     2.00000000
           1  -6.2159129497181166E-006
           2  0.32277142549211374     
           3   2.3572606331302408E-004
           4  -1.0642990965473489E-006
           5 -0.34350241041757990     
           6 -0.31765150721183733     
           7  0.44934679995082610     
           8   3.8711201151413848E-007
           9  0.34349736986332863     
          10 -0.31695034622016799     
          11 -0.44985309261853118     
          12   1.9382861698367892E-006
Sym=     7a
Ene=  -0.54355171154585735     
Spin= Alpha
Occup=     1.99999952
           1  -1.7107466806630978E-009
           2  -2.1078653890132263E-010
           3  -7.9211283961534710E-009
           4   9.3611683594356855E-007
           5   1.6335897909540232E-008
           6  -2.4692248865674319E-006
           7  -1.2356117306574101E-006
           8 -0.71246011936841958     
           9   2.8101487558869372E-008
          10   2.4782839864995794E-006
          11   1.2285471217193791E-006
          12  0.71246337859475461     
Sym=     8a
Ene=  -0.51592228319214817     
Spin= Alpha
Occup=     1.00000048
           1  -1.2645954599800521E-007
           2  -8.5125900315549188E-002
           3  -6.5399558931560691E-005
           4   3.0125195861944746E-007
           5   5.2792955883267979E-004
           6  0.57423671434696744     
           7  0.44210691664769636     
           8  -2.7622125596822756E-006
           9  -5.2833936952739670E-004
          10  0.57491264303800227     
          11 -0.44123169982596722     
          12  -1.2431943619608496E-006
Sym=     9a
Ene=  -0.37724633041640843     
Spin= Alpha
Occup=     1.00000000
           1  0.50685483518425622     
           2  -5.3686738245541695E-004
           3  0.70305951927966581     
           4  -1.2284685932713511E-006
           5   8.5536579814159373E-003
           6  -3.5247856214061839E-002
           7 -0.50686053655163887     
           8   1.0072721445997754E-006
           9   8.5531210974163618E-003
          10   3.6020416683644842E-002
          11 -0.50680589056680170     
          12   7.6299550545818303E-007
Sym=    10a
Ene=  -0.28405040289875683     
Spin= Alpha
Occup=     0.00000000
           1  -2.0560483876896550E-009
           2  -3.1988684430995196E-006
           3  -1.6019551001339668E-006
           4 -0.91644535060009724     
           5  -4.9559315879625587E-009
           6   1.8246287355311485E-006
           7   9.1690040018517583E-007
           8  0.52299824444612919     
           9   8.5729053784174662E-009
          10   1.8237150348322684E-006
          11   9.1256445227789422E-007
          12  0.52299697420979285     
Sym=    11a
Ene=   0.40118618020355340     
Spin= Alpha
Occup=     0.00000000
           1   1.0278619845451646     
           2   5.3229934445129070E-004
           3 -0.78273076935227359     
           4   1.3633969972549274E-006
           5 -0.49545417893171378     
           6  0.63134859373706709     
           7 -0.18895687069008749     
           8  -1.8718107505359498E-006
           9 -0.49551172338677957     
          10 -0.63110527243586356     
          11 -0.18996744722505038     
          12   2.5314059236793077E-006
Sym=    12a
Ene=   0.44130516396217079     
Spin= Alpha
Occup=     0.00000000
           1  -5.5802992484377599E-005
           2  -1.2417704344024012     
           3  -9.0603290350849618E-004
           4   4.3333193424441448E-006
           5  0.56118154042296486     
           6 -0.44509727447058395     
           7  0.44754544610027813     
           8   7.7082644701113245E-007
           9 -0.56112755003347903     
          10 -0.44434719679834561     
          11 -0.44820310389873375     
          12   2.3305531806541752E-006
