      -----------------------------------------------------------      
     |                   =====================                   |     
     |                           x T B                           |     
     |                   =====================                   |     
     |                         S. Grimme                         |     
     |          Mulliken Center for Theoretical Chemistry        |     
     |                    University of Bonn                     |     
      -----------------------------------------------------------      

   * xtb version 6.2.2 (9d81278992624c895f80dd42a50cac0aa55982e2) compiled by '@Darwin' on 04/03/2020

   xtb is free software: you can redistribute it and/or modify it under
   the terms of the GNU Lesser General Public License as published by
   the Free Software Foundation, either version 3 of the License, or
   (at your option) any later version.
   
   xtb is distributed in the hope that it will be useful,
   but WITHOUT ANY WARRANTY; without even the implied warranty of
   MERCHANTABILITY or FITNESS FOR A PARTICULAR PURPOSE.  See the
   GNU Lesser General Public License for more details.
   
   Cite this work as:
   * S. Grimme, C. Bannwarth, P. Shushkov, J. Chem. Theory Comput., 2017,
     13, 1989-2009. DOI: 10.1021/acs.jctc.7b00118
   * C. Bannwarth, S. Ehlert and S. Grimme., J. Chem. Theory Comput., 2019,
     15, 1652-1671. DOI: 10.1021/acs.jctc.8b01176
   * P. Pracht, E. Caldeweyher, S. Ehlert, S. Grimme, ChemRxiv, 2019, preprint.
     DOI: 10.26434/chemrxiv.8326202.v1
   
   for DFT-D4:
   * E. Caldeweyher, C. Bannwarth and S. Grimme, J. Chem. Phys., 2017,
     147, 034112. DOI: 10.1063/1.4993215
   * E. Caldeweyher, S. Ehlert, A. Hansen, H. Neugebauer, S. Spicher,
     C. Bannwarth and S. Grimme, J. Chem. Phys., 2019, 150, 154122.
     DOI: 10.1063/1.5090222
   
   for sTDA-xTB:
   * S. Grimme and C. Bannwarth, J. Chem. Phys., 2016, 145, 054103.
     DOI: 10.1063/1.4959605
   
   in the mass-spec context:
   * V. Asgeirsson, C. Bauer and S. Grimme, Chem. Sci., 2017, 8, 4879.
     DOI: 10.1039/c7sc00601b
   
   for metadynamics refer to:
   * S. Grimme, J. Chem. Theory Comput., 2019, 155, 2847-2862
     DOI: 10.1021/acs.jctc.9b00143
   
   with help from (in alphabetical order)
   C. Bannwarth, F. Bohle, G. Brandenburg, E. Caldeweyher, M. Checinski,
   S. Dohm, S. Ehlert, S. Ehrlich, F. März, H. Neugebauer, J. Pisarek,
   P. Pracht, P. Shushkov, and S. Spicher.
   
 * started run on 2020/05/12 at 11:44:49.036     

           -------------------------------------------------
          |                Calculation Setup                |
           -------------------------------------------------

          program call               : xtb --input C1O2_0_S_2.input C1O2_0_S_2.xyz --ohess --molden --namespace C1O2_0_S_2 output.out
          calculation namespace      : C1O2_0_S_2
          coordinate file            : C1O2_0_S_2.xyz
          number of atoms            :                     3
          number of electrons        :                    16
          charge                     :                     0
          spin                       :                   1.0
          first test random number   :      0.86741411008416

   ID    Z sym.   atoms
    1    6 C      1
    2    8 O      2, 3

           -------------------------------------------------
          |                 G F N 2 - x T B                 |
           -------------------------------------------------

        Reference                      10.1021/acs.jctc.8b01176
      * Hamiltonian:
        H0-scaling (s, p, d)           1.850000    2.230000    2.230000
        zeta-weighting                 0.500000
      * Dispersion:
        s8                             2.700000
        a1                             0.520000
        a2                             5.000000
        s9                             5.000000
      * Repulsion:
        kExp                           1.500000    1.000000
        rExp                           1.000000
      * Coulomb:
        alpha                          2.000000
        third order                    shell-resolved
        anisotropic                    true
        a3                             3.000000
        a5                             4.000000
        cn-shift                       1.200000
        cn-exp                         4.000000
        max-rad                        5.000000


          ...................................................
          :                      SETUP                      :
          :.................................................:
          :  # basis functions                  12          :
          :  # atomic orbitals                  12          :
          :  # shells                            6          :
          :  # electrons                        16          :
          :  max. iterations                   250          :
          :  Hamiltonian                  GFN2-xTB          :
          :  restarted?                      false          :
          :  GBSA solvation                  false          :
          :  PC potential                    false          :
          :  electronic temp.          300.0000000     K    :
          :  accuracy                    1.0000000          :
          :  -> integral cutoff          0.2500000E+02      :
          :  -> integral neglect         0.1000000E-07      :
          :  -> SCF convergence          0.1000000E-05 Eh   :
          :  -> wf. convergence          0.1000000E-03 e    :
          :  Broyden damping             0.4000000          :
          ...................................................

 iter      E             dE          RMSdq      gap      omega  full diag
   1    -10.0319985 -0.100320E+02  0.632E+00    2.42       0.0  T
   2    -10.0325783 -0.579731E-03  0.357E+00    2.32       1.0  T
   3    -10.0306726  0.190563E-02  0.971E-01    2.30       1.0  T
   4    -10.0326598 -0.198714E-02  0.178E-01    2.25       1.0  T
   5    -10.0327745 -0.114759E-03  0.497E-02    2.26       1.2  T
   6    -10.0327804 -0.590134E-05  0.126E-02    2.26       4.6  T
   7    -10.0327809 -0.508739E-06  0.199E-03    2.26      29.1  T
   8    -10.0327809 -0.310433E-08  0.221E-04    2.26     261.5  T
   9    -10.0327809 -0.427960E-10  0.154E-04    2.26     375.9  T

   *** convergence criteria satisfied after 9 iterations ***

         #    Occupation            Energy/Eh            Energy/eV
      -------------------------------------------------------------
         1        2.0000           -0.7830387             -21.3076
       ...           ...                  ...                  ...
         3        2.0000           -0.6698101             -18.2265
         4        2.0000           -0.6226909             -16.9443
         5        2.0000           -0.6155163             -16.7491
         6        2.0000           -0.6012892             -16.3619
         7        2.0000           -0.5413945             -14.7321
         8        1.0000           -0.5197174             -14.1422
         9        1.0000           -0.4497772             -12.2391 (HOMO)
        10                         -0.3667045              -9.9785 (LUMO)
        11                          0.0372383               1.0133
        12                          0.0496194               1.3502
      -------------------------------------------------------------
                  HL-Gap            0.0830727 Eh            2.2605 eV
             Fermi-level           -0.4693984 Eh          -12.7730 eV

 transition dipole moment (au) for excitation:           8           9
     X       Y       Z   
  -0.9170  -0.0007  -0.0000  total (au/Debye):    0.917   2.331
 dE (eV)             :    1.903
 oscillator strength :  0.55446E-01

 SCC (total)                   0 d,  0 h,  0 min,  0.002 sec
 SCC setup                      ...        0 min,  0.000 sec (  3.487%)
 Dispersion                     ...        0 min,  0.000 sec (  0.385%)
 integral evaluation            ...        0 min,  0.001 sec ( 24.105%)
 zeroth order Hamiltonian       ...        0 min,  0.000 sec (  0.466%)
 iterations                     ...        0 min,  0.001 sec ( 29.853%)
 molecular gradient             ...        0 min,  0.000 sec ( 20.791%)
 printout                       ...        0 min,  0.000 sec ( 20.456%)

         :::::::::::::::::::::::::::::::::::::::::::::::::::::
         ::                     SUMMARY                     ::
         :::::::::::::::::::::::::::::::::::::::::::::::::::::
         :: total energy             -10.016285756033 Eh    ::
         :: gradient norm              0.278172256459 Eh/a0 ::
         :: HOMO-LUMO gap              2.260522841220 eV    ::
         ::.................................................::
         :: SCC energy               -10.032780938271 Eh    ::
         :: -> isotropic ES            0.019059017316 Eh    ::
         :: -> anisotropic ES         -0.000349699302 Eh    ::
         :: -> anisotropic XC         -0.000051167274 Eh    ::
         :: -> dispersion             -0.000682794100 Eh    ::
         :: repulsion energy           0.016495181598 Eh    ::
         :: add. restraining           0.000000000000 Eh    ::
         :::::::::::::::::::::::::::::::::::::::::::::::::::::

      ----------------------------------------------------------- 
     |                   =====================                   |
     |                        A N C O P T                        |
     |                   =====================                   |
     |               Approximate Normal Coordinate               |
     |                Rational Function Optimizer                |
      ----------------------------------------------------------- 

          ...................................................
          :                      SETUP                      :
          :.................................................:
          :   optimization level            normal          :
          :   max. optcycles                   200          :
          :   ANC micro-cycles                  20          :
          :   degrees of freedom                 3          :
          :.................................................:
          :   RF solver                   davidson          :
          :   write xtbopt.log                true          :
          :   linear?                        false          :
          :   energy convergence         0.5000000E-05 Eh   :
          :   grad. convergence          0.1000000E-02 Eh/α :
          :   maximium RF displ.         1.0000000          :
          :   Hlow (freq-cutoff)         0.1000000E-01      :
          :   Hmax (freq-cutoff)         5.0000000          :
          :   S6 in model hess.         20.0000000          :
          ...................................................

generating ANC from model Hessian ...
Using Lindh-Hessian (1995)
 Shifting diagonal of input Hessian by    0.0000000000000000     
 Lowest  eigenvalues of input Hessian
   -0.000000   -0.000000   -0.000000    0.000000    0.000000    0.000000
    0.166748    1.023476    1.344680
 Highest eigenvalues
    0.000000    0.000000    0.000000    0.166748    1.023476    1.344680


........................................................................
.............................. CYCLE    1 ..............................
........................................................................
   1    -10.0327809 -0.100328E+02  0.584E-05    2.26       0.0  T
   2    -10.0327809  0.257572E-12  0.531E-05    2.26    1086.3  T
   3    -10.0327809 -0.649081E-11  0.244E-05    2.26    2361.6  T
     SCC iter.                  ...        0 min,  0.000 sec
     gradient                   ...        0 min,  0.000 sec
 * total energy  :   -10.0162858 Eh     change       -0.2180656E-10 Eh
   gradient norm :     0.2781721 Eh/α   predicted     0.0000000E+00 (-100.00%)
   displ. norm   :     0.2549564 α      lambda       -0.7078815E-01
   maximum displ.:     0.2541723 α      in ANC's #2, #1, #3, ...

........................................................................
.............................. CYCLE    2 ..............................
........................................................................
   1    -10.1109048 -0.101109E+02  0.159E+00    2.53       0.0  T
   2    -10.1109618 -0.570505E-04  0.952E-01    2.52       1.0  T
   3    -10.1108866  0.752458E-04  0.210E-01    2.49       1.0  T
   4    -10.1110019 -0.115360E-03  0.492E-02    2.50       1.2  T
   5    -10.1110013  0.648617E-06  0.176E-02    2.50       3.3  T
   6    -10.1110022 -0.908454E-06  0.300E-03    2.50      19.2  T
   7    -10.1110022 -0.113734E-07  0.220E-04    2.50     262.6  T
   8    -10.1110022 -0.333440E-10  0.146E-04    2.50     394.2  T
     SCC iter.                  ...        0 min,  0.000 sec
     gradient                   ...        0 min,  0.000 sec
 * total energy  :   -10.0666803 Eh     change       -0.5039458E-01 Eh
   gradient norm :     0.0935169 Eh/α   predicted    -0.3769478E-01 ( -25.20%)
   displ. norm   :     0.1301551 α      lambda       -0.1196131E-01
   maximum displ.:     0.1267608 α      in ANC's #2, #1, #3, ...

........................................................................
.............................. CYCLE    3 ..............................
........................................................................
   1    -10.1404441 -0.101404E+02  0.753E-01    2.69       0.0  T
   2    -10.1404527 -0.862513E-05  0.453E-01    2.68       1.0  T
   3    -10.1404560 -0.329574E-05  0.384E-02    2.67       1.5  T
   4    -10.1404582 -0.219934E-05  0.218E-02    2.67       2.6  T
   5    -10.1404583 -0.438896E-07  0.279E-03    2.67      20.7  T
   6    -10.1404583 -0.174209E-07  0.989E-04    2.67      58.4  T
   7    -10.1404583 -0.373076E-09  0.637E-05    2.67     906.8  T
     SCC iter.                  ...        0 min,  0.000 sec
     gradient                   ...        0 min,  0.001 sec
 * total energy  :   -10.0688878 Eh     change       -0.2207504E-02 Eh
   gradient norm :     0.0680490 Eh/α   predicted    -0.6081966E-02 ( 175.51%)
   displ. norm   :     0.0673283 α      lambda       -0.3934738E-02
   maximum displ.:     0.0503695 α      in ANC's #2, #1, #3, ...

........................................................................
.............................. CYCLE    4 ..............................
........................................................................
   1    -10.1288093 -0.101288E+02  0.294E-01    2.52       0.0  T
   2    -10.1288158 -0.645559E-05  0.177E-01    2.52       1.0  T
   3    -10.1288134  0.237710E-05  0.519E-02    2.52       1.1  T
   4    -10.1288177 -0.429948E-05  0.972E-03    2.52       5.9  T
   5    -10.1288177 -0.754256E-08  0.400E-04    2.52     144.5  T
   6    -10.1288177 -0.297904E-09  0.138E-04    2.52     419.7  T
     SCC iter.                  ...        0 min,  0.001 sec
     gradient                   ...        0 min,  0.000 sec
 * total energy  :   -10.0705789 Eh     change       -0.1691027E-02 Eh
   gradient norm :     0.0073707 Eh/α   predicted    -0.1976287E-02 (  16.87%)
   displ. norm   :     0.0067110 α      lambda       -0.4193341E-04
   maximum displ.:     0.0048982 α      in ANC's #2, #1, #3, ...

........................................................................
.............................. CYCLE    5 ..............................
........................................................................
   1    -10.1300316 -0.101300E+02  0.290E-02    2.53       0.0  T
   2    -10.1300316 -0.578440E-07  0.175E-02    2.53       3.3  T
   3    -10.1300316  0.200653E-07  0.479E-03    2.53      12.1  T
   4    -10.1300316 -0.369675E-07  0.936E-04    2.53      61.7  T
   5    -10.1300316 -0.421778E-10  0.704E-05    2.53     820.2  T
     SCC iter.                  ...        0 min,  0.001 sec
     gradient                   ...        0 min,  0.000 sec
 * total energy  :   -10.0706015 Eh     change       -0.2261063E-04 Eh
   gradient norm :     0.0005695 Eh/α   predicted    -0.2096740E-04 (  -7.27%)
   displ. norm   :     0.0007572 α      lambda       -0.2625948E-06
   maximum displ.:     0.0006317 α      in ANC's #2, #1, #3, ...

........................................................................
.............................. CYCLE    6 ..............................
........................................................................
   1    -10.1301814 -0.101302E+02  0.349E-03    2.54       0.0  T
   2    -10.1301814 -0.391514E-09  0.211E-03    2.54      27.4  T
   3    -10.1301814  0.633484E-10  0.358E-04    2.54     161.4  T
   4    -10.1301814 -0.228935E-09  0.117E-04    2.54     492.2  T
     SCC iter.                  ...        0 min,  0.000 sec
     gradient                   ...        0 min,  0.000 sec
 * total energy  :   -10.0706016 Eh     change       -0.9579520E-07 Eh
   gradient norm :     0.0002925 Eh/α   predicted    -0.1312365E-06 (  37.00%)
   displ. norm   :     0.0002593 α      lambda       -0.4296894E-07
   maximum displ.:     0.0002137 α      in ANC's #2, #1, #3, ...

   *** GEOMETRY OPTIMIZATION CONVERGED AFTER 6 ITERATIONS ***

------------------------------------------------------------------------
 total energy gain   :        -0.0543158 Eh      -34.0837 kcal/mol
 total RMSD          :         0.1941267 a0        0.1027 Å
 total power (kW/mol):       -23.7676913 (step)********** (real)
------------------------------------------------------------------------

 ANCopt (total)                0 d,  0 h,  0 min,  0.009 sec
 optimizer setup                ...        0 min,  0.000 sec (  0.714%)
 model hessian                  ...        0 min,  0.000 sec (  0.398%)
 ANC generation                 ...        0 min,  0.000 sec (  0.341%)
 coordinate transformation      ...        0 min,  0.000 sec (  0.143%)
 single point calculation       ...        0 min,  0.009 sec ( 93.255%)
 optimization log               ...        0 min,  0.000 sec (  1.216%)
 hessian update                 ...        0 min,  0.000 sec (  0.125%)
 rational function              ...        0 min,  0.000 sec (  1.223%)

================
 final structure:
================
3
 xtb: 6.2.2 (9d81278992624c895f80dd42a50cac0aa55982e2)
C        -0.00032282826315    0.42083820082787    0.00000000000000
O         1.06208883538339   -0.20960297829598    0.00000000000000
O        -1.06176600712024   -0.21123522253188    0.00000000000000

 Bond Distances (Angstroems)
 ---------------------------
C1-O2=1.2354         C1-O3=1.2354         O2-C1=1.2354         O3-C1=1.2354         
 O  C  Rav=1.2354 sigma=0.0000  Rmin=1.2354  Rmax=1.2354     2

 selected bond angles (degree)
 --------------------
O3-C1-O2=118.54                

 selected dihedral angles (degree)
 ---------------------------------

           -------------------------------------------------
          |                Final Singlepoint                |
           -------------------------------------------------

          ...................................................
          :                      SETUP                      :
          :.................................................:
          :  # basis functions                  12          :
          :  # atomic orbitals                  12          :
          :  # shells                            6          :
          :  # electrons                        16          :
          :  max. iterations                   250          :
          :  Hamiltonian                  GFN2-xTB          :
          :  restarted?                      false          :
          :  GBSA solvation                  false          :
          :  PC potential                    false          :
          :  electronic temp.          300.0000000     K    :
          :  accuracy                    1.0000000          :
          :  -> integral cutoff          0.2500000E+02      :
          :  -> integral neglect         0.1000000E-07      :
          :  -> SCF convergence          0.1000000E-05 Eh   :
          :  -> wf. convergence          0.1000000E-03 e    :
          :  Broyden damping             0.4000000          :
          ...................................................

 iter      E             dE          RMSdq      gap      omega  full diag
   1    -10.1301814 -0.101302E+02  0.220E-05    2.54       0.0  T
   2    -10.1301814 -0.561329E-12  0.164E-05    2.54    3523.7  T
   3    -10.1301814 -0.712319E-12  0.523E-06    2.54   11048.0  T

   *** convergence criteria satisfied after 3 iterations ***

         #    Occupation            Energy/Eh            Energy/eV
      -------------------------------------------------------------
         1        2.0000           -0.8040590             -21.8796
       ...           ...                  ...                  ...
         3        2.0000           -0.6746438             -18.3580
         4        2.0000           -0.6437305             -17.5168
         5        2.0000           -0.6260462             -17.0356
         6        2.0000           -0.6211269             -16.9017
         7        2.0000           -0.5435517             -14.7908
         8        1.0000           -0.5159223             -14.0390
         9        1.0000           -0.3772463             -10.2654 (HOMO)
        10                         -0.2840504              -7.7294 (LUMO)
        11                          0.4011862              10.9168
        12                          0.4413052              12.0085
      -------------------------------------------------------------
                  HL-Gap            0.0931959 Eh            2.5360 eV
             Fermi-level           -0.4301927 Eh          -11.7061 eV

 transition dipole moment (au) for excitation:           8           9
     X       Y       Z   
  -0.8246  -0.0006   0.0000  total (au/Debye):    0.825   2.096
 dE (eV)             :    3.774
 oscillator strength :  0.88907E-01

 SCC (total)                   0 d,  0 h,  0 min,  0.002 sec
 SCC setup                      ...        0 min,  0.000 sec (  2.697%)
 Dispersion                     ...        0 min,  0.000 sec (  0.238%)
 integral evaluation            ...        0 min,  0.001 sec ( 32.299%)
 zeroth order Hamiltonian       ...        0 min,  0.000 sec (  0.335%)
 iterations                     ...        0 min,  0.000 sec ( 11.125%)
 molecular gradient             ...        0 min,  0.000 sec ( 27.212%)
 printout                       ...        0 min,  0.000 sec ( 25.674%)

         :::::::::::::::::::::::::::::::::::::::::::::::::::::
         ::                     SUMMARY                     ::
         :::::::::::::::::::::::::::::::::::::::::::::::::::::
         :: total energy             -10.070601569130 Eh    ::
         :: gradient norm              0.000292286683 Eh/a0 ::
         :: HOMO-LUMO gap              2.535990580339 eV    ::
         ::.................................................::
         :: SCC energy               -10.130181395066 Eh    ::
         :: -> isotropic ES            0.017059605715 Eh    ::
         :: -> anisotropic ES          0.000328474723 Eh    ::
         :: -> anisotropic XC         -0.001549075815 Eh    ::
         :: -> dispersion             -0.000685086990 Eh    ::
         :: repulsion energy           0.059579826009 Eh    ::
         :: add. restraining           0.000000000000 Eh    ::
         :::::::::::::::::::::::::::::::::::::::::::::::::::::

           ------------------------------------------------- 
          |                Numerical Hessian                |
           ------------------------------------------------- 
step length          :   0.00500
SCC accuracy         :   0.30000
Hessian scale factor :   1.00000
frozen atoms in %    :   0.00000    0
RMS gradient         :   0.00029
estimated CPU  time      0.00 min
estimated wall time      0.00 min

writing file <hessian>.

 projected vibrational frequencies (cm-1)
eigval :       -0.00    -0.00    -0.00     0.00     0.00     0.00
eigval :      546.26  1461.24  1548.05
           -------------------------------------------------
          |                Property Printout                |
           -------------------------------------------------

    * Orbital Energies and Occupations

         #    Occupation            Energy/Eh            Energy/eV
      -------------------------------------------------------------
         1        2.0000           -0.8040590             -21.8796
         2        2.0000           -0.7773851             -21.1537
         3        2.0000           -0.6746439             -18.3580
Molecule has the following symmetry elements: (C2) 2*(sigma) 
It seems to be the C2v point group
         4        2.0000           -0.6437305             -17.5168
         5        2.0000           -0.6260462             -17.0356
         6        2.0000           -0.6211269             -16.9017
         7        2.0000           -0.5435517             -14.7908
         8        1.0000           -0.5159223             -14.0390
         9        1.0000           -0.3772463             -10.2654 (HOMO)
        10                         -0.2840504              -7.7294 (LUMO)
        11                          0.4011862              10.9168
        12                          0.4413052              12.0085
      -------------------------------------------------------------
                  HL-Gap            0.0931959 Eh            2.5360 eV
             Fermi-level           -0.4301927 Eh          -11.7061 eV

     #   Z        covCN         q      C6AA      α(0)
     1   6 C      1.711     0.295    24.664     8.040
     2   8 O      0.858    -0.147    17.232     5.566
     3   8 O      0.858    -0.147    17.232     5.566

 Mol. C6AA /au·bohr⁶  :        174.639578
 Mol. C8AA /au·bohr⁸  :       4062.362758
 Mol. α(0) /au        :         19.171110


Wiberg/Mayer (AO) data.
largest (>0.10) Wiberg bond orders for each atom
          total WBO             WBO to atom ...
     1  C   3.045        O    2 1.523    O    3 1.523
     2  O   1.767        C    1 1.523    O    3 0.244
     3  O   1.767        C    1 1.523    O    2 0.244

MOs/occ written to file <molden.input>


molecular dipole:
                 x           y           z       tot (Debye)
 q only:       -0.000       0.352      -0.000
   full:       -0.000       0.340      -0.000       0.865
molecular quadrupole (traceless):
                xx          xy          yy          xz          yz          zz
 q only:       -1.257      -0.002       0.734       0.000      -0.000       0.524
  q+dip:       -2.040      -0.002       0.918       0.000       0.000       1.122
   full:       -2.282      -0.002       0.741       0.000       0.000       1.541

           -------------------------------------------------
          |                Geometry Summary                 |
           -------------------------------------------------

      molecular mass/u    :       44.0095457
   center of mass at/Å    :        0.0000291      -0.0381414       0.0000001
  moments of inertia/u·Å² :        0.3479923E+01   0.3608475E+02   0.3956468E+02
rotational constants/cm⁻¹ :        0.4844254E+01   0.4671677E+00   0.4260778E+00

           -------------------------------------------------
          |               Frequency Printout                |
           -------------------------------------------------
 projected vibrational frequencies (cm-1)
eigval :       -0.00    -0.00    -0.00     0.00     0.00     0.00
eigval :      546.26  1461.24  1548.05
 reduced masses (amu)
   1: 15.36   2: 15.18   3: 12.01   4: 15.38   5: 15.64   6: 16.00   7: 14.93   8: 13.35
   9: 14.17
 IR intensities (amu)
   1:  0.07   2:  0.09   3:  0.29   4:  0.07   5:  0.12   6:  0.14   7:  0.46   8:  1.04
   9:  0.30
 Raman intensities (amu)
   1:  0.00   2:  0.00   3:  0.00   4:  0.00   5:  0.00   6:  0.00   7:  0.00   8:  0.00
   9:  0.00
 output can be read by thermo (or use thermo option).
 writing <g98.out> molden fake output.
 recommended (thermochemical) frequency scaling factor: 1.0
           -------------------------------------------------
          |             Thermodynamic Functions             |
           -------------------------------------------------

c2v symmetry found (for desy threshold:  0.10E+00) used in thermo

          ...................................................
          :                      SETUP                      :
          :.................................................:
          :  # frequencies                           3      :
          :  # imaginary freq.                       0      :
          :  linear?                             false      :
          :  only rotor calc.                    false      :
          :  symmetry                              c2v      :
          :  rotational number                       2      :
          :  scaling factor                  1.0000000      :
          :  rotor cutoff                   50.0000000 cm⁻¹ :
          :  imag. cutoff                  -20.0000000 cm⁻¹ :
          :.................................................:

    mode    ω/cm⁻¹     T·S(HO)/kcal·mol⁻¹    T·S(FR)/kcal·mol⁻¹   T·S(vib)
   ------------------------------------------------------------------------
   ------------------------------------------------------------------------

   temp. (K)  partition function   enthalpy   heat capacity  entropy
                                   cal/mol     cal/K/mol   cal/K/mol   J/K/mol
 298.15  VIB   1.08                  126.675      1.297      0.575
         ROT  0.269E+04              888.752      2.981     18.677
         INT  0.290E+04             1015.427      4.278     19.252
         TR   0.282E+27             1481.254      4.968     37.255
         TOT                        2496.6808     9.2459    56.5066   236.4235

   temp. (K)  partition function   enthalpy   heat capacity  entropy
                                   cal/mol     cal/K/mol   cal/K/mol   J/K/mol
 120.00  VIB   1.00                    2.238      0.122      0.022
         ROT   687.                  357.707      2.981     15.964
         INT   688.                  359.945      3.103     15.985
         TR   0.721E+26              596.178      4.968     32.735
         TOT                         956.1227     8.0714    48.7203   203.8459

   temp. (K)  partition function   enthalpy   heat capacity  entropy
                                   cal/mol     cal/K/mol   cal/K/mol   J/K/mol
 100.00  VIB   1.00                    0.603      0.047      0.007
         ROT   523.                  298.089      2.981     15.420
         INT   523.                  298.692      3.028     15.427
         TR   0.549E+26              496.815      4.968     31.830
         TOT                         795.5072     7.9965    47.2568   197.7225

   temp. (K)  partition function   enthalpy   heat capacity  entropy
                                   cal/mol     cal/K/mol   cal/K/mol   J/K/mol
  80.00  VIB   1.00                    0.085      0.010      0.001
         ROT   374.                  238.471      2.981     14.755
         INT   374.                  238.556      2.991     14.756
         TR   0.393E+26              397.452      4.968     30.722
         TOT                         636.0077     7.9594    45.4779   190.2796

   temp. (K)  partition function   enthalpy   heat capacity  entropy
                                   cal/mol     cal/K/mol   cal/K/mol   J/K/mol
  60.00  VIB   1.00                    0.003      0.001      0.000
         ROT   243.                  178.853      2.981     13.897
         INT   243.                  178.857      2.982     13.897
         TR   0.255E+26              298.089      4.968     29.293
         TOT                         476.9456     7.9497    43.1907   180.7098

   temp. (K)  partition function   enthalpy   heat capacity  entropy
                                   cal/mol     cal/K/mol   cal/K/mol   J/K/mol
  40.00  VIB   1.00                    0.000      0.000     -0.000
         ROT   132.                  119.236      2.981     12.689
         INT   132.                  119.236      2.981     12.689
         TR   0.139E+26              198.726      4.968     27.280
         TOT                         317.9616     7.9490    39.9685   167.2283

   temp. (K)  partition function   enthalpy   heat capacity  entropy
                                   cal/mol     cal/K/mol   cal/K/mol   J/K/mol
  20.00  VIB   1.00                    0.000      0.000     -0.000
         ROT   46.8                   59.618      2.981     10.623
         INT   46.8                   59.618      2.981     10.622
         TR   0.491E+25               99.363      4.968     23.838
         TOT                         158.9808     7.9490    34.4603   144.1819

   temp. (K)  partition function   enthalpy   heat capacity  entropy
                                   cal/mol     cal/K/mol   cal/K/mol   J/K/mol
  10.00  VIB   1.00                    0.000      0.000     -0.000
         ROT   16.5                   29.809      2.981      8.556
         INT   16.5                   29.809      2.981      8.556
         TR   0.174E+25               49.681      4.968     20.396
         TOT                          79.4904     7.9490    28.9521   121.1355

       T/K    H(0)-H(T)+PV         H(T)/Eh          T*S/Eh         G(T)/Eh
   ------------------------------------------------------------------------
    298.15    0.397871E-02    0.120789E-01    0.268481E-01   -0.147692E-01
    120.00    0.152368E-02    0.962383E-02    0.931690E-02    0.306927E-03
    100.00    0.126772E-02    0.936787E-02    0.753085E-02    0.183702E-02
     80.00    0.101354E-02    0.911369E-02    0.579789E-02    0.331580E-02
     60.00    0.760061E-03    0.886021E-02    0.412972E-02    0.473048E-02
     40.00    0.506704E-03    0.860685E-02    0.254776E-02    0.605909E-02
     20.00    0.253352E-03    0.835350E-02    0.109832E-02    0.725518E-02
     10.00    0.126676E-03    0.822682E-02    0.461381E-03    0.776544E-02 (used)
   ------------------------------------------------------------------------

         :::::::::::::::::::::::::::::::::::::::::::::::::::::
         ::                  THERMODYNAMIC                  ::
         :::::::::::::::::::::::::::::::::::::::::::::::::::::
         :: total free energy         -10.062836127111 Eh   ::
         ::.................................................::
         :: total energy              -10.070601569129 Eh   ::
         :: zero point energy           0.008100146830 Eh   ::
         :: G(RRHO) w/o ZPVE           -0.000334704812 Eh   ::
         :: G(RRHO) contrib.            0.007765442018 Eh   ::
         :::::::::::::::::::::::::::::::::::::::::::::::::::::

optimized geometry written to: xtbopt.xyz


           -------------------------------------------------
          | TOTAL ENERGY              -10.070601569129 Eh   |
          | TOTAL ENTHALPY            -10.062374746283 Eh   |
          | TOTAL FREE ENERGY         -10.062836127111 Eh   |
          | GRADIENT NORM               0.000292277509 Eh/α |
          | HOMO-LUMO GAP               2.535990268775 eV   |
           -------------------------------------------------

------------------------------------------------------------------------
 * finished run on 2020/05/12 at 11:44:49.092     
------------------------------------------------------------------------
 total:
 * wall-time:     0 d,  0 h,  0 min,  0.055 sec
 *  cpu-time:     0 d,  0 h,  0 min,  0.055 sec
 * ratio c/w:     0.999 speedup
 SCF:
 * wall-time:     0 d,  0 h,  0 min,  0.002 sec
 *  cpu-time:     0 d,  0 h,  0 min,  0.002 sec
 * ratio c/w:     1.000 speedup
 ANC optimizer:
 * wall-time:     0 d,  0 h,  0 min,  0.012 sec
 *  cpu-time:     0 d,  0 h,  0 min,  0.012 sec
 * ratio c/w:     0.999 speedup
 numerical hessian:
 * wall-time:     0 d,  0 h,  0 min,  0.025 sec
 *  cpu-time:     0 d,  0 h,  0 min,  0.025 sec
 * ratio c/w:     1.000 speedup

