3
 energy: -10.016285756055 gnorm: 0.278172084825 xtb: 6.2.2 (9d81278992624c895f80dd42a50cac0aa55982e2)
C        -0.00041200000000    0.53649900000000    0.00000000000000
O         1.13826700000000   -0.26737500000000    0.00000000000000
O        -1.13785500000000   -0.26912400000000    0.00000000000000
3
 energy: -10.066680331271 gnorm: 0.093516878785 xtb: 6.2.2 (9d81278992624c895f80dd42a50cac0aa55982e2)
C        -0.00034729166037    0.45218085932643    0.00000000000000
O         1.07684127794937   -0.22526312031121    0.00000000000000
O        -1.07649398628900   -0.22691773901522    0.00000000000000
3
 energy: -10.068887835650 gnorm: 0.068048954611 xtb: 6.2.2 (9d81278992624c895f80dd42a50cac0aa55982e2)
C        -0.00031925780718    0.41504624480078    0.00000000000000
O         1.04025328215805   -0.20672408784188    0.00000000000000
O        -1.03993402435087   -0.20832215695890    0.00000000000000
3
 energy: -10.070578862684 gnorm: 0.007370708248 xtb: 6.2.2 (9d81278992624c895f80dd42a50cac0aa55982e2)
C        -0.00032381034863    0.42152424007140    0.00000000000000
O         1.06481620416079   -0.20994406350932    0.00000000000000
O        -1.06449239381215   -0.21158017656209    0.00000000000000
3
 energy: -10.070601473314 gnorm: 0.000569540382 xtb: 6.2.2 (9d81278992624c895f80dd42a50cac0aa55982e2)
C        -0.00032342119517    0.42095532213310    0.00000000000000
O         1.06235368169264   -0.20966151350291    0.00000000000000
O        -1.06203026049747   -0.21129380863019    0.00000000000000
3
 energy: -10.070601569109 gnorm: 0.000292549067 xtb: 6.2.2 (9d81278992624c895f80dd42a50cac0aa55982e2)
C        -0.00032282826315    0.42083820082787    0.00000000000000
O         1.06208883538339   -0.20960297829598    0.00000000000000
O        -1.06176600712024   -0.21123522253188    0.00000000000000
