$hessian                                                                        
        0.3154426353   0.0158332498  -0.0441441677  -0.3151943805  -0.0908823290
        0.0668128674  -0.0115741467  -0.0193593084   0.0023080065  -0.0624542453
        0.0335858036  -0.0038486807   0.0737801372   0.0608225839  -0.0211280255
        0.0158332498   0.2800044026   0.0039455139   0.0138428191   0.0440060749
       -0.0009095439   0.0786258148  -0.0442482329  -0.0118977419  -0.0229577707
       -0.0013222343  -0.0058310333  -0.0853441131  -0.2784400104   0.0146928052
       -0.0441441677   0.0039455139   0.0156645098   0.0735558065  -0.0071328969
       -0.0127726824  -0.0108083763  -0.0172728629  -0.0191689366   0.0046363825
        0.0372672001   0.0106648809  -0.0232396451  -0.0168069542   0.0056122282
       -0.3151943805   0.0138428191   0.0735558065   0.4499529889  -0.0439909054
       -0.0269447476  -0.0056681093   0.0274442615   0.0271533505  -0.1131302167
        0.0832619739  -0.0631316113  -0.0159602824  -0.0805581492  -0.0106327981
       -0.0908823290   0.0440060749  -0.0071328969  -0.0439909054   0.2256747119
       -0.0498754976  -0.0365407712  -0.1288118140  -0.0242442576   0.1542473942
       -0.1008108790   0.0634366200   0.0171666114  -0.0400580938   0.0178160320
        0.0668128674  -0.0009095439  -0.0127726824  -0.0269447476  -0.0498754976
        0.0466173493   0.0282452563   0.0199439307   0.0392404313  -0.0715811374
        0.0194994162  -0.0542573775   0.0034677613   0.0113416945  -0.0188277207
       -0.0115741467   0.0786258148  -0.0108083763  -0.0056681093  -0.0365407712
        0.0282452563   0.4552692701   0.0277790979  -0.0227600027  -0.1299092208
       -0.0803481308  -0.0685996030  -0.3081177933   0.0104839893   0.0739227257
       -0.0193593084  -0.0442482329  -0.0172728629   0.0274442615  -0.1288118140
        0.0199439307   0.0277790979   0.2192209737   0.0539907639  -0.1511612840
       -0.0829948176  -0.0591742148   0.1152972330   0.0368338908   0.0025123831
        0.0023080065  -0.0118977419  -0.0191689366   0.0271533505  -0.0242442576
        0.0392404313  -0.0227600027   0.0539907639   0.0480276377  -0.0748725736
       -0.0147177853  -0.0553233709   0.0681712192  -0.0031309792  -0.0127757615
       -0.0624542453  -0.0229577707   0.0046363825  -0.1131302167   0.1542473942
       -0.0715811374  -0.1299092208  -0.1511612840  -0.0748725736   0.3686777679
       -0.0074202203   0.1394986909  -0.0631840851   0.0272918808   0.0023186375
        0.0335858036  -0.0013222343   0.0372672001   0.0832619739  -0.1008108790
        0.0194994162  -0.0803481308  -0.0829948176  -0.0147177853  -0.0074202203
        0.1855782502  -0.0043559738  -0.0290794264  -0.0004503193  -0.0376928573
       -0.0038486807  -0.0058310333   0.0106648809  -0.0631316113   0.0634366200
       -0.0542573775  -0.0685996030  -0.0591742148  -0.0553233709   0.1394986909
       -0.0043559738   0.0886145424  -0.0039187958   0.0059246019   0.0103013250
        0.0737801372  -0.0853441131  -0.0232396451  -0.0159602824   0.0171666114
        0.0034677613  -0.3081177933   0.1152972330   0.0681712192  -0.0631840851
       -0.0290794264  -0.0039187958   0.3134820235  -0.0180403049  -0.0444805396
        0.0608225839  -0.2784400104  -0.0168069542  -0.0805581492  -0.0400580938
        0.0113416945   0.0104839893   0.0368338908  -0.0031309792   0.0272918808
       -0.0004503193   0.0059246019  -0.0180403049   0.2821145327   0.0026716369
       -0.0211280255   0.0146928052   0.0056122282  -0.0106327981   0.0178160320
       -0.0188277207   0.0739227257   0.0025123831  -0.0127757615   0.0023186375
       -0.0376928573   0.0103013250  -0.0444805396   0.0026716369   0.0156899290
