 Entering Gaussian System
 *********************************************
 Gaussian 98:
 frequency output generated by the xtb code
 *********************************************
                         Standard orientation:
 --------------------------------------------------------------------
  Center     Atomic     Atomic              Coordinates (Angstroms)
  Number     Number      Type              X           Y           Z
 --------------------------------------------------------------------
    1          6             0       -0.964918    0.744921    0.087814
    2          6             0        0.359294    0.854647   -0.199872
    3          6             0        0.297349   -0.875570   -0.211299
    4          6             0        1.323890   -0.049082    0.244811
    5          6             0       -1.015614   -0.674917    0.078544
 --------------------------------------------------------------------
     1 basis functions        1 primitive gaussians
     1 alpha electrons        1 beta electrons

 Harmonic frequencies (cm**-1), IR intensities (KM/Mole),
 Raman scattering activities (A**4/amu), Raman depolarization ratios,
 reduced masses (AMU), force constants (mDyne/A) and normal coordinates:
                      1                      2                      3
                        a                      a                      a 
 Frequencies --  -377.3779              -192.8010               413.1297
 Red. masses --    12.0107                12.0107                12.0107
 Frc consts  --     0.0000                 0.0000                 0.0000
 IR Inten    --     1.2809                 0.9352                 0.2102
 Raman Activ --     0.0000                 0.0000                 0.0000
 Depolar     --     0.0000                 0.0000                 0.0000
 Atom AN      X      Y      Z        X      Y      Z        X      Y      Z
   1   6     0.43  -0.38  -0.09    -0.08   0.01  -0.53     0.15  -0.05   0.22
   2   6     0.22   0.34  -0.04     0.09  -0.03   0.45     0.07   0.08  -0.46
   3   6    -0.19   0.35   0.04    -0.09  -0.02  -0.45     0.06  -0.07  -0.46
   4   6     0.00   0.03   0.00     0.00   0.05   0.00    -0.43   0.01   0.48
   5   6    -0.46  -0.35   0.08     0.08  -0.00   0.53     0.15   0.03   0.22
                      4                      5                      6
                        a                      a                      a 
 Frequencies --   572.4928               889.6652              1074.4809
 Red. masses --    12.0107                12.0107                12.0107
 Frc consts  --     0.0000                 0.0000                 0.0000
 IR Inten    --     0.4158                 0.7577                 0.5956
 Raman Activ --     0.0000                 0.0000                 0.0000
 Depolar     --     0.0000                 0.0000                 0.0000
 Atom AN      X      Y      Z        X      Y      Z        X      Y      Z
   1   6     0.10  -0.14  -0.05    -0.26  -0.02  -0.12     0.28   0.61  -0.04
   2   6     0.10   0.56   0.18    -0.13   0.39  -0.09    -0.16   0.03   0.06
   3   6     0.06  -0.57   0.17     0.16   0.37   0.10    -0.16  -0.02   0.06
   4   6    -0.39   0.02  -0.25    -0.02  -0.70  -0.00    -0.19   0.01  -0.04
   5   6     0.11   0.13  -0.05     0.25  -0.04   0.12     0.23  -0.63  -0.04
                      7                      8                      9
                        a                      a                      a 
 Frequencies --  1257.9705              1270.5074              1349.3745
 Red. masses --    12.0107                12.0107                12.0107
 Frc consts  --     0.0000                 0.0000                 0.0000
 IR Inten    --     0.9216                 0.5942                 1.7156
 Raman Activ --     0.0000                 0.0000                 0.0000
 Depolar     --     0.0000                 0.0000                 0.0000
 Atom AN      X      Y      Z        X      Y      Z        X      Y      Z
   1   6     0.40   0.10  -0.08     0.27  -0.22  -0.05    -0.34   0.24   0.07
   2   6    -0.56  -0.04   0.08    -0.00  -0.40   0.16     0.50  -0.11   0.01
   3   6     0.56  -0.07  -0.08     0.01   0.40   0.17     0.50   0.07   0.02
   4   6    -0.01  -0.11  -0.00    -0.57   0.02  -0.23    -0.31   0.01  -0.16
   5   6    -0.38   0.13   0.08     0.29   0.19  -0.05    -0.35  -0.22   0.07
