[Molden Format]
[Title]
[Atoms] AU
C      1     6 -0.32779293403075E+01 -0.36033208896909E+00 -0.76000863094914E+00
O      2     8 -0.12234479802008E+01 -0.13453198221020E+00  0.22781736905092E+00
C      3     6  0.11947198301089E+01  0.13137082671038E+00 -0.21342548119632E+00
C      4     6  0.33066574903895E+01  0.36349135474296E+00  0.74561674309784E+00
[GTO]
           1 0
 s           4   1.0000000000000000     
   51.049363095579913      -0.16312063210127389     
   8.7911227406887544      -0.19911024581000730     
  0.70640422258929825       0.31882047753655751     
  0.26922813413411617       0.12706504184240380     
 p           4   1.0000000000000000     
   5.8263656140800002       0.73716451545209605     
   1.5106896018720002       0.68216371614850257     
  0.53256483288000001       0.35783053929253711     
  0.21202323690600003        5.3983030275847881E-002

           2 0
 s           4   1.0000000000000000     
   69.137961906196551      -0.20478756370077797     
   11.906129132707308      -0.24997023136827334     
  0.95670827744340703       0.40025880240639616     
  0.36462520496073686       0.15952206667693555     
 p           4   1.0000000000000000     
   8.2124193257781641        1.1321556799186829     
   2.1293576997098116        1.0476840782254817     
  0.75066448202360914       0.54956508217158984     
  0.29885246543283073        8.2908486592766617E-002

           3 0
 s           4   1.0000000000000000     
   51.049363095579913      -0.16312063210127389     
   8.7911227406887544      -0.19911024581000730     
  0.70640422258929825       0.31882047753655751     
  0.26922813413411617       0.12706504184240380     
 p           4   1.0000000000000000     
   5.8263656140800002       0.73716451545209605     
   1.5106896018720002       0.68216371614850257     
  0.53256483288000001       0.35783053929253711     
  0.21202323690600003        5.3983030275847881E-002

           4 0
 s           4   1.0000000000000000     
   51.049363095579913      -0.16312063210127389     
   8.7911227406887544      -0.19911024581000730     
  0.70640422258929825       0.31882047753655751     
  0.26922813413411617       0.12706504184240380     
 p           4   1.0000000000000000     
   5.8263656140800002       0.73716451545209605     
   1.5106896018720002       0.68216371614850257     
  0.53256483288000001       0.35783053929253711     
  0.21202323690600003        5.3983030275847881E-002

[MO]
Sym=     1a
Ene=  -0.80945249623405024     
Spin= Alpha
Occup=     2.00000000
           1 -0.24180922152025336     
           2 -0.14784276450749459     
           3  -1.6249613323621556E-002
           4  -6.1405900543575510E-002
           5 -0.73592041260908847     
           6   8.6549570574380355E-002
           7   9.5073105205314909E-003
           8  0.10311082994475815     
           9 -0.11267401713592948     
          10  0.11641448786432197     
          11   1.2799918976755245E-002
          12  -8.1878926613538367E-003
          13  -3.3320314169301324E-003
          14   9.5575587588174610E-003
          15   1.0506017830007885E-003
          16   2.5829597221469569E-003
Sym=     2a
Ene=  -0.75127775444600553     
Spin= Alpha
Occup=     2.00000000
           1  0.30110119339182140     
           2   7.5053262044387226E-002
           3   8.2455666091913061E-003
           4   7.5666490675975168E-002
           5 -0.13708950554528837     
           6 -0.58137851469062518     
           7  -6.3914490119786158E-002
           8  -6.6904611480239504E-002
           9 -0.35259483783865653     
          10  0.15843453078251954     
          11   1.7424992251282252E-002
          12  -7.1375628958463361E-002
          13  -8.4844852812333435E-002
          14   7.1210241454173748E-002
          15   7.8281801576145331E-003
          16   1.3282685539924085E-002
Sym=     3a
Ene=  -0.65276131128615500     
Spin= Alpha
Occup=     2.00000000
           1  0.11587615981925939     
           2  -1.0306320541224875E-002
           3  -1.1396082365103153E-003
           4   8.1382070961945566E-002
           5  -2.9437092299477441E-002
           6 -0.19085817826654008     
           7  -2.0996722788472470E-002
           8  0.16228307582564533     
           9  0.30019911473493288     
          10  0.35392116866982826     
          11   3.8902263432978451E-002
          12  0.12290425026497971     
          13  0.53000256696049430     
          14 -0.15611175308904002     
          15  -1.7158018687718348E-002
          16  -7.1009283681581589E-002
Sym=     4a
Ene=  -0.64850348820360593     
Spin= Alpha
Occup=     2.00000000
           1  0.17375354899313974     
           2   9.7153280535779360E-002
           3   1.0700021221414984E-002
           4 -0.22392957477121689     
           5 -0.27149939141795870     
           6   7.4169058017414358E-002
           7   8.2164853942710680E-003
           8 -0.75214952762783338     
           9  0.20848511799926606     
          10   3.1191372835486397E-002
          11   3.4466750079523482E-003
          12 -0.20986964070416886     
          13   9.7695750540080853E-002
          14  -2.9613643942703504E-002
          15  -3.2505068514038695E-003
          16  -6.5585328265115983E-002
Sym=     5a
Ene=  -0.64164687940388032     
Spin= Alpha
Occup=     2.00000000
           1   1.5232291844478679E-007
           2   3.1768770855443398E-002
           3 -0.28894987170993630     
           4  -2.3699094108406439E-005
           5  -1.4638073269670840E-007
           6   8.8004785751933892E-002
           7 -0.80044088217932163     
           8  -6.5743926242912146E-005
           9   3.5077495994818964E-007
          10   2.9435368011010633E-002
          11 -0.26772410603380176     
          12  -2.1914655970197862E-005
          13   4.2309408927623044E-007
          14   6.7241241214036022E-003
          15  -6.1159589394234944E-002
          16  -5.0830342986179097E-006
Sym=     6a
Ene=  -0.49314243103057831     
Spin= Alpha
Occup=     2.00000000
           1 -0.72505529559036319     
           2  0.46086807022595971     
           3   5.0652355522563725E-002
           4  0.21980627567608299     
           5  0.14280810320311429     
           6 -0.14437459060942773     
           7  -1.5867370083979423E-002
           8  -7.3107419793474265E-002
           9  -1.7724509028463516E-002
          10  0.13384839420558112     
          11   1.4738490105641277E-002
          12 -0.27365369860837829     
          13   7.5881129732742594E-002
          14  0.12518613073365731     
          15   1.3779446265399991E-002
          16 -0.19230256056362507     
Sym=     7a
Ene=  -0.47404426622065832     
Spin= Alpha
Occup=     2.00000000
           1  0.17055976545532622     
           2 -0.23757395527457678     
           3  -2.6133358206741703E-002
           4  0.16335505932585048     
           5  -2.8755421259594939E-002
           6  -3.5436490205075964E-002
           7  -3.9141010365758939E-003
           8  0.22199841422738795     
           9  0.32597411329557507     
          10   7.2003541602015830E-002
          11   7.9503238455370905E-003
          12 -0.41845070784747290     
          13 -0.46053891141501258     
          14 -0.18546223852904384     
          15  -2.0351747744105166E-002
          16 -0.48189140766407385     
Sym=     8a
Ene=  -0.46390266930605772     
Spin= Alpha
Occup=     2.00000000
           1  -1.9639494865805900E-007
           2  -3.4120718769723321E-002
           3  0.31034462990184009     
           4   2.5302509481748866E-005
           5   1.5038874606924285E-008
           6  -2.3100520953532912E-002
           7  0.21010864840242210     
           8   1.7005870638806134E-005
           9  -7.2244022594694985E-008
          10   6.4987803160445834E-002
          11 -0.59109007983907202     
          12  -4.8012688549717927E-005
          13   1.3766702060867579E-007
          14   6.4572253880782721E-002
          15 -0.58730949696153156     
          16  -4.7653916195966248E-005
Sym=     9a
Ene=  -0.42645005173283834     
Spin= Alpha
Occup=     1.00000000
           1 -0.16997262396232185     
           2  0.26760828732455799     
           3   2.9421261381246979E-002
           4   1.1389726825670800E-002
           5 -0.12376487436809359     
           6 -0.15204082615555270     
           7  -1.6705098317283801E-002
           8 -0.13619972545246284     
           9   6.0104573376849754E-002
          10   9.0989459131873132E-002
          11   9.9776908276711374E-003
          12  0.32221681957410564     
          13 -0.47796192947744148     
          14 -0.66918704525649253     
          15  -7.3587619543356839E-002
          16  0.16427336493238670     
Sym=    10a
Ene=  -0.33193848159763090     
Spin= Alpha
Occup=     0.99997409
           1   3.4483792512524952E-002
           2  0.27656893953502176     
           3   3.0473191211824093E-002
           4 -0.80429669331394493     
           5  0.19431774736278506     
           6   1.0806086693413765E-002
           7   1.1629773368275890E-003
           8  0.30730494382735041     
           9 -0.19810629355670872     
          10  0.16149408801845022     
          11   1.7741239898071429E-002
          12  0.17619356702647898     
          13  -8.3406742002984549E-002
          14   4.1955292232457093E-002
          15   4.6487777567948288E-003
          16 -0.44163490164940261     
Sym=    11a
Ene=  -0.31187211871160153     
Spin= Alpha
Occup=     0.00002591
           1   3.2133842811233253E-009
           2  -9.4143504988380908E-002
           3  0.85627527386103008     
           4   6.9899832776913146E-005
           5   4.4825508110584223E-009
           6   4.6860267460251834E-002
           7 -0.42621403989316298     
           8  -3.4796469112633976E-005
           9   1.9167457368944962E-008
          10   1.9979374076767791E-002
          11 -0.18172020227527697     
          12  -1.4838985385899349E-005
          13   8.9113435341371647E-009
          14  -5.2202259982585576E-002
          15  0.47479934335336382     
          16   3.8768502404630775E-005
Sym=    12a
Ene=  -0.22217132056049471     
Spin= Alpha
Occup=     0.00000000
           1   7.8827587890104526E-003
           2 -0.11804352831463226     
           3  -1.3009964284921875E-002
           4  0.38890282252562447     
           5  -3.7696958289364514E-002
           6  0.15512249388407529     
           7   1.7088735804975060E-002
           8 -0.41476265226400505     
           9 -0.26741706080024186     
          10  -5.2068198477019344E-002
          11  -5.7806589692135533E-003
          12  0.68813321130091043     
          13  -2.6791370772418017E-002
          14  0.13824910436015819     
          15   1.5255567698043020E-002
          16 -0.68426660622783086     
Sym=    13a
Ene=  -0.18191493458318631     
Spin= Alpha
Occup=     0.00000000
           1  -2.8432088489805260E-008
           2  -3.8697275150282671E-002
           3  0.35196709435800705     
           4   2.8695215130681568E-005
           5   1.3134684432413154E-007
           6   4.9746188191837980E-002
           7 -0.45246214408185831     
           8  -3.6903720760255782E-005
           9  -1.1506246580029721E-007
          10  -8.7987395292482673E-002
          11  0.80028136503304292     
          12   6.5035843035630145E-005
          13  -1.3411637914876290E-009
          14   7.6651380423706852E-002
          15 -0.69717570063133893     
          16  -5.6652142471530645E-005
Sym=    14a
Ene=    8.4221850049548852E-002
Spin= Alpha
Occup=     0.00000000
           1 -0.26822414540469192     
           2 -0.55500482818384378     
           3  -6.1013698994384302E-002
           4  -8.0843743243092042E-002
           5  0.84871896638812161     
           6  0.26958891542487295     
           7   2.9666634120334920E-002
           8 -0.32320157603150274     
           9 -0.74957411029759236     
          10  0.52067845114899702     
          11   5.7270939074993955E-002
          12 -0.30463584471506416     
          13  0.12704755251081484     
          14 -0.41383857727862133     
          15  -4.5505419811920668E-002
          16   7.0508637617006001E-002
Sym=    15a
Ene=   0.63952105951062432     
Spin= Alpha
Occup=     0.00000000
           1  0.70842437582838180     
           2  0.78321001596033990     
           3   8.6075843374699534E-002
           4  0.42220640731842146     
           5 -0.43450477762377698     
           6  0.98682567326948911     
           7  0.10847093867717485     
           8  0.31925656498529431     
           9 -0.63708615472260732     
          10  0.10701329809424545     
          11   1.1792281297913853E-002
          12 -0.32738223318274184     
          13  0.25187257322773926     
          14 -0.34426295167992282     
          15  -3.7846258155545931E-002
          16  -4.8999426487239747E-002
Sym=    16a
Ene=   0.94819571262923208     
Spin= Alpha
Occup=     0.00000000
           1 -0.18442440086383835     
           2 -0.15332199642638861     
           3  -1.6846417635080328E-002
           4 -0.13021993958704253     
           5 -0.23275824918560456     
           6 -0.50062400798761952     
           7  -5.5049237893436610E-002
           8   9.7162357183571205E-002
           9 -0.55369124176497242     
          10  -1.2409399912441645     
          11 -0.13641145321768036     
          12 -0.30200370383978109     
          13  0.90448536740455798     
          14 -0.82915438839209521     
          15  -9.1125258405605467E-002
          16 -0.45169316736724885     
