$hessian                                                                        
        0.5336131501   0.0582986822   0.2186286073  -0.4375831844  -0.0477533121
       -0.2168850869  -0.0699386662  -0.0073223396   0.0249535471  -0.0260912995
       -0.0032230305  -0.0266970675
        0.0582986822   0.0104750981   0.0240800849  -0.0477827933  -0.0091739458
       -0.0238731443  -0.0072811729  -0.0050684989   0.0026712786  -0.0032347160
        0.0037673466  -0.0028782193
        0.2186286073   0.0240800849   0.1122163798  -0.2068386631  -0.0227807740
       -0.1269857145   0.0085891306   0.0008871676   0.0315678685  -0.0203790748
       -0.0021864785  -0.0167985339
       -0.4375831844  -0.0477827933  -0.2068386631   0.6850787357   0.0750061060
        0.1922693606  -0.1904227883  -0.0212621936   0.0019982387  -0.0570727631
       -0.0059611192   0.0125710639
       -0.0477533121  -0.0091739458  -0.0227807740   0.0750061060   0.0120304642
        0.0211619051  -0.0213321323   0.0017735229   0.0002923491  -0.0059206616
       -0.0046300413   0.0013265198
       -0.2168850869  -0.0238731443  -0.1269857145   0.1922693606   0.0211619051
        0.1698565549   0.0198112524   0.0022234774  -0.0669103809   0.0048044740
        0.0004877618   0.0240395405
       -0.0699386662  -0.0072811729   0.0085891306  -0.1904227883  -0.0213321323
        0.0198112524   0.8681332241   0.0949997873   0.2284022192  -0.6077717697
       -0.0663864820  -0.2568026022
       -0.0073223396  -0.0050684989   0.0008871676  -0.0212621936   0.0017735229
        0.0022234774   0.0949997873   0.0149161489   0.0251713572  -0.0664152541
       -0.0116211729  -0.0282820022
        0.0249535471   0.0026712786   0.0315678685   0.0019982387   0.0002923491
       -0.0669103809   0.2284022192   0.0251713572   0.1670989019  -0.2553540050
       -0.0281349850  -0.1317563895
       -0.0260912995  -0.0032347160  -0.0203790748  -0.0570727631  -0.0059206616
        0.0048044740  -0.6077717697  -0.0664152541  -0.2553540050   0.6909358323
        0.0755706317   0.2709286058
       -0.0032230305   0.0037673466  -0.0021864785  -0.0059611192  -0.0046300413
        0.0004877618  -0.0663864820  -0.0116211729  -0.0281349850   0.0755706317
        0.0124838675   0.0298337017
       -0.0266970675  -0.0028782193  -0.0167985339   0.0125710639   0.0013265198
        0.0240395405  -0.2568026022  -0.0282820022  -0.1317563895   0.2709286058
        0.0298337017   0.1245153829
