      -----------------------------------------------------------      
     |                   =====================                   |     
     |                           x T B                           |     
     |                   =====================                   |     
     |                         S. Grimme                         |     
     |          Mulliken Center for Theoretical Chemistry        |     
     |                    University of Bonn                     |     
      -----------------------------------------------------------      

   * xtb version 6.2.2 (9d81278992624c895f80dd42a50cac0aa55982e2) compiled by '@Darwin' on 04/03/2020

   xtb is free software: you can redistribute it and/or modify it under
   the terms of the GNU Lesser General Public License as published by
   the Free Software Foundation, either version 3 of the License, or
   (at your option) any later version.
   
   xtb is distributed in the hope that it will be useful,
   but WITHOUT ANY WARRANTY; without even the implied warranty of
   MERCHANTABILITY or FITNESS FOR A PARTICULAR PURPOSE.  See the
   GNU Lesser General Public License for more details.
   
   Cite this work as:
   * S. Grimme, C. Bannwarth, P. Shushkov, J. Chem. Theory Comput., 2017,
     13, 1989-2009. DOI: 10.1021/acs.jctc.7b00118
   * C. Bannwarth, S. Ehlert and S. Grimme., J. Chem. Theory Comput., 2019,
     15, 1652-1671. DOI: 10.1021/acs.jctc.8b01176
   * P. Pracht, E. Caldeweyher, S. Ehlert, S. Grimme, ChemRxiv, 2019, preprint.
     DOI: 10.26434/chemrxiv.8326202.v1
   
   for DFT-D4:
   * E. Caldeweyher, C. Bannwarth and S. Grimme, J. Chem. Phys., 2017,
     147, 034112. DOI: 10.1063/1.4993215
   * E. Caldeweyher, S. Ehlert, A. Hansen, H. Neugebauer, S. Spicher,
     C. Bannwarth and S. Grimme, J. Chem. Phys., 2019, 150, 154122.
     DOI: 10.1063/1.5090222
   
   for sTDA-xTB:
   * S. Grimme and C. Bannwarth, J. Chem. Phys., 2016, 145, 054103.
     DOI: 10.1063/1.4959605
   
   in the mass-spec context:
   * V. Asgeirsson, C. Bauer and S. Grimme, Chem. Sci., 2017, 8, 4879.
     DOI: 10.1039/c7sc00601b
   
   for metadynamics refer to:
   * S. Grimme, J. Chem. Theory Comput., 2019, 155, 2847-2862
     DOI: 10.1021/acs.jctc.9b00143
   
   with help from (in alphabetical order)
   C. Bannwarth, F. Bohle, G. Brandenburg, E. Caldeweyher, M. Checinski,
   S. Dohm, S. Ehlert, S. Ehrlich, F. März, H. Neugebauer, J. Pisarek,
   P. Pracht, P. Shushkov, and S. Spicher.
   
 * started run on 2020/05/12 at 11:45:18.140     

           -------------------------------------------------
          |                Calculation Setup                |
           -------------------------------------------------

          program call               : xtb --input C3O1_2_S_2.input C3O1_2_S_2.xyz --ohess --molden --namespace C3O1_2_S_2 output.out
          calculation namespace      : C3O1_2_S_2
          coordinate file            : C3O1_2_S_2.xyz
          number of atoms            :                     4
          number of electrons        :                    18
          charge                     :                     0
          spin                       :                   1.0
          first test random number   :      0.21768170219904

   ID    Z sym.   atoms
    1    6 C      1, 3, 4
    2    8 O      2

           -------------------------------------------------
          |                 G F N 2 - x T B                 |
           -------------------------------------------------

        Reference                      10.1021/acs.jctc.8b01176
      * Hamiltonian:
        H0-scaling (s, p, d)           1.850000    2.230000    2.230000
        zeta-weighting                 0.500000
      * Dispersion:
        s8                             2.700000
        a1                             0.520000
        a2                             5.000000
        s9                             5.000000
      * Repulsion:
        kExp                           1.500000    1.000000
        rExp                           1.000000
      * Coulomb:
        alpha                          2.000000
        third order                    shell-resolved
        anisotropic                    true
        a3                             3.000000
        a5                             4.000000
        cn-shift                       1.200000
        cn-exp                         4.000000
        max-rad                        5.000000


          ...................................................
          :                      SETUP                      :
          :.................................................:
          :  # basis functions                  16          :
          :  # atomic orbitals                  16          :
          :  # shells                            8          :
          :  # electrons                        18          :
          :  max. iterations                   250          :
          :  Hamiltonian                  GFN2-xTB          :
          :  restarted?                      false          :
          :  GBSA solvation                  false          :
          :  PC potential                    false          :
          :  electronic temp.          300.0000000     K    :
          :  accuracy                    1.0000000          :
          :  -> integral cutoff          0.2500000E+02      :
          :  -> integral neglect         0.1000000E-07      :
          :  -> SCF convergence          0.1000000E-05 Eh   :
          :  -> wf. convergence          0.1000000E-03 e    :
          :  Broyden damping             0.4000000          :
          ...................................................

 iter      E             dE          RMSdq      gap      omega  full diag
   1     -9.9292666 -0.992927E+01  0.106E+01    0.29       0.0  T
   2     -8.4316954  0.149757E+01  0.143E+01    0.01       1.0  T
   3     -8.3932968  0.383986E-01  0.127E+01    1.65       1.0  T
   4     -9.4150896 -0.102179E+01  0.962E+00    0.58       1.0  T
   5     -9.9417700 -0.526680E+00  0.440E+00    0.41       1.0  T
   6     -9.9652227 -0.234528E-01  0.373E+00    0.42       1.0  T
   7     -9.9939669 -0.287442E-01  0.280E+00    0.40       1.0  T
   8    -10.0158973 -0.219304E-01  0.144E+00    0.30       1.0  T
   9    -10.0163948 -0.497431E-03  0.122E+00    0.33       1.0  T
  10    -10.0068358  0.955894E-02  0.130E+00    0.25       1.0  T
  11    -10.0133607 -0.652484E-02  0.787E-01    0.26       1.0  T
  12    -10.0172944 -0.393375E-02  0.169E-01    0.29       1.0  T
  13    -10.0172248  0.695956E-04  0.208E-01    0.31       1.0  T
  14    -10.0171297  0.951016E-04  0.229E-01    0.31       1.0  T
  15    -10.0173251 -0.195427E-03  0.912E-02    0.31       1.0  T
  16    -10.0173121  0.130269E-04  0.103E-01    0.31       1.0  T
  17    -10.0173627 -0.505482E-04  0.261E-02    0.30       1.9  T
  18    -10.0173658 -0.313663E-05  0.122E-02    0.30       4.1  T
  19    -10.0173665 -0.695450E-06  0.408E-03    0.30      12.3  T
  20    -10.0173666 -0.610183E-07  0.571E-04    0.30      87.5  T
  21    -10.0173666 -0.146244E-08  0.185E-04    0.30     270.0  T

   *** convergence criteria satisfied after 21 iterations ***

         #    Occupation            Energy/Eh            Energy/eV
      -------------------------------------------------------------
         1        2.0000           -0.8103112             -22.0497
       ...           ...                  ...                  ...
         4        2.0000           -0.6505692             -17.7029
         5        2.0000           -0.6276362             -17.0789
         6        2.0000           -0.5363615             -14.5951
         7        2.0000           -0.5221321             -14.2079
         8        1.9981           -0.4590618             -12.4917
         9        1.0019           -0.4471613             -12.1679
        10        0.9967           -0.3943331             -10.7303 (HOMO)
        11        0.0028           -0.3833440             -10.4313 (LUMO)
        12        0.0005           -0.3817194             -10.3871
        13                         -0.3132363              -8.5236
        14                          0.0084811               0.2308
        15                          0.0627007               1.7062
        16                          0.0966068               2.6288
      -------------------------------------------------------------
                  HL-Gap            0.0109890 Eh            0.2990 eV
             Fermi-level           -0.4210147 Eh          -11.4564 eV

 transition dipole moment (au) for excitation:           9          10
     X       Y       Z   
   0.7094   0.0780  -0.0148  total (au/Debye):    0.714   1.814
 dE (eV)             :    1.438
 oscillator strength :  0.25379E-01

 SCC (total)                   0 d,  0 h,  0 min,  0.005 sec
 SCC setup                      ...        0 min,  0.000 sec (  1.866%)
 Dispersion                     ...        0 min,  0.000 sec (  0.309%)
 integral evaluation            ...        0 min,  0.001 sec ( 21.019%)
 zeroth order Hamiltonian       ...        0 min,  0.000 sec (  0.365%)
 iterations                     ...        0 min,  0.002 sec ( 40.172%)
 molecular gradient             ...        0 min,  0.001 sec ( 20.151%)
 printout                       ...        0 min,  0.001 sec ( 15.888%)

         :::::::::::::::::::::::::::::::::::::::::::::::::::::
         ::                     SUMMARY                     ::
         :::::::::::::::::::::::::::::::::::::::::::::::::::::
         :: total energy              -9.985902927060 Eh    ::
         :: gradient norm              0.314962765552 Eh/a0 ::
         :: HOMO-LUMO gap              0.299027162497 eV    ::
         ::.................................................::
         :: SCC energy               -10.017366561833 Eh    ::
         :: -> isotropic ES           -0.023396706163 Eh    ::
         :: -> anisotropic ES          0.001740925570 Eh    ::
         :: -> anisotropic XC          0.003589840819 Eh    ::
         :: -> dispersion             -0.001689000814 Eh    ::
         :: repulsion energy           0.031463690492 Eh    ::
         :: add. restraining           0.000000000000 Eh    ::
         :::::::::::::::::::::::::::::::::::::::::::::::::::::

      ----------------------------------------------------------- 
     |                   =====================                   |
     |                        A N C O P T                        |
     |                   =====================                   |
     |               Approximate Normal Coordinate               |
     |                Rational Function Optimizer                |
      ----------------------------------------------------------- 

          ...................................................
          :                      SETUP                      :
          :.................................................:
          :   optimization level            normal          :
          :   max. optcycles                   200          :
          :   ANC micro-cycles                  20          :
          :   degrees of freedom                 6          :
          :.................................................:
          :   RF solver                   davidson          :
          :   write xtbopt.log                true          :
          :   linear?                        false          :
          :   energy convergence         0.5000000E-05 Eh   :
          :   grad. convergence          0.1000000E-02 Eh/α :
          :   maximium RF displ.         1.0000000          :
          :   Hlow (freq-cutoff)         0.1000000E-01      :
          :   Hmax (freq-cutoff)         5.0000000          :
          :   S6 in model hess.         20.0000000          :
          ...................................................

generating ANC from model Hessian ...
Using Lindh-Hessian (1995)
 Shifting diagonal of input Hessian by    4.0831785114773915E-004
 Lowest  eigenvalues of input Hessian
   -0.000000   -0.000000   -0.000000    0.000000    0.000000    0.000000
    0.010000    0.075796    0.149634    0.834673    1.125418    1.334126
 Highest eigenvalues
    0.010000    0.075796    0.149634    0.834673    1.125418    1.334126


........................................................................
.............................. CYCLE    1 ..............................
........................................................................
   1    -10.0173666 -0.100174E+02  0.711E-05    0.30       0.0  T
   2    -10.0173666  0.124769E-08  0.405E-04    0.30     123.5  T
   3    -10.0173666 -0.106757E-08  0.169E-04    0.30     295.6  T
     SCC iter.                  ...        0 min,  0.000 sec
     gradient                   ...        0 min,  0.001 sec
 * total energy  :    -9.9859029 Eh     change        0.3849401E-09 Eh
   gradient norm :     0.3149637 Eh/α   predicted     0.0000000E+00 (-100.00%)
   displ. norm   :     0.3320956 α      lambda       -0.9976055E-01
   maximum displ.:     0.2842315 α      in ANC's #4, #3, #5, ...

........................................................................
.............................. CYCLE    2 ..............................
........................................................................
   1    -10.1352835 -0.101353E+02  0.266E+00    0.74       0.0  T
   2    -10.0733854  0.618982E-01  0.366E+00    0.77       1.0  T
   3    -10.1341789 -0.607935E-01  0.180E+00    0.71       1.0  T
   4    -10.1268036  0.737528E-02  0.162E+00    0.74       1.0  T
   5    -10.1462178 -0.194142E-01  0.367E-01    0.71       1.0  T
   6    -10.1469135 -0.695734E-03  0.194E-01    0.71       1.0  T
   7    -10.1469361 -0.225795E-04  0.905E-02    0.71       1.0  T
   8    -10.1469966 -0.604559E-04  0.176E-02    0.71       2.8  T
   9    -10.1469974 -0.800873E-06  0.229E-03    0.71      21.8  T
  10    -10.1469974 -0.332843E-08  0.877E-04    0.71      57.0  T
  11    -10.1469974 -0.333519E-08  0.998E-05    0.71     501.0  T
     SCC iter.                  ...        0 min,  0.001 sec
     gradient                   ...        0 min,  0.001 sec
 * total energy  :   -10.0719783 Eh     change       -0.8607533E-01 Eh
   gradient norm :     0.2082869 Eh/α   predicted    -0.5538146E-01 ( -35.66%)
   displ. norm   :     0.4840859 α      lambda       -0.9703112E-01
   maximum displ.:     0.4005828 α      in ANC's #4, #5, #6, ...

........................................................................
.............................. CYCLE    3 ..............................
........................................................................
   1    -10.3403321 -0.103403E+02  0.355E+00    1.11       0.0  T
   2    -10.3381790  0.215313E-02  0.241E+00    1.02       1.0  T
   3    -10.3015816  0.365974E-01  0.276E+00    1.07       1.0  T
   4    -10.3376101 -0.360285E-01  0.114E+00    0.96       1.0  T
   5    -10.3468208 -0.921065E-02  0.193E-01    1.01       1.0  T
   6    -10.3468771 -0.562788E-04  0.133E-01    1.01       1.0  T
   7    -10.3468852 -0.817925E-05  0.241E-02    1.01       2.1  T
   8    -10.3468885 -0.321305E-05  0.861E-03    1.01       5.8  T
   9    -10.3468886 -0.152192E-06  0.173E-03    1.01      28.9  T
  10    -10.3468886 -0.506722E-08  0.810E-04    1.01      61.8  T
  11    -10.3468886 -0.288343E-08  0.695E-05    1.01     719.7  T
     SCC iter.                  ...        0 min,  0.001 sec
     gradient                   ...        0 min,  0.001 sec
 * total energy  :   -10.0566553 Eh     change        0.1532299E-01 Eh
   gradient norm :     0.5664007 Eh/α   predicted    -0.5988465E-01 (-490.82%)
   displ. norm   :     0.2951610 α      lambda       -0.1428713E+00
   maximum displ.:     0.1991356 α      in ANC's #4, #3, #2, ...

........................................................................
.............................. CYCLE    4 ..............................
........................................................................
   1    -10.2292229 -0.102292E+02  0.145E+00    0.86       0.0  T
   2    -10.2289459  0.276989E-03  0.100E+00    0.85       1.0  T
   3    -10.2265006  0.244522E-02  0.970E-01    0.88       1.0  T
   4    -10.2290734 -0.257277E-02  0.303E-01    0.87       1.0  T
   5    -10.2298349 -0.761450E-03  0.125E-01    0.87       1.0  T
   6    -10.2298164  0.184390E-04  0.817E-02    0.87       1.0  T
   7    -10.2298615 -0.451059E-04  0.103E-02    0.87       4.9  T
   8    -10.2298621 -0.561476E-06  0.433E-03    0.87      11.5  T
   9    -10.2298622 -0.130214E-06  0.262E-04    0.87     190.8  T
  10    -10.2298622 -0.309401E-09  0.105E-04    0.87     475.6  T
     SCC iter.                  ...        0 min,  0.001 sec
     gradient                   ...        0 min,  0.001 sec
 * total energy  :   -10.1050543 Eh     change       -0.4839903E-01 Eh
   gradient norm :     0.0814018 Eh/α   predicted    -0.7765912E-01 (  60.46%)
   displ. norm   :     0.1885902 α      lambda       -0.6719531E-02
   maximum displ.:     0.1798171 α      in ANC's #2, #3, #6, ...

........................................................................
.............................. CYCLE    5 ..............................
........................................................................
   1    -10.2322005 -0.102322E+02  0.102E+00    0.73       0.0  T
   2    -10.2321590  0.414879E-04  0.653E-01    0.75       1.0  T
   3    -10.2287905  0.336852E-02  0.683E-01    0.74       1.0  T
   4    -10.2317501 -0.295963E-02  0.467E-01    0.74       1.0  T
   5    -10.2327755 -0.102538E-02  0.163E-01    0.75       1.0  T
   6    -10.2329038 -0.128280E-03  0.398E-02    0.74       1.3  T
   7    -10.2329075 -0.369076E-05  0.501E-03    0.74      10.0  T
   8    -10.2329076 -0.166113E-06  0.182E-03    0.74      27.5  T
   9    -10.2329076 -0.480506E-08  0.163E-04    0.74     307.1  T
  10    -10.2329076 -0.503810E-10  0.720E-05    0.74     694.8  T
     SCC iter.                  ...        0 min,  0.001 sec
     gradient                   ...        0 min,  0.001 sec
 * total energy  :   -10.1078044 Eh     change       -0.2750081E-02 Eh
   gradient norm :     0.0524037 Eh/α   predicted    -0.3479257E-02 (  26.51%)
   displ. norm   :     0.0742264 α      lambda       -0.3107175E-02
   maximum displ.:     0.0474222 α      in ANC's #4, #5, #3, ...

........................................................................
.............................. CYCLE    6 ..............................
........................................................................
   1    -10.2484242 -0.102484E+02  0.506E-01    0.71       0.0  T
   2    -10.2483606  0.636370E-04  0.391E-01    0.70       1.0  T
   3    -10.2482155  0.145051E-03  0.328E-01    0.70       1.0  T
   4    -10.2482601 -0.445722E-04  0.226E-01    0.70       1.0  T
   5    -10.2485489 -0.288838E-03  0.109E-01    0.70       1.0  T
   6    -10.2486571 -0.108123E-03  0.170E-02    0.70       2.9  T
   7    -10.2486571 -0.737389E-07  0.512E-03    0.70       9.8  T
   8    -10.2486573 -0.195347E-06  0.599E-04    0.70      83.5  T
   9    -10.2486573 -0.372857E-10  0.949E-05    0.70     527.1  T
     SCC iter.                  ...        0 min,  0.001 sec
     gradient                   ...        0 min,  0.001 sec
 * total energy  :   -10.1098798 Eh     change       -0.2075445E-02 Eh
   gradient norm :     0.0247157 Eh/α   predicted    -0.1562146E-02 ( -24.73%)
   displ. norm   :     0.0522093 α      lambda       -0.1119276E-02
   maximum displ.:     0.0410327 α      in ANC's #5, #4, #6, ...

........................................................................
.............................. CYCLE    7 ..............................
........................................................................
   1    -10.2560032 -0.102560E+02  0.403E-01    0.64       0.0  T
   2    -10.2558190  0.184205E-03  0.400E-01    0.64       1.0  T
   3    -10.2562299 -0.410891E-03  0.204E-01    0.63       1.0  T
   4    -10.2560478  0.182067E-03  0.207E-01    0.63       1.0  T
   5    -10.2563212 -0.273392E-03  0.761E-02    0.63       1.0  T
   6    -10.2563685 -0.473152E-04  0.885E-03    0.63       5.6  T
   7    -10.2563685 -0.127778E-07  0.301E-03    0.63      16.6  T
   8    -10.2563686 -0.650299E-07  0.456E-04    0.63     109.6  T
   9    -10.2563686 -0.336158E-10  0.518E-05    0.63     965.8  T
     SCC iter.                  ...        0 min,  0.001 sec
     gradient                   ...        0 min,  0.001 sec
 * total energy  :   -10.1105672 Eh     change       -0.6873504E-03 Eh
   gradient norm :     0.0178906 Eh/α   predicted    -0.5611630E-03 ( -18.36%)
   displ. norm   :     0.0397406 α      lambda       -0.3356764E-03
   maximum displ.:     0.0255047 α      in ANC's #3, #5, #6, ...

........................................................................
.............................. CYCLE    8 ..............................
........................................................................
   1    -10.2559282 -0.102559E+02  0.241E-01    0.57       0.0  T
   2    -10.2559143  0.138274E-04  0.187E-01    0.57       1.0  T
   3    -10.2559442 -0.298316E-04  0.127E-01    0.57       1.0  T
   4    -10.2558902  0.539821E-04  0.965E-02    0.57       1.0  T
   5    -10.2559730 -0.828484E-04  0.201E-02    0.57       2.5  T
   6    -10.2559763 -0.326909E-05  0.420E-03    0.57      11.9  T
   7    -10.2559763 -0.922791E-08  0.547E-04    0.57      91.4  T
   8    -10.2559763 -0.851969E-09  0.238E-04    0.57     210.5  T
     SCC iter.                  ...        0 min,  0.001 sec
     gradient                   ...        0 min,  0.001 sec
 * total energy  :   -10.1107801 Eh     change       -0.2129592E-03 Eh
   gradient norm :     0.0090870 Eh/α   predicted    -0.1681038E-03 ( -21.06%)
   displ. norm   :     0.0116381 α      lambda       -0.5651323E-04
   maximum displ.:     0.0070229 α      in ANC's #3, #6, #5, ...

........................................................................
.............................. CYCLE    9 ..............................
........................................................................
   1    -10.2543710 -0.102544E+02  0.678E-02    0.55       0.0  T
   2    -10.2543688  0.216145E-05  0.573E-02    0.55       1.0  T
   3    -10.2543744 -0.558976E-05  0.346E-02    0.55       1.4  T
   4    -10.2543631  0.113053E-04  0.380E-02    0.55       1.3  T
   5    -10.2543764 -0.132820E-04  0.364E-03    0.55      13.7  T
   6    -10.2543765 -0.115453E-06  0.694E-04    0.55      72.0  T
   7    -10.2543765 -0.237758E-09  0.555E-05    0.55     901.1  T
     SCC iter.                  ...        0 min,  0.001 sec
     gradient                   ...        0 min,  0.001 sec
 * total energy  :   -10.1108107 Eh     change       -0.3055019E-04 Eh
   gradient norm :     0.0014615 Eh/α   predicted    -0.2825870E-04 (  -7.50%)
   displ. norm   :     0.0027817 α      lambda       -0.1746935E-05
   maximum displ.:     0.0020107 α      in ANC's #2, #5, #4, ...

........................................................................
.............................. CYCLE   10 ..............................
........................................................................
   1    -10.2537581 -0.102538E+02  0.178E-02    0.55       0.0  T
   2    -10.2537577  0.383333E-06  0.146E-02    0.55       3.4  T
   3    -10.2537572  0.474833E-06  0.142E-02    0.55       3.5  T
   4    -10.2537582 -0.100745E-05  0.586E-03    0.55       8.5  T
   5    -10.2537583 -0.697220E-07  0.361E-03    0.55      13.8  T
   6    -10.2537584 -0.114551E-06  0.493E-04    0.55     101.4  T
   7    -10.2537584 -0.141737E-09  0.439E-05    0.55    1139.5  T
     SCC iter.                  ...        0 min,  0.001 sec
     gradient                   ...        0 min,  0.001 sec
 * total energy  :   -10.1108118 Eh     change       -0.1112039E-05 Eh
   gradient norm :     0.0005495 Eh/α   predicted    -0.8749298E-06 ( -21.32%)
   displ. norm   :     0.0017145 α      lambda       -0.2790003E-06
   maximum displ.:     0.0013160 α      in ANC's #3, #2, #5, ...

   *** GEOMETRY OPTIMIZATION CONVERGED AFTER 10 ITERATIONS ***

------------------------------------------------------------------------
 total energy gain   :        -0.1249089 Eh      -78.3815 kcal/mol
 total RMSD          :         0.4180991 a0        0.2212 Å
 total power (kW/mol):       -32.7948177 (step)********** (real)
------------------------------------------------------------------------

 ANCopt (total)                0 d,  0 h,  0 min,  0.030 sec
 optimizer setup                ...        0 min,  0.000 sec (  0.249%)
 model hessian                  ...        0 min,  0.000 sec (  0.252%)
 ANC generation                 ...        0 min,  0.000 sec (  0.166%)
 coordinate transformation      ...        0 min,  0.000 sec (  0.085%)
 single point calculation       ...        0 min,  0.029 sec ( 96.356%)
 optimization log               ...        0 min,  0.000 sec (  0.778%)
 hessian update                 ...        0 min,  0.000 sec (  0.083%)
 rational function              ...        0 min,  0.000 sec (  0.780%)

================
 final structure:
================
4
 xtb: 6.2.2 (9d81278992624c895f80dd42a50cac0aa55982e2)
C        -1.73460326447685   -0.19068792795603   -0.40218567262594
O        -0.64742089796479   -0.07119486602049    0.12055338695195
C         0.63221859638904    0.06952196152363   -0.11293758315658
C         1.74980556605260    0.19235983245289    0.39456986883056

 Bond Distances (Angstroems)
 ---------------------------
C1-O2=1.2122         O2-C1=1.2122         O2-C3=1.3084         C3-O2=1.3084         C3-C4=1.2336         C4-C3=1.2336         
 C  C  Rav=1.2336 sigma=0.0000  Rmin=1.2336  Rmax=1.2336     1
 O  C  Rav=1.2603 sigma=0.0481  Rmin=1.2122  Rmax=1.3084     2

 selected bond angles (degree)
 --------------------
C3-O2-C1=144.17                C4-C3-O2=145.43                

 selected dihedral angles (degree)
 ---------------------------------
C4-C3-O2-C1=180.00            
           -------------------------------------------------
          |                Final Singlepoint                |
           -------------------------------------------------

          ...................................................
          :                      SETUP                      :
          :.................................................:
          :  # basis functions                  16          :
          :  # atomic orbitals                  16          :
          :  # shells                            8          :
          :  # electrons                        18          :
          :  max. iterations                   250          :
          :  Hamiltonian                  GFN2-xTB          :
          :  restarted?                      false          :
          :  GBSA solvation                  false          :
          :  PC potential                    false          :
          :  electronic temp.          300.0000000     K    :
          :  accuracy                    1.0000000          :
          :  -> integral cutoff          0.2500000E+02      :
          :  -> integral neglect         0.1000000E-07      :
          :  -> SCF convergence          0.1000000E-05 Eh   :
          :  -> wf. convergence          0.1000000E-03 e    :
          :  Broyden damping             0.4000000          :
          ...................................................

 iter      E             dE          RMSdq      gap      omega  full diag
   1    -10.2537584 -0.102538E+02  0.114E-05    0.55       0.0  T
   2    -10.2537584  0.302691E-11  0.216E-05    0.55    2314.0  T
   3    -10.2537584 -0.360423E-11  0.531E-06    0.55    9413.3  T

   *** convergence criteria satisfied after 3 iterations ***

         #    Occupation            Energy/Eh            Energy/eV
      -------------------------------------------------------------
         1        2.0000           -0.8094524             -22.0263
       ...           ...                  ...                  ...
         4        2.0000           -0.6485034             -17.6467
         5        2.0000           -0.6416468             -17.4601
         6        2.0000           -0.4931423             -13.4191
         7        2.0000           -0.4740444             -12.8994
         8        2.0000           -0.4639028             -12.6234
         9        1.0000           -0.4264502             -11.6043
        10        1.0000           -0.3319383              -9.0325 (HOMO)
        11        0.0000           -0.3118720              -8.4865 (LUMO)
        12                         -0.2221714              -6.0456
        13                         -0.1819150              -4.9502
        14                          0.0842219               2.2918
        15                          0.6395212              17.4023
        16                          0.9481956              25.8017
      -------------------------------------------------------------
                  HL-Gap            0.0200664 Eh            0.5460 eV
             Fermi-level           -0.3835408 Eh          -10.4367 eV

 transition dipole moment (au) for excitation:           9          10
     X       Y       Z   
   0.3473   0.0382  -0.0494  total (au/Debye):    0.353   0.897
 dE (eV)             :    2.572
 oscillator strength :  0.11094E-01

 SCC (total)                   0 d,  0 h,  0 min,  0.003 sec
 SCC setup                      ...        0 min,  0.000 sec (  1.477%)
 Dispersion                     ...        0 min,  0.000 sec (  0.318%)
 integral evaluation            ...        0 min,  0.001 sec ( 31.178%)
 zeroth order Hamiltonian       ...        0 min,  0.000 sec (  0.400%)
 iterations                     ...        0 min,  0.001 sec ( 14.826%)
 molecular gradient             ...        0 min,  0.001 sec ( 29.017%)
 printout                       ...        0 min,  0.001 sec ( 22.529%)

         :::::::::::::::::::::::::::::::::::::::::::::::::::::
         ::                     SUMMARY                     ::
         :::::::::::::::::::::::::::::::::::::::::::::::::::::
         :: total energy             -10.110811790966 Eh    ::
         :: gradient norm              0.000549914312 Eh/a0 ::
         :: HOMO-LUMO gap              0.546033480246 eV    ::
         ::.................................................::
         :: SCC energy               -10.253758393505 Eh    ::
         :: -> isotropic ES           -0.009834411681 Eh    ::
         :: -> anisotropic ES          0.003425320071 Eh    ::
         :: -> anisotropic XC          0.001801143934 Eh    ::
         :: -> dispersion             -0.001677809839 Eh    ::
         :: repulsion energy           0.142946670996 Eh    ::
         :: add. restraining           0.000000000000 Eh    ::
         :::::::::::::::::::::::::::::::::::::::::::::::::::::

           ------------------------------------------------- 
          |                Numerical Hessian                |
           ------------------------------------------------- 
step length          :   0.00500
SCC accuracy         :   0.30000
Hessian scale factor :   1.00000
frozen atoms in %    :   0.00000    0
RMS gradient         :   0.00055
estimated CPU  time      0.00 min
estimated wall time      0.00 min

writing file <hessian>.

 projected vibrational frequencies (cm-1)
eigval :       -0.00    -0.00    -0.00     0.00     0.00     0.00
eigval :      184.81   252.77   485.86   873.47  1536.37  1884.21
           -------------------------------------------------
          |                Property Printout                |
           -------------------------------------------------

    * Orbital Energies and Occupations

         #    Occupation            Energy/Eh            Energy/eV
      -------------------------------------------------------------
         1        2.0000           -0.8094525             -22.0263
         2        2.0000           -0.7512778             -20.4433
         3        2.0000           -0.6527613             -17.7625
         4        2.0000           -0.6485035             -17.6467
         5        2.0000           -0.6416469             -17.4601
         6        2.0000           -0.4931424             -13.4191
         7        2.0000           -0.4740443             -12.8994
         8        2.0000           -0.4639027             -12.6234
         9        1.0000           -0.4264501             -11.6043
        10        1.0000           -0.3319385              -9.0325 (HOMO)
        11        0.0000           -0.3118721              -8.4865 (LUMO)
        12                         -0.2221713              -6.0456
        13                         -0.1819149              -4.9502
        14                          0.0842219               2.2918
        15                          0.6395211              17.4023
        16                          0.9481957              25.8017
Molecule has the following symmetry elements: (sigma) 
It seems to be the Cs point group
      -------------------------------------------------------------
                  HL-Gap            0.0200664 Eh            0.5460 eV
             Fermi-level           -0.3835408 Eh          -10.4367 eV

     #   Z        covCN         q      C6AA      α(0)
     1   6 C      0.872    -0.076    37.531    10.232
     2   8 O      1.711     0.082    13.469     4.955
     3   6 C      1.852     0.091    28.867     8.679
     4   6 C      0.981    -0.097    38.986    10.487

 Mol. C6AA /au·bohr⁶  :        456.024902
 Mol. C8AA /au·bohr⁸  :      12462.694559
 Mol. α(0) /au        :         34.353098


Wiberg/Mayer (AO) data.
largest (>0.10) Wiberg bond orders for each atom
          total WBO             WBO to atom ...
     1  C   2.012        O    2 1.670    C    4 0.195    C    3 0.147
     2  O   2.803        C    1 1.670    C    3 1.067
     3  C   3.627        C    4 2.414    O    2 1.067    C    1 0.147
     4  C   2.675        C    3 2.414    C    1 0.195

MOs/occ written to file <molden.input>


molecular dipole:
                 x           y           z       tot (Debye)
 q only:       -0.061      -0.007      -0.015
   full:        0.197       0.022       0.004       0.503
molecular quadrupole (traceless):
                xx          xy          yy          xz          yz          zz
 q only:       -1.571      -0.268       0.838      -0.712      -0.078       0.733
  q+dip:       -3.627      -0.632       2.051      -1.669      -0.183       1.576
   full:       -5.136      -0.951       3.413      -2.784      -0.306       1.723

           -------------------------------------------------
          |                Geometry Summary                 |
           -------------------------------------------------

      molecular mass/u    :       52.0316126
   center of mass at/Å    :       -0.0496304      -0.0054577       0.0092416
  moments of inertia/u·Å² :        0.1620021E+01   0.8788461E+02   0.8950464E+02
rotational constants/cm⁻¹ :        0.1040581E+02   0.1918155E+00   0.1883437E+00

 * 3 selected distances

     #   Z        #   Z                                     value/Å
     1   6 C      2   8 O                                 1.2122294 (min)
     2   8 O      3   6 C                                 1.3083564 (max)
     3   6 C      4   6 C                                 1.2335532

 * 2 distinct bonds (by element types)

   Z      Z             #   av. dist./Å        max./Å        min./Å
   6 C    6 C           1     1.2335532     1.2335532     1.2335532
   6 C    8 O           2     1.2602929     1.3083564     1.2122294

           -------------------------------------------------
          |               Frequency Printout                |
           -------------------------------------------------
 projected vibrational frequencies (cm-1)
eigval :       -0.00    -0.00    -0.00     0.00     0.00     0.00
eigval :      184.81   252.77   485.86   873.47  1536.37  1884.21
 reduced masses (amu)
   1: 12.24   2: 12.82   3: 12.82   4: 14.48   5: 13.45   6: 12.23   7: 12.74   8: 12.98
   9: 13.29  10: 13.16  11: 13.83  12: 12.05
 IR intensities (amu)
   1:  0.04   2:  0.06   3:  0.03   4:  0.03   5:  0.02   6:  0.03   7:  0.34   8:  0.25
   9:  0.31  10:  0.17  11:  1.17  12:  1.27
 Raman intensities (amu)
   1:  0.00   2:  0.00   3:  0.00   4:  0.00   5:  0.00   6:  0.00   7:  0.00   8:  0.00
   9:  0.00  10:  0.00  11:  0.00  12:  0.00
 output can be read by thermo (or use thermo option).
 writing <g98.out> molden fake output.
 recommended (thermochemical) frequency scaling factor: 1.0
           -------------------------------------------------
          |             Thermodynamic Functions             |
           -------------------------------------------------

cs  symmetry found (for desy threshold:  0.10E+00) used in thermo

          ...................................................
          :                      SETUP                      :
          :.................................................:
          :  # frequencies                           6      :
          :  # imaginary freq.                       0      :
          :  linear?                             false      :
          :  only rotor calc.                    false      :
          :  symmetry                               cs      :
          :  rotational number                       1      :
          :  scaling factor                  1.0000000      :
          :  rotor cutoff                   50.0000000 cm⁻¹ :
          :  imag. cutoff                  -20.0000000 cm⁻¹ :
          :.................................................:

    mode    ω/cm⁻¹     T·S(HO)/kcal·mol⁻¹    T·S(FR)/kcal·mol⁻¹   T·S(vib)
   ------------------------------------------------------------------------
       1    184.81    -0.00000 ( 99.47%)     0.01130 (  0.53%)     0.00006
       2    252.77    -0.00000 ( 99.85%)     0.01441 (  0.15%)     0.00002
   ------------------------------------------------------------------------

   temp. (K)  partition function   enthalpy   heat capacity  entropy
                                   cal/mol     cal/K/mol   cal/K/mol   J/K/mol
 298.15  VIB   2.70                  857.930      5.522      4.853
         ROT  0.862E+04              888.752      2.981     20.990
         INT  0.233E+05             1746.682      8.503     25.843
         TR   0.363E+27             1481.254      4.968     37.753
         TOT                        3227.9361    13.4710    63.5962   266.0863

   temp. (K)  partition function   enthalpy   heat capacity  entropy
                                   cal/mol     cal/K/mol   cal/K/mol   J/K/mol
 120.00  VIB   1.18                  105.536      2.520      1.217
         ROT  0.220E+04              357.707      2.981     18.277
         INT  0.260E+04              463.243      5.501     19.494
         TR   0.927E+26              596.178      4.968     33.234
         TOT                        1059.4210    10.4691    52.7284   220.6157

   temp. (K)  partition function   enthalpy   heat capacity  entropy
                                   cal/mol     cal/K/mol   cal/K/mol   J/K/mol
 100.00  VIB   1.11                   60.623      1.958      0.810
         ROT  0.168E+04              298.089      2.981     17.734
         INT  0.185E+04              358.712      4.939     18.543
         TR   0.705E+26              496.815      4.968     32.329
         TOT                         855.5274     9.9074    50.8719   212.8479

   temp. (K)  partition function   enthalpy   heat capacity  entropy
                                   cal/mol     cal/K/mol   cal/K/mol   J/K/mol
  80.00  VIB   1.05                   27.717      1.320      0.445
         ROT  0.120E+04              238.471      2.981     17.068
         INT  0.126E+04              266.189      4.301     17.513
         TR   0.505E+26              397.452      4.968     31.221
         TOT                         663.6406     9.2695    48.7340   203.9030

   temp. (K)  partition function   enthalpy   heat capacity  entropy
                                   cal/mol     cal/K/mol   cal/K/mol   J/K/mol
  60.00  VIB   1.01                    8.062      0.649      0.166
         ROT   778.                  178.853      2.981     16.211
         INT   790.                  186.916      3.630     16.377
         TR   0.328E+26              298.089      4.968     29.792
         TOT                         485.0047     8.5979    46.1690   193.1709

   temp. (K)  partition function   enthalpy   heat capacity  entropy
                                   cal/mol     cal/K/mol   cal/K/mol   J/K/mol
  40.00  VIB   1.00                    0.768      0.133      0.023
         ROT   424.                  119.236      2.981     15.002
         INT   424.                  120.003      3.114     15.025
         TR   0.178E+26              198.726      4.968     27.779
         TOT                         318.7294     8.0818    42.8039   179.0915

   temp. (K)  partition function   enthalpy   heat capacity  entropy
                                   cal/mol     cal/K/mol   cal/K/mol   J/K/mol
  20.00  VIB   1.00                    0.001      0.001     -0.004
         ROT   150.                   59.618      2.981     12.936
         INT   150.                   59.619      2.981     12.932
         TR   0.631E+25               99.363      4.968     24.337
         TOT                         158.9817     7.9496    37.2691   155.9338

   temp. (K)  partition function   enthalpy   heat capacity  entropy
                                   cal/mol     cal/K/mol   cal/K/mol   J/K/mol
  10.00  VIB   1.00                    0.000      0.000     -0.008
         ROT   53.0                   29.809      2.981     10.870
         INT   53.0                   29.809      2.981     10.861
         TR   0.223E+25               49.681      4.968     20.895
         TOT                          79.4904     7.9490    31.7560   132.8673

       T/K    H(0)-H(T)+PV         H(T)/Eh          T*S/Eh         G(T)/Eh
   ------------------------------------------------------------------------
    298.15    0.514404E-02    0.170304E-01    0.302166E-01   -0.131862E-01
    120.00    0.168829E-02    0.135746E-01    0.100834E-01    0.349123E-02
    100.00    0.136337E-02    0.132497E-01    0.810695E-02    0.514273E-02
     80.00    0.105758E-02    0.129439E-01    0.621300E-02    0.673088E-02
     60.00    0.772904E-03    0.126592E-01    0.441450E-02    0.824472E-02
     40.00    0.507928E-03    0.123942E-01    0.272849E-02    0.966574E-02
     20.00    0.253353E-03    0.121397E-01    0.118784E-02    0.109518E-01
     10.00    0.126676E-03    0.120130E-01    0.506065E-03    0.115069E-01 (used)
   ------------------------------------------------------------------------

         :::::::::::::::::::::::::::::::::::::::::::::::::::::
         ::                  THERMODYNAMIC                  ::
         :::::::::::::::::::::::::::::::::::::::::::::::::::::
         :: total free energy         -10.099304872843 Eh   ::
         ::.................................................::
         :: total energy              -10.110811790978 Eh   ::
         :: zero point energy           0.011886306900 Eh   ::
         :: G(RRHO) w/o ZPVE           -0.000379388766 Eh   ::
         :: G(RRHO) contrib.            0.011506918134 Eh   ::
         :::::::::::::::::::::::::::::::::::::::::::::::::::::

optimized geometry written to: xtbopt.xyz


           -------------------------------------------------
          | TOTAL ENERGY              -10.110811790978 Eh   |
          | TOTAL ENTHALPY            -10.098798808062 Eh   |
          | TOTAL FREE ENERGY         -10.099304872843 Eh   |
          | GRADIENT NORM               0.000550173325 Eh/α |
          | HOMO-LUMO GAP               0.546033527045 eV   |
           -------------------------------------------------

------------------------------------------------------------------------
 * finished run on 2020/05/12 at 11:45:18.265     
------------------------------------------------------------------------
 total:
 * wall-time:     0 d,  0 h,  0 min,  0.124 sec
 *  cpu-time:     0 d,  0 h,  0 min,  0.124 sec
 * ratio c/w:     0.999 speedup
 SCF:
 * wall-time:     0 d,  0 h,  0 min,  0.005 sec
 *  cpu-time:     0 d,  0 h,  0 min,  0.005 sec
 * ratio c/w:     1.000 speedup
 ANC optimizer:
 * wall-time:     0 d,  0 h,  0 min,  0.034 sec
 *  cpu-time:     0 d,  0 h,  0 min,  0.034 sec
 * ratio c/w:     1.000 speedup
 numerical hessian:
 * wall-time:     0 d,  0 h,  0 min,  0.067 sec
 *  cpu-time:     0 d,  0 h,  0 min,  0.067 sec
 * ratio c/w:     0.999 speedup

