4
 energy: -10.110811790966 gnorm: 0.000549914312 xtb: 6.2.2 (9d81278992624c895f80dd42a50cac0aa55982e2)
C        -1.73460566677751   -0.19067954753074   -0.40217928490202
O        -0.64742084991517   -0.07119126572836    0.12055577113477
C         0.63221856616467    0.06951845412254   -0.11293991135365
C         1.74980795052278    0.19235135913657    0.39456342512264
