5
 energy: -10.918220360586 gnorm: 0.268168954523 xtb: 6.2.2 (9d81278992624c895f80dd42a50cac0aa55982e2)
N        -0.37687900000000   -1.06487700000000    0.15054600000000
C         0.50316800000000    0.03996600000000    0.50532000000000
C        -0.48397000000000    1.08231300000000    0.03941300000000
C         1.72463900000000    0.03759400000000   -0.39730300000000
C        -1.36695800000000   -0.09499600000000   -0.29797500000000
5
 energy: -10.998507980835 gnorm: 0.167458060426 xtb: 6.2.2 (9d81278992624c895f80dd42a50cac0aa55982e2)
N        -0.46247476940347   -1.01630438948986    0.23937918086832
C         0.54955637820430    0.04346627974294    0.38727096833660
C        -0.49869445476076    1.03815836188534    0.13116580424365
C         1.69683109613839    0.05461026228931   -0.38162683887451
C        -1.28521825017846   -0.11993051442773   -0.37618811457406
5
 energy: -11.029388621893 gnorm: 0.172999184868 xtb: 6.2.2 (9d81278992624c895f80dd42a50cac0aa55982e2)
N        -0.55624688506142   -0.88752733355393    0.28863295463290
C         0.62714063263486    0.04502320217026    0.20626403727834
C        -0.53840256335128    0.93503496021722    0.20418753361381
C         1.73272798540374    0.06110373498346   -0.30769579122445
C        -1.26521916962590   -0.15363456381701   -0.39138773430060
5
 energy: -11.035416018199 gnorm: 0.100081129249 xtb: 6.2.2 (9d81278992624c895f80dd42a50cac0aa55982e2)
N        -0.60317968784323   -0.89367996163508    0.38487679055351
C         0.62408145470115    0.02589813259614    0.15570051505654
C        -0.57382643110338    0.91951781948776    0.27129853315099
C         1.83550449322174    0.08458285808829   -0.34187068315301
C        -1.28257982897628   -0.13631884853711   -0.47000415560803
5
 energy: -11.039603264179 gnorm: 0.105583950052 xtb: 6.2.2 (9d81278992624c895f80dd42a50cac0aa55982e2)
N        -0.57408833487253   -0.88287438049714    0.30307780276943
C         0.59765493042521    0.01573519989283    0.14956597128389
C        -0.54210570261459    0.88770395183436    0.18530896871545
C         1.87144468515584    0.09969722493295   -0.28774341591154
C        -1.35290557809393   -0.12026199616299   -0.35020832685723
5
 energy: -11.043989109120 gnorm: 0.051386969813 xtb: 6.2.2 (9d81278992624c895f80dd42a50cac0aa55982e2)
N        -0.52156986394939   -0.85341136072422    0.31807767722514
C         0.60658971592523    0.02351223692614    0.19402044128828
C        -0.52762301550628    0.87169616424762    0.20925469004781
C         1.76720065387659    0.07508793699071   -0.31140651426113
C        -1.32459749034615   -0.11688497744025   -0.40994529430009
5
 energy: -11.047528126679 gnorm: 0.024644006819 xtb: 6.2.2 (9d81278992624c895f80dd42a50cac0aa55982e2)
N        -0.54323796421985   -0.83910429026290    0.33849168701298
C         0.61931436232218    0.02118354256280    0.13541530223525
C        -0.56259828413500    0.87087611338261    0.23515667544322
C         1.82752784577834    0.06877043288476   -0.29548367529592
C        -1.34100595974567   -0.12172579856727   -0.41357898939553
5
 energy: -11.048323338650 gnorm: 0.016873420112 xtb: 6.2.2 (9d81278992624c895f80dd42a50cac0aa55982e2)
N        -0.53599021684093   -0.83073277129918    0.33776025315799
C         0.61477447120079    0.01392204390655    0.11203602699191
C        -0.56475639347215    0.86449305613720    0.23193766255691
C         1.84402698937283    0.06971891029154   -0.28108151826197
C        -1.35805485026054   -0.11740123903612   -0.40065142444484
5
 energy: -11.048908645637 gnorm: 0.012013861080 xtb: 6.2.2 (9d81278992624c895f80dd42a50cac0aa55982e2)
N        -0.52420684689375   -0.82046166913132    0.34057939969230
C         0.61060137063520   -0.00032582579180    0.08019315046741
C        -0.56313264878656    0.85887476865078    0.22789385871106
C         1.85232419650065    0.07374824811731   -0.26103162533363
C        -1.37558607145554   -0.11183552184498   -0.38763378353714
5
 energy: -11.049105991721 gnorm: 0.008135145561 xtb: 6.2.2 (9d81278992624c895f80dd42a50cac0aa55982e2)
N        -0.52408637380593   -0.82302882561904    0.34206935253022
C         0.60890986625457   -0.01099940684425    0.06708707679985
C        -0.55636703263760    0.86102949098379    0.22111764665646
C         1.85149109996734    0.08284052707359   -0.25130241507447
C        -1.37994755977838   -0.10984178559409   -0.37897066091206
5
 energy: -11.049237128459 gnorm: 0.003366954876 xtb: 6.2.2 (9d81278992624c895f80dd42a50cac0aa55982e2)
N        -0.52719224559716   -0.82915861723885    0.34283242127078
C         0.60747760803701   -0.02501240202559    0.05444627911710
C        -0.54646018413687    0.86683182076182    0.21062520814053
C         1.84911957191324    0.09620567900628   -0.24056895928255
C        -1.38294475021621   -0.10886648050366   -0.36733394924586
5
 energy: -11.049251953118 gnorm: 0.002518219919 xtb: 6.2.2 (9d81278992624c895f80dd42a50cac0aa55982e2)
N        -0.52857854760049   -0.83017865358036    0.34280615002438
C         0.60761873922319   -0.02923849694699    0.05408187865481
C        -0.54360290965588    0.86834563745602    0.20732266031590
C         1.84774700033715    0.10012665111030   -0.23920541648756
C        -1.38318428230398   -0.10905513803898   -0.36500427250753
5
 energy: -11.049264175536 gnorm: 0.001784198001 xtb: 6.2.2 (9d81278992624c895f80dd42a50cac0aa55982e2)
N        -0.53090516778272   -0.83023238350225    0.34363747902869
C         0.60845319159741   -0.03455444042200    0.05505678373722
C        -0.54075717679261    0.86898427424353    0.20398539166411
C         1.84691144928571    0.10499127532318   -0.23889154162476
C        -1.38370229630778   -0.10918872564246   -0.36378711280526
5
 energy: -11.049273236678 gnorm: 0.001254872415 xtb: 6.2.2 (9d81278992624c895f80dd42a50cac0aa55982e2)
N        -0.53393999389652   -0.82884760551574    0.34575719270053
C         0.61026578551369   -0.04146504093853    0.05981213559281
C        -0.53770748364439    0.86840962408782    0.20056968628644
C         1.84519150185766    0.11101097909974   -0.24105260306976
C        -1.38380980983043   -0.10910795673329   -0.36508541151002
5
 energy: -11.049275022646 gnorm: 0.000211320981 xtb: 6.2.2 (9d81278992624c895f80dd42a50cac0aa55982e2)
N        -0.53369682789503   -0.82834556925637    0.34642385498956
C         0.61033823288342   -0.04078235627064    0.06009633595184
C        -0.53863941902640    0.86755570473300    0.20164599182508
C         1.84570616570470    0.11027519030271   -0.24180955372189
C        -1.38370815166668   -0.10870296950870   -0.36635562904459
