$hessian                                                                        
        0.2924291876  -0.0341449836   0.0697190817  -0.0970931095  -0.0550432879
        0.0448742080   0.0557018273   0.0184509156   0.0053187521  -0.0559717948
       -0.0160169705   0.0119099604  -0.1950661106   0.0867543264  -0.1318220022
       -0.0341449836   0.3303441951  -0.1739301334  -0.1563508941  -0.0896444289
        0.0264816726  -0.0175360787  -0.1172381801   0.0041811247   0.0137026546
       -0.0009693365  -0.0024040110   0.1943293019  -0.1224922496   0.1456713471
        0.0697190817  -0.1739301334   0.1527902887   0.0726891497   0.0330981922
       -0.0380211002   0.0164295329   0.0406175503   0.0261344939  -0.0050595353
        0.0053300584   0.0041032080  -0.1537782290   0.0948843325  -0.1450068903
       -0.0970931095  -0.1563508941   0.0726891497   0.7502199720   0.0832737344
       -0.1499432628  -0.0990209980   0.1329905909   0.0306319271  -0.4866601805
       -0.0705848902   0.1068903449  -0.0674456840   0.0106714590  -0.0602681589
       -0.0550432879  -0.0896444289   0.0330981922   0.0832737344   0.1416575192
       -0.0332201595   0.0736176510  -0.0651220612  -0.0227250255  -0.1031474506
       -0.0175539525   0.0255651168   0.0012993531   0.0306629235  -0.0027181240
        0.0448742080   0.0264816726  -0.0380211002  -0.1499432628  -0.0332201595
        0.0991320712   0.0025104761  -0.0141518750  -0.0256131509   0.1210003103
        0.0130553860  -0.0492885765  -0.0184417316   0.0078349760   0.0137907564
        0.0557018273  -0.0175360787   0.0164295329  -0.0990209980   0.0736176510
        0.0025104761   0.2127906541   0.0205673538   0.0391114074  -0.0595792212
       -0.0004304285   0.0182377950  -0.1098922621  -0.0762184975  -0.0762892115
        0.0184509156  -0.1172381801   0.0406175503   0.1329905909  -0.0651220612
       -0.0141518750   0.0205673538   0.3108703125   0.0975646877   0.0079876066
       -0.0048360049  -0.0019241489  -0.1799964668  -0.1236740663  -0.1221062140
        0.0053187521   0.0041811247   0.0261344939   0.0306319271  -0.0227250255
       -0.0256131509   0.0391114074   0.0975646877   0.0701697129  -0.0012456411
       -0.0014015435   0.0026241588  -0.0738164455  -0.0776192435  -0.0733152148
       -0.0559717948   0.0137026546  -0.0050595353  -0.4866601805  -0.1031474506
        0.1210003103  -0.0595792212   0.0079876066  -0.0012456411   0.5961298449
        0.0826399385  -0.1371636481   0.0060813516  -0.0011827491   0.0224685143
       -0.0160169705  -0.0009693365   0.0053300584  -0.0705848902  -0.0175539525
        0.0130553860  -0.0004304285  -0.0048360049  -0.0014015435   0.0826399385
        0.0199175274  -0.0188422102   0.0043923506   0.0034417664   0.0018583093
        0.0119099604  -0.0024040110   0.0041032080   0.1068903449   0.0255651168
       -0.0492885765   0.0182377950  -0.0019241489   0.0026241588  -0.1371636481
       -0.0188422102   0.0433291452   0.0001255478  -0.0023947467  -0.0007679355
       -0.1950661106   0.1943293019  -0.1537782290  -0.0674456840   0.0012993531
       -0.0184417316  -0.1098922621  -0.1799964668  -0.0738164455   0.0060813516
        0.0043923506   0.0001255478   0.3663227051  -0.0200245388   0.2459108582
        0.0867543264  -0.1224922496   0.0948843325   0.0106714590   0.0306629235
        0.0078349760  -0.0762184975  -0.1236740663  -0.0776192435  -0.0011827491
        0.0034417664  -0.0023947467  -0.0200245388   0.2120616259  -0.0227053184
       -0.1318220022   0.1456713471  -0.1450068903  -0.0602681589  -0.0027181240
        0.0137907564  -0.0762892115  -0.1221062140  -0.0733152148   0.0224685143
        0.0018583093  -0.0007679355   0.2459108582  -0.0227053184   0.2052992842
