5
 energy: -9.480127826774 gnorm: 0.000625049943 xtb: 6.2.2 (9d81278992624c895f80dd42a50cac0aa55982e2)
N         1.28828055962086   -0.79200346624840    0.03964815651251
C         0.40301582725205    0.03675783057000   -0.00370014192885
C        -1.15554039748905   -0.14280158988171    0.63976962121000
C        -1.16229522243150   -0.21424646391050   -0.60942841873966
H         0.62653923304241    1.11229268947061   -0.06628921705224
