      -----------------------------------------------------------      
     |                   =====================                   |     
     |                           x T B                           |     
     |                   =====================                   |     
     |                         S. Grimme                         |     
     |          Mulliken Center for Theoretical Chemistry        |     
     |                    University of Bonn                     |     
      -----------------------------------------------------------      

   * xtb version 6.2.2 (9d81278992624c895f80dd42a50cac0aa55982e2) compiled by '@Darwin' on 04/03/2020

   xtb is free software: you can redistribute it and/or modify it under
   the terms of the GNU Lesser General Public License as published by
   the Free Software Foundation, either version 3 of the License, or
   (at your option) any later version.
   
   xtb is distributed in the hope that it will be useful,
   but WITHOUT ANY WARRANTY; without even the implied warranty of
   MERCHANTABILITY or FITNESS FOR A PARTICULAR PURPOSE.  See the
   GNU Lesser General Public License for more details.
   
   Cite this work as:
   * S. Grimme, C. Bannwarth, P. Shushkov, J. Chem. Theory Comput., 2017,
     13, 1989-2009. DOI: 10.1021/acs.jctc.7b00118
   * C. Bannwarth, S. Ehlert and S. Grimme., J. Chem. Theory Comput., 2019,
     15, 1652-1671. DOI: 10.1021/acs.jctc.8b01176
   * P. Pracht, E. Caldeweyher, S. Ehlert, S. Grimme, ChemRxiv, 2019, preprint.
     DOI: 10.26434/chemrxiv.8326202.v1
   
   for DFT-D4:
   * E. Caldeweyher, C. Bannwarth and S. Grimme, J. Chem. Phys., 2017,
     147, 034112. DOI: 10.1063/1.4993215
   * E. Caldeweyher, S. Ehlert, A. Hansen, H. Neugebauer, S. Spicher,
     C. Bannwarth and S. Grimme, J. Chem. Phys., 2019, 150, 154122.
     DOI: 10.1063/1.5090222
   
   for sTDA-xTB:
   * S. Grimme and C. Bannwarth, J. Chem. Phys., 2016, 145, 054103.
     DOI: 10.1063/1.4959605
   
   in the mass-spec context:
   * V. Asgeirsson, C. Bauer and S. Grimme, Chem. Sci., 2017, 8, 4879.
     DOI: 10.1039/c7sc00601b
   
   for metadynamics refer to:
   * S. Grimme, J. Chem. Theory Comput., 2019, 155, 2847-2862
     DOI: 10.1021/acs.jctc.9b00143
   
   with help from (in alphabetical order)
   C. Bannwarth, F. Bohle, G. Brandenburg, E. Caldeweyher, M. Checinski,
   S. Dohm, S. Ehlert, S. Ehrlich, F. März, H. Neugebauer, J. Pisarek,
   P. Pracht, P. Shushkov, and S. Spicher.
   
 * started run on 2020/05/12 at 11:45:15.898     

           -------------------------------------------------
          |                Calculation Setup                |
           -------------------------------------------------

          program call               : xtb --input H4C1_0_S_0.input H4C1_0_S_0.xyz --ohess --molden --namespace H4C1_0_S_0 output.out
          calculation namespace      : H4C1_0_S_0
          coordinate file            : H4C1_0_S_0.xyz
          number of atoms            :                     5
          number of electrons        :                     8
          charge                     :                     0
          spin                       :                   0.0
          first test random number   :      0.22402421342070

   ID    Z sym.   atoms
    1    6 C      1
    2    1 H      2-5

           -------------------------------------------------
          |                 G F N 2 - x T B                 |
           -------------------------------------------------

        Reference                      10.1021/acs.jctc.8b01176
      * Hamiltonian:
        H0-scaling (s, p, d)           1.850000    2.230000    2.230000
        zeta-weighting                 0.500000
      * Dispersion:
        s8                             2.700000
        a1                             0.520000
        a2                             5.000000
        s9                             5.000000
      * Repulsion:
        kExp                           1.500000    1.000000
        rExp                           1.000000
      * Coulomb:
        alpha                          2.000000
        third order                    shell-resolved
        anisotropic                    true
        a3                             3.000000
        a5                             4.000000
        cn-shift                       1.200000
        cn-exp                         4.000000
        max-rad                        5.000000


          ...................................................
          :                      SETUP                      :
          :.................................................:
          :  # basis functions                   8          :
          :  # atomic orbitals                   8          :
          :  # shells                            6          :
          :  # electrons                         8          :
          :  max. iterations                   250          :
          :  Hamiltonian                  GFN2-xTB          :
          :  restarted?                      false          :
          :  GBSA solvation                  false          :
          :  PC potential                    false          :
          :  electronic temp.          300.0000000     K    :
          :  accuracy                    1.0000000          :
          :  -> integral cutoff          0.2500000E+02      :
          :  -> integral neglect         0.1000000E-07      :
          :  -> SCF convergence          0.1000000E-05 Eh   :
          :  -> wf. convergence          0.1000000E-03 e    :
          :  Broyden damping             0.4000000          :
          ...................................................

 iter      E             dE          RMSdq      gap      omega  full diag
   1     -4.2174602 -0.421746E+01  0.250E+00   16.44       0.0  T
   2     -4.2318055 -0.143453E-01  0.895E-01   16.26       1.0  T
   3     -4.2319338 -0.128306E-03  0.503E-01   16.16       1.0  T
   4     -4.2319885 -0.547266E-04  0.103E-01   16.04       1.0  T
   5     -4.2319886 -0.579645E-07  0.423E-03   16.03      10.6  T
   6     -4.2319886 -0.404868E-07  0.133E-04   16.03     337.2  T
   7     -4.2319886 -0.531424E-10  0.145E-06   16.03   30936.0  T

   *** convergence criteria satisfied after 7 iterations ***

         #    Occupation            Energy/Eh            Energy/eV
      -------------------------------------------------------------
         1        2.0000           -0.5772062             -15.7066
         2        2.0000           -0.4654383             -12.6652
         3        2.0000           -0.4654383             -12.6652
         4        2.0000           -0.4654383             -12.6652 (HOMO)
         5                          0.1237531               3.3675 (LUMO)
         6                          0.1875969               5.1048
         7                          0.1875973               5.1048
         8                          0.1875974               5.1048
      -------------------------------------------------------------
                  HL-Gap            0.5891914 Eh           16.0327 eV
             Fermi-level           -0.1708426 Eh           -4.6489 eV

 SCC (total)                   0 d,  0 h,  0 min,  0.001 sec
 SCC setup                      ...        0 min,  0.000 sec (  6.479%)
 Dispersion                     ...        0 min,  0.000 sec (  0.822%)
 integral evaluation            ...        0 min,  0.000 sec ( 19.299%)
 zeroth order Hamiltonian       ...        0 min,  0.000 sec (  0.842%)
 iterations                     ...        0 min,  0.001 sec ( 47.348%)
 molecular gradient             ...        0 min,  0.000 sec ( 21.061%)
 printout                       ...        0 min,  0.000 sec (  3.445%)

         :::::::::::::::::::::::::::::::::::::::::::::::::::::
         ::                     SUMMARY                     ::
         :::::::::::::::::::::::::::::::::::::::::::::::::::::
         :: total energy              -4.173398499907 Eh    ::
         :: gradient norm              0.034338590305 Eh/a0 ::
         :: HOMO-LUMO gap             16.032712968878 eV    ::
         ::.................................................::
         :: SCC energy                -4.231988646917 Eh    ::
         :: -> isotropic ES            0.001809521679 Eh    ::
         :: -> anisotropic ES          0.002868398301 Eh    ::
         :: -> anisotropic XC          0.004249237779 Eh    ::
         :: -> dispersion             -0.000665629333 Eh    ::
         :: repulsion energy           0.058590140466 Eh    ::
         :: add. restraining           0.000000000000 Eh    ::
         :::::::::::::::::::::::::::::::::::::::::::::::::::::

      ----------------------------------------------------------- 
     |                   =====================                   |
     |                        A N C O P T                        |
     |                   =====================                   |
     |               Approximate Normal Coordinate               |
     |                Rational Function Optimizer                |
      ----------------------------------------------------------- 

          ...................................................
          :                      SETUP                      :
          :.................................................:
          :   optimization level            normal          :
          :   max. optcycles                   200          :
          :   ANC micro-cycles                  20          :
          :   degrees of freedom                 9          :
          :.................................................:
          :   RF solver                   davidson          :
          :   write xtbopt.log                true          :
          :   linear?                        false          :
          :   energy convergence         0.5000000E-05 Eh   :
          :   grad. convergence          0.1000000E-02 Eh/α :
          :   maximium RF displ.         1.0000000          :
          :   Hlow (freq-cutoff)         0.1000000E-01      :
          :   Hmax (freq-cutoff)         5.0000000          :
          :   S6 in model hess.         20.0000000          :
          ...................................................

generating ANC from model Hessian ...
Using Lindh-Hessian (1995)
 Shifting diagonal of input Hessian by    0.0000000000000000     
 Lowest  eigenvalues of input Hessian
   -0.000000   -0.000000   -0.000000    0.000000    0.000000    0.000000
    0.085547    0.085547    0.107547    0.107547    0.107547    0.381667
    1.041092    1.041093    1.041093
 Highest eigenvalues
    0.107547    0.107547    0.381667    1.041092    1.041093    1.041093


........................................................................
.............................. CYCLE    1 ..............................
........................................................................
   1     -4.2319886 -0.423199E+01  0.536E-07   16.03       0.0  T
   2     -4.2319886 -0.532907E-14  0.342E-08   16.03  100000.0  T
   3     -4.2319886  0.532907E-14  0.191E-08   16.03  100000.0  T
     SCC iter.                  ...        0 min,  0.000 sec
     gradient                   ...        0 min,  0.000 sec
 * total energy  :    -4.1733985 Eh     change        0.1103801E-09 Eh
   gradient norm :     0.0343386 Eh/α   predicted     0.0000000E+00 (-100.00%)
   displ. norm   :     0.0892533 α      lambda       -0.3064830E-02
   maximum displ.:     0.0892533 α      in ANC's #6, #5, #2, ...

........................................................................
.............................. CYCLE    2 ..............................
........................................................................
   1     -4.2454251 -0.424543E+01  0.165E-01   17.16       0.0  T
   2     -4.2454529 -0.277619E-04  0.681E-02   17.16       1.0  T
   3     -4.2454530 -0.157678E-06  0.329E-02   17.17       1.4  T
   4     -4.2454531 -0.367644E-07  0.175E-03   17.17      25.6  T
   5     -4.2454531 -0.322058E-09  0.227E-04   17.17     196.8  T
   6     -4.2454531 -0.149488E-09  0.294E-06   17.17   15209.9  T
     SCC iter.                  ...        0 min,  0.001 sec
     gradient                   ...        0 min,  0.000 sec
 * total energy  :    -4.1751847 Eh     change       -0.1786187E-02 Eh
   gradient norm :     0.0049256 Eh/α   predicted    -0.1544623E-02 ( -13.52%)
   displ. norm   :     0.0149432 α      lambda       -0.7359988E-04
   maximum displ.:     0.0149432 α      in ANC's #6, #5, #3, ...

........................................................................
.............................. CYCLE    3 ..............................
........................................................................
   1     -4.2476483 -0.424765E+01  0.274E-02   17.37       0.0  T
   2     -4.2476491 -0.709375E-06  0.116E-02   17.37       3.9  T
   3     -4.2476491 -0.488955E-08  0.538E-03   17.37       8.3  T
   4     -4.2476491 -0.101666E-08  0.281E-04   17.37     159.2  T
   5     -4.2476491 -0.996891E-11  0.628E-06   17.37    7122.6  T
     SCC iter.                  ...        0 min,  0.000 sec
     gradient                   ...        0 min,  0.000 sec
 * total energy  :    -4.1752182 Eh     change       -0.3354352E-04 Eh
   gradient norm :     0.0004592 Eh/α   predicted    -0.3680997E-04 (   9.74%)
   displ. norm   :     0.0019115 α      lambda       -0.5824264E-06
   maximum displ.:     0.0019115 α      in ANC's #6, #5, #3, ...

........................................................................
.............................. CYCLE    4 ..............................
........................................................................
   1     -4.2473691 -0.424737E+01  0.350E-03   17.34       0.0  T
   2     -4.2473691 -0.115383E-07  0.149E-03   17.34      30.1  T
   3     -4.2473691 -0.803402E-10  0.687E-04   17.34      65.1  T
   4     -4.2473691 -0.165716E-10  0.358E-05   17.34    1249.0  T
     SCC iter.                  ...        0 min,  0.000 sec
     gradient                   ...        0 min,  0.000 sec
 * total energy  :    -4.1752184 Eh     change       -0.2120509E-06 Eh
   gradient norm :     0.0002377 Eh/α   predicted    -0.2925977E-06 (  37.98%)
   displ. norm   :     0.0006519 α      lambda       -0.1032748E-06
   maximum displ.:     0.0006519 α      in ANC's #6, #5, #3, ...

   *** GEOMETRY OPTIMIZATION CONVERGED AFTER 4 ITERATIONS ***

------------------------------------------------------------------------
 total energy gain   :        -0.0018199 Eh       -1.1420 kcal/mol
 total RMSD          :         0.0457432 a0        0.0242 Å
 total power (kW/mol):        -1.1945648 (step)-1225.7780 (real)
------------------------------------------------------------------------

 ANCopt (total)                0 d,  0 h,  0 min,  0.004 sec
 optimizer setup                ...        0 min,  0.000 sec (  1.844%)
 model hessian                  ...        0 min,  0.000 sec (  2.943%)
 ANC generation                 ...        0 min,  0.000 sec (  1.484%)
 coordinate transformation      ...        0 min,  0.000 sec (  0.299%)
 single point calculation       ...        0 min,  0.003 sec ( 82.844%)
 optimization log               ...        0 min,  0.000 sec (  2.747%)
 hessian update                 ...        0 min,  0.000 sec (  0.256%)
 rational function              ...        0 min,  0.000 sec (  2.827%)

================
 final structure:
================
5
 xtb: 6.2.2 (9d81278992624c895f80dd42a50cac0aa55982e2)
C        -0.00000000714699   -0.00000000338596    0.00000000659724
H        -0.67184372246593    0.84818657052554   -0.02569282211966
H        -0.43141075304262   -0.81908024157065   -0.56075564017384
H         0.15422006336619   -0.30713045012448    1.02632433461833
H         0.94903441928934    0.27802412455555   -0.43987587892206

 Bond Distances (Angstroems)
 ---------------------------
C1-H2=1.0823         C1-H3=1.0823         C1-H4=1.0823         C1-H5=1.0823         H2-C1=1.0823         H3-C1=1.0823         
H4-C1=1.0823         H5-C1=1.0823         
 C  H  Rav=1.0823 sigma=0.0000  Rmin=1.0823  Rmax=1.0823     4

 selected bond angles (degree)
 --------------------
H3-C1-H2=109.47                H4-C1-H2=109.47                H4-C1-H3=109.47                H5-C1-H2=109.47                
H5-C1-H3=109.47                H5-C1-H4=109.47                

 selected dihedral angles (degree)
 ---------------------------------

           -------------------------------------------------
          |                Final Singlepoint                |
           -------------------------------------------------

          ...................................................
          :                      SETUP                      :
          :.................................................:
          :  # basis functions                   8          :
          :  # atomic orbitals                   8          :
          :  # shells                            6          :
          :  # electrons                         8          :
          :  max. iterations                   250          :
          :  Hamiltonian                  GFN2-xTB          :
          :  restarted?                      false          :
          :  GBSA solvation                  false          :
          :  PC potential                    false          :
          :  electronic temp.          300.0000000     K    :
          :  accuracy                    1.0000000          :
          :  -> integral cutoff          0.2500000E+02      :
          :  -> integral neglect         0.1000000E-07      :
          :  -> SCF convergence          0.1000000E-05 Eh   :
          :  -> wf. convergence          0.1000000E-03 e    :
          :  Broyden damping             0.4000000          :
          ...................................................

 iter      E             dE          RMSdq      gap      omega  full diag
   1     -4.2473691 -0.424737E+01  0.223E-06   17.34       0.0  T
   2     -4.2473691  0.177636E-14  0.129E-06   17.34   34558.4  T
   3     -4.2473691 -0.444089E-14  0.169E-07   17.34  100000.0  T

   *** convergence criteria satisfied after 3 iterations ***

         #    Occupation            Energy/Eh            Energy/eV
      -------------------------------------------------------------
         1        2.0000           -0.5818053             -15.8317
         2        2.0000           -0.4674450             -12.7198
         3        2.0000           -0.4674450             -12.7198
         4        2.0000           -0.4674450             -12.7198 (HOMO)
         5                          0.1699458               4.6245 (LUMO)
         6                          0.2289731               6.2307
         7                          0.2289731               6.2307
         8                          0.2289731               6.2307
      -------------------------------------------------------------
                  HL-Gap            0.6373908 Eh           17.3443 eV
             Fermi-level           -0.1487496 Eh           -4.0477 eV

 SCC (total)                   0 d,  0 h,  0 min,  0.001 sec
 SCC setup                      ...        0 min,  0.000 sec (  6.911%)
 Dispersion                     ...        0 min,  0.000 sec (  0.917%)
 integral evaluation            ...        0 min,  0.000 sec ( 32.264%)
 zeroth order Hamiltonian       ...        0 min,  0.000 sec (  0.705%)
 iterations                     ...        0 min,  0.000 sec ( 19.993%)
 molecular gradient             ...        0 min,  0.000 sec ( 32.687%)
 printout                       ...        0 min,  0.000 sec (  5.183%)

         :::::::::::::::::::::::::::::::::::::::::::::::::::::
         ::                     SUMMARY                     ::
         :::::::::::::::::::::::::::::::::::::::::::::::::::::
         :: total energy              -4.175218442644 Eh    ::
         :: gradient norm              0.000237392687 Eh/a0 ::
         :: HOMO-LUMO gap             17.344286642343 eV    ::
         ::.................................................::
         :: SCC energy                -4.247369122263 Eh    ::
         :: -> isotropic ES            0.002034163978 Eh    ::
         :: -> anisotropic ES          0.002325013891 Eh    ::
         :: -> anisotropic XC          0.003589354737 Eh    ::
         :: -> dispersion             -0.000661040232 Eh    ::
         :: repulsion energy           0.072150674026 Eh    ::
         :: add. restraining           0.000000000000 Eh    ::
         :::::::::::::::::::::::::::::::::::::::::::::::::::::

           ------------------------------------------------- 
          |                Numerical Hessian                |
           ------------------------------------------------- 
step length          :   0.00500
SCC accuracy         :   0.30000
Hessian scale factor :   1.00000
frozen atoms in %    :   0.00000    0
RMS gradient         :   0.00024
estimated CPU  time      0.00 min
estimated wall time      0.00 min

writing file <hessian>.

 projected vibrational frequencies (cm-1)
eigval :       -0.00    -0.00    -0.00    -0.00     0.00     0.00
eigval :     1385.87  1385.99  1386.05  1557.33  1557.33  3088.89
eigval :     3102.25  3102.36  3102.64
           -------------------------------------------------
          |                Property Printout                |
           -------------------------------------------------

    * Orbital Energies and Occupations

         #    Occupation            Energy/Eh            Energy/eV
      -------------------------------------------------------------
         1        2.0000           -0.5818053             -15.8317
         2        2.0000           -0.4674450             -12.7198
         3        2.0000           -0.4674450             -12.7198
         4        2.0000           -0.4674450             -12.7198 (HOMO)
         5                          0.1699458               4.6245 (LUMO)
         6                          0.2289731               6.2307
         7                          0.2289731               6.2307
         8                          0.2289731               6.2307
      -------------------------------------------------------------
                  HL-Gap            0.6373908 Eh           17.3443 eV
             Fermi-level           -0.1487496 Eh           -4.0477 eV

     #   Z        covCN         q      C6AA      α(0)
     1   6 C      3.702    -0.156    23.686     6.959
     2   1 H      0.925     0.039     2.463     2.454
     3   1 H      0.925     0.039     2.463     2.454
     4   1 H      0.925     0.039     2.463     2.454
     5   1 H      0.925     0.039     2.463     2.454

 Mol. C6AA /au·bohr⁶  :        123.838824
 Mol. C8AA /au·bohr⁸  :       2297.179280
 Mol. α(0) /au        :         16.776959


Wiberg/Mayer (AO) data.
largest (>0.10) Wiberg bond orders for each atom
          total WBO             WBO to atom ...
     1  C   3.994        H    4 0.998    H    3 0.998    H    2 0.998    H    5 0.998
     2  H   0.998        C    1 0.998
     3  H   0.998        C    1 0.998
     4  H   0.998        C    1 0.998
     5  H   0.998        C    1 0.998

MOs/occ written to file <molden.input>


molecular dipole:
                 x           y           z       tot (Debye)
 q only:        0.000       0.000      -0.000
   full:        0.000       0.000      -0.000       0.000
molecular quadrupole (traceless):
                xx          xy          yy          xz          yz          zz
 q only:       -0.000      -0.000       0.000       0.000      -0.000       0.000
  q+dip:       -0.000      -0.000       0.000       0.000      -0.000       0.000
   full:       -0.000      -0.000       0.000       0.000      -0.000       0.000

           -------------------------------------------------
          |                Geometry Summary                 |
           -------------------------------------------------

      molecular mass/u    :       16.0424989
   center of mass at/Å    :       -0.0000000      -0.0000000       0.0000000
  moments of inertia/u·Å² :        0.3148685E+01   0.3148685E+01   0.3148685E+01
rotational constants/cm⁻¹ :        0.5353865E+01   0.5353865E+01   0.5353865E+01

 * 4 selected distances

     #   Z        #   Z                                     value/Å
     1   6 C      2   1 H                                 1.0823375
     1   6 C      3   1 H                                 1.0823375
     1   6 C      4   1 H                                 1.0823375 (max)
     1   6 C      5   1 H                                 1.0823375 (min)
Molecule has the following symmetry elements: 4*(C3) 3*(C2) 3*(S4) 6*(sigma) 
It seems to be the Td point group

 * 1 distinct bonds (by element types)

   Z      Z             #   av. dist./Å        max./Å        min./Å
   1 H    6 C           4     1.0823375     1.0823375     1.0823375

           -------------------------------------------------
          |               Frequency Printout                |
           -------------------------------------------------
 projected vibrational frequencies (cm-1)
eigval :       -0.00    -0.00    -0.00    -0.00     0.00     0.00
eigval :     1385.87  1385.99  1386.05  1557.33  1557.33  3088.89
eigval :     3102.25  3102.36  3102.64
 reduced masses (amu)
   1:  2.69   2:  1.34   3:  3.23   4:  9.12   5:  7.75   6:  6.64   7:  2.85   8:  2.85
   9:  2.85  10:  1.01  11:  1.01  12:  1.01  13:  1.93  14:  1.93  15:  1.93
 IR intensities (amu)
   1:  0.00   2:  0.00   3:  0.00   4:  0.00   5:  0.00   6:  0.00   7:  0.12   8:  0.12
   9:  0.12  10:  0.00  11:  0.00  12:  0.00  13:  0.17  14:  0.17  15:  0.17
 Raman intensities (amu)
   1:  0.00   2:  0.00   3:  0.00   4:  0.00   5:  0.00   6:  0.00   7:  0.00   8:  0.00
   9:  0.00  10:  0.00  11:  0.00  12:  0.00  13:  0.00  14:  0.00  15:  0.00
 output can be read by thermo (or use thermo option).
 writing <g98.out> molden fake output.
 recommended (thermochemical) frequency scaling factor: 1.0
           -------------------------------------------------
          |             Thermodynamic Functions             |
           -------------------------------------------------

td  symmetry found (for desy threshold:  0.10E+00) used in thermo

          ...................................................
          :                      SETUP                      :
          :.................................................:
          :  # frequencies                           9      :
          :  # imaginary freq.                       0      :
          :  linear?                             false      :
          :  only rotor calc.                    false      :
          :  symmetry                               td      :
          :  rotational number                      12      :
          :  scaling factor                  1.0000000      :
          :  rotor cutoff                   50.0000000 cm⁻¹ :
          :  imag. cutoff                  -20.0000000 cm⁻¹ :
          :.................................................:

    mode    ω/cm⁻¹     T·S(HO)/kcal·mol⁻¹    T·S(FR)/kcal·mol⁻¹   T·S(vib)
   ------------------------------------------------------------------------
   ------------------------------------------------------------------------

   temp. (K)  partition function   enthalpy   heat capacity  entropy
                                   cal/mol     cal/K/mol   cal/K/mol   J/K/mol
 298.15  VIB   1.00                   19.690      0.456      0.076
         ROT   35.6                  888.752      2.981     10.078
         INT   35.7                  908.442      3.437     10.154
         TR   0.622E+26             1481.254      4.968     34.248
         TOT                        2389.6962     8.4050    44.4017   185.7768

   temp. (K)  partition function   enthalpy   heat capacity  entropy
                                   cal/mol     cal/K/mol   cal/K/mol   J/K/mol
 120.00  VIB   1.00                    0.001      0.000      0.000
         ROT   9.08                  357.707      2.981      7.365
         INT   9.08                  357.708      2.981      7.365
         TR   0.159E+26              596.178      4.968     29.729
         TOT                         953.8856     7.9492    37.0938   155.2006

   temp. (K)  partition function   enthalpy   heat capacity  entropy
                                   cal/mol     cal/K/mol   cal/K/mol   J/K/mol
 100.00  VIB   1.00                    0.000      0.000     -0.000
         ROT   6.91                  298.089      2.981      6.822
         INT   6.91                  298.089      2.981      6.822
         TR   0.121E+26              496.815      4.968     28.823
         TOT                         794.9040     7.9490    35.6450   149.1386

   temp. (K)  partition function   enthalpy   heat capacity  entropy
                                   cal/mol     cal/K/mol   cal/K/mol   J/K/mol
  80.00  VIB   1.00                    0.000      0.000     -0.000
         ROT   4.94                  238.471      2.981      6.157
         INT   4.94                  238.471      2.981      6.157
         TR   0.864E+25              397.452      4.968     27.715
         TOT                         635.9232     7.9490    33.8718   141.7194

   temp. (K)  partition function   enthalpy   heat capacity  entropy
                                   cal/mol     cal/K/mol   cal/K/mol   J/K/mol
  60.00  VIB   1.00                    0.000      0.000     -0.000
         ROT   3.21                  178.853      2.981      5.299
         INT   3.21                  178.853      2.981      5.299
         TR   0.561E+25              298.089      4.968     26.287
         TOT                         476.9424     7.9490    31.5857   132.1544

   temp. (K)  partition function   enthalpy   heat capacity  entropy
                                   cal/mol     cal/K/mol   cal/K/mol   J/K/mol
  40.00  VIB   1.00                    0.000      0.000     -0.000
         ROT   1.75                  119.236      2.981      4.090
         INT   1.75                  119.236      2.981      4.090
         TR   0.305E+25              198.726      4.968     24.273
         TOT                         317.9616     7.9490    28.3636   118.6732

   temp. (K)  partition function   enthalpy   heat capacity  entropy
                                   cal/mol     cal/K/mol   cal/K/mol   J/K/mol
  20.00  VIB   1.00                    0.000      0.000     -0.000
         ROT  0.618                   59.618      2.981      2.024
         INT  0.618                   59.618      2.981      2.024
         TR   0.108E+25               99.363      4.968     20.831
         TOT                         158.9808     7.9490    22.8554    95.6270

   temp. (K)  partition function   enthalpy   heat capacity  entropy
                                   cal/mol     cal/K/mol   cal/K/mol   J/K/mol
  10.00  VIB   1.00                    0.000      0.000     -0.000
         ROT  0.218                   29.809      2.981     -0.042
         INT  0.218                   29.809      2.981     -0.042
         TR   0.382E+24               49.681      4.968     17.389
         TOT                          79.4904     7.9490    17.3472    72.5808

       T/K    H(0)-H(T)+PV         H(T)/Eh          T*S/Eh         G(T)/Eh
   ------------------------------------------------------------------------
    298.15    0.380822E-02    0.486169E-01    0.210967E-01    0.275202E-01
    120.00    0.152011E-02    0.463288E-01    0.709354E-02    0.392352E-01
    100.00    0.126676E-02    0.460754E-01    0.568039E-02    0.403950E-01
     80.00    0.101341E-02    0.458220E-01    0.431825E-02    0.415038E-01
     60.00    0.760056E-03    0.455687E-01    0.302010E-02    0.425486E-01
     40.00    0.506704E-03    0.453153E-01    0.180801E-02    0.435073E-01
     20.00    0.253352E-03    0.450620E-01    0.728448E-03    0.443335E-01
     10.00    0.126676E-03    0.449353E-01    0.276446E-03    0.446589E-01 (used)
   ------------------------------------------------------------------------

         :::::::::::::::::::::::::::::::::::::::::::::::::::::
         ::                  THERMODYNAMIC                  ::
         :::::::::::::::::::::::::::::::::::::::::::::::::::::
         :: total free energy          -4.130559573796 Eh   ::
         ::.................................................::
         :: total energy               -4.175218442642 Eh   ::
         :: zero point energy           0.044808638413 Eh   ::
         :: G(RRHO) w/o ZPVE           -0.000149769567 Eh   ::
         :: G(RRHO) contrib.            0.044658868846 Eh   ::
         :::::::::::::::::::::::::::::::::::::::::::::::::::::

optimized geometry written to: xtbopt.xyz


           -------------------------------------------------
          | TOTAL ENERGY               -4.175218442642 Eh   |
          | TOTAL ENTHALPY             -4.130283128213 Eh   |
          | TOTAL FREE ENERGY          -4.130559573796 Eh   |
          | GRADIENT NORM               0.000237393341 Eh/α |
          | HOMO-LUMO GAP              17.344286614004 eV   |
           -------------------------------------------------

------------------------------------------------------------------------
 * finished run on 2020/05/12 at 11:45:15.942     
------------------------------------------------------------------------
 total:
 * wall-time:     0 d,  0 h,  0 min,  0.043 sec
 *  cpu-time:     0 d,  0 h,  0 min,  0.043 sec
 * ratio c/w:     0.999 speedup
 SCF:
 * wall-time:     0 d,  0 h,  0 min,  0.001 sec
 *  cpu-time:     0 d,  0 h,  0 min,  0.001 sec
 * ratio c/w:     0.999 speedup
 ANC optimizer:
 * wall-time:     0 d,  0 h,  0 min,  0.005 sec
 *  cpu-time:     0 d,  0 h,  0 min,  0.005 sec
 * ratio c/w:     0.999 speedup
 numerical hessian:
 * wall-time:     0 d,  0 h,  0 min,  0.021 sec
 *  cpu-time:     0 d,  0 h,  0 min,  0.021 sec
 * ratio c/w:     0.999 speedup

