[Molden Format]
[Title]
[Atoms] AU
C      1     6 -0.24794644055883E+01 -0.15403350883388E+00  0.13200471429796E-01
C      2     6 -0.20601381918096E-01  0.17535167207993E-01 -0.22355749455499E-02
C      3     6  0.24274800018404E+01  0.14140591182067E+00 -0.12162692651255E-01
N      4     7 -0.46926604388549E+01 -0.27969547151586E+00  0.31167532554440E-01
C      5     6  0.47652462245210E+01  0.27478790132111E+00 -0.29969736387448E-01
[GTO]
           1 0
 s           4   1.0000000000000000     
   51.049363095579913      -0.16312063210127389     
   8.7911227406887544      -0.19911024581000730     
  0.70640422258929825       0.31882047753655751     
  0.26922813413411617       0.12706504184240380     
 p           4   1.0000000000000000     
   5.8263656140800002       0.73716451545209605     
   1.5106896018720002       0.68216371614850257     
  0.53256483288000001       0.35783053929253711     
  0.21202323690600003        5.3983030275847881E-002

           2 0
 s           4   1.0000000000000000     
   51.049363095579913      -0.16312063210127389     
   8.7911227406887544      -0.19911024581000730     
  0.70640422258929825       0.31882047753655751     
  0.26922813413411617       0.12706504184240380     
 p           4   1.0000000000000000     
   5.8263656140800002       0.73716451545209605     
   1.5106896018720002       0.68216371614850257     
  0.53256483288000001       0.35783053929253711     
  0.21202323690600003        5.3983030275847881E-002

           3 0
 s           4   1.0000000000000000     
   51.049363095579913      -0.16312063210127389     
   8.7911227406887544      -0.19911024581000730     
  0.70640422258929825       0.31882047753655751     
  0.26922813413411617       0.12706504184240380     
 p           4   1.0000000000000000     
   5.8263656140800002       0.73716451545209605     
   1.5106896018720002       0.68216371614850257     
  0.53256483288000001       0.35783053929253711     
  0.21202323690600003        5.3983030275847881E-002

           4 0
 s           4   1.0000000000000000     
   63.594024466941008      -0.19234388414721629     
   10.951417231523665      -0.23478107924953728     
  0.87999310257376984       0.37593753901700888     
  0.33538715296521110       0.14982889271862770     
 p           4   1.0000000000000000     
   7.2965040481495080       0.97658666315667420     
   1.8918745450712575       0.90372226730345739     
  0.66694432110824120       0.47404958461536373     
  0.26552202674130870        7.1516067715011844E-002

           5 0
 s           4   1.0000000000000000     
   51.049363095579913      -0.16312063210127389     
   8.7911227406887544      -0.19911024581000730     
  0.70640422258929825       0.31882047753655751     
  0.26922813413411617       0.12706504184240380     
 p           4   1.0000000000000000     
   5.8263656140800002       0.73716451545209605     
   1.5106896018720002       0.68216371614850257     
  0.53256483288000001       0.35783053929253711     
  0.21202323690600003        5.3983030275847881E-002

[MO]
Sym=     1a
Ene=  -0.67601379617948976     
Spin= Alpha
Occup=     2.00000000
           1 -0.32023359177878574     
           2  -6.8584309621904760E-002
           3  -5.3108039324849324E-003
           4   2.1346262257579494E-004
           5 -0.44987209067728096     
           6  -3.6524419657651457E-002
           7   2.8336626488385260E-004
           8  -8.2883408729348841E-005
           9 -0.44147609228462770     
          10   5.5260658045358811E-002
          11   2.5858927452787847E-003
          12   1.1179304384119675E-004
          13 -0.13747755219263666     
          14  -8.8154700856947502E-002
          15  -5.3614850267922785E-003
          16   6.3196497524615960E-004
          17 -0.22384814747328721     
          18  0.13589688343878661     
          19   7.6074515795591501E-003
          20  -9.2924764760563840E-004
Sym=     2a
Ene=  -0.67160435600069368     
Spin= Alpha
Occup=     2.00000000
           1  0.43615785692663084     
           2 -0.12458939240720930     
           3  -5.9724701932457472E-003
           4   1.1262829963334343E-003
           5   2.6866692570689341E-002
           6 -0.19982242125695518     
           7  -1.1985436032258791E-002
           8   1.2088136323232081E-003
           9 -0.30102593961577484     
          10  -6.3339025555968764E-002
          11  -4.0931350551233646E-003
          12   6.7713510146427572E-004
          13  0.37852738828287391     
          14  0.17998900916350297     
          15   1.0633441795202838E-002
          16  -1.4096764430684304E-003
          17 -0.22925453906199786     
          18  0.11277038258084146     
          19   6.2921177141270082E-003
          20  -8.0554767004668306E-004
Sym=     3a
Ene=  -0.64868203477359965     
Spin= Alpha
Occup=     2.00000000
           1   7.0598955152815666E-003
           2  0.31691438199905608     
           3   1.9850670110097033E-002
           4  -2.2258887383094974E-003
           5  0.36612616801220815     
           6  -7.0435810156450146E-002
           7  -5.7786858608517315E-003
           8   5.3987480012122511E-004
           9 -0.14115154156037898     
          10 -0.27967351667746299     
          11  -1.5725204333793086E-002
          12   1.7474651757935977E-003
          13 -0.33917537523503138     
          14  -8.7455540101855536E-002
          15  -4.5373122512490415E-003
          16   7.9090050508500874E-004
          17 -0.34996642871608774     
          18  0.11014582106108856     
          19   6.2628104624448426E-003
          20  -9.0220436997310964E-004
Sym=     4a
Ene=  -0.59800791210616300     
Spin= Alpha
Occup=     2.00000000
           1  0.21153251169003401     
           2  0.27808035552657578     
           3   1.8963462816066489E-002
           4  -2.2755958255616703E-003
           5  -3.8861671354155976E-002
           6 -0.41142642081722314     
           7  -2.4889177511835996E-002
           8   1.8369026855150461E-003
           9 -0.15917698693772173     
          10  0.35143852696750466     
          11   1.7722928731121780E-002
          12  -2.0187831035591844E-003
          13 -0.28891100154814264     
          14   1.3837101919967523E-002
          15   2.1857616117000700E-003
          16  -1.2489783307813849E-004
          17  0.35118829620590486     
          18  -9.9559916939453898E-003
          19  -1.2896175618768771E-003
          20   2.9563268405224230E-004
Sym=     5a
Ene=  -0.53227053306934413     
Spin= Alpha
Occup=     2.00000000
           1  -1.6160171848324302E-003
           2  -1.6840266460364850E-002
           3  0.21652664973792154     
           4 -0.43616735354095670     
           5   2.7269043366449953E-003
           6  -1.3133318070873586E-002
           7  0.18830383394546615     
           8 -0.37914561053006463     
           9  -1.0534292574381123E-003
          10  -9.5101417647839130E-003
          11  0.14241822332004556     
          12 -0.28670277204417127     
          13   1.3441447794209928E-003
          14  -1.3705100296615079E-002
          15  0.17647588841310469     
          16 -0.35548123511545160     
          17   5.2041738972091918E-004
          18  -5.2645856868017340E-003
          19   7.7779660406384427E-002
          20 -0.15658514760556211     
Sym=     6a
Ene=  -0.53227034158659936     
Spin= Alpha
Occup=     2.00000000
           1  -4.0558298179706638E-003
           2  -2.5439563614992146E-002
           3  0.43543301446212790     
           4  0.21715433365386572     
           5   4.1223527886970488E-003
           6  -2.2022159119751542E-002
           7  0.37849477019463407     
           8  0.18876130543834604     
           9  -1.0303277561343228E-003
          10  -1.4364144617761540E-002
          11  0.28633906133172909     
          12  0.14272326736983029     
          13   2.3012777563896436E-003
          14  -2.0607715651246097E-002
          15  0.35489707822441302     
          16  0.17698227611791453     
          17   1.2172441782898782E-003
          18  -7.9039761413639067E-003
          19  0.15638418177918129     
          20   7.7950306135359471E-002
Sym=     7a
Ene=  -0.48938976086468527     
Spin= Alpha
Occup=     2.00000000
           1  -4.5695208628208526E-003
           2  -1.9146287221083313E-002
           3  0.32205254339767830     
           4  -1.4737311227912008E-002
           5  -1.5929558190457803E-003
           6   9.3174796615763892E-003
           7 -0.17096707953289417     
           8   7.8165878092108423E-003
           9   3.0640654943850784E-003
          10   2.8295217771584127E-002
          11 -0.51853892174471228     
          12   2.3722975090811723E-002
          13   6.6774284846505116E-003
          14  -3.1967906070718304E-002
          15  0.45529439366046998     
          16  -2.0807028747734123E-002
          17  -3.3020499949787123E-003
          18   2.2064524320309364E-002
          19 -0.43025681165860064     
          20   1.9691263193966066E-002
Sym=     8a
Ene=  -0.48938784250208972     
Spin= Alpha
Occup=     2.00000000
           1  -9.4604167201331447E-004
           2   1.7118030507534820E-003
           3   1.4851287673753150E-002
           4  0.32264614336753544     
           5   5.5333734119121600E-004
           6  -4.2954214244446344E-004
           7  -7.8608474901754183E-003
           8 -0.17120766132227361     
           9  -1.4461808693010910E-003
          10  -1.8530886979006662E-003
          11  -2.3863162571988384E-002
          12 -0.51931608869536561     
          13   1.6619299088392674E-003
          14   1.1008740562919042E-003
          15   2.0932796031158406E-002
          16  0.45642400884935375     
          17   1.4616584778666744E-003
          18  -9.2822487698018125E-004
          19  -1.9762022098171319E-002
          20 -0.43083253728791915     
Sym=     9a
Ene=  -0.46401682026383417     
Spin= Alpha
Occup=     1.99999187
           1  0.17320248974885463     
           2 -0.17256827023597238     
           3  -6.6125693023721867E-003
           4   2.0118319754000059E-003
           5 -0.17915131882848265     
           6   8.5284507916180266E-002
           7   6.1033563605502423E-003
           8  -6.0510800982491641E-004
           9  0.11544188073107878     
          10   1.3140583201354481E-002
          11  -9.1932308446848331E-004
          12  -1.5054313434255549E-003
          13 -0.60994110827077186     
          14  0.62389067332501447     
          15   4.2124807514089417E-002
          16  -3.8959638553981457E-003
          17 -0.27355685794525775     
          18 -0.23744117913559598     
          19  -1.5366839017950860E-002
          20   1.8642730760969878E-004
Sym=    10a
Ene=  -0.44174761387027994     
Spin= Alpha
Occup=     1.00000813
           1  -1.5831442817031837E-003
           2  0.12823868997870949     
           3   6.2687307876811912E-003
           4  -7.8683829608128622E-004
           5  -8.4126402747086659E-002
           6 -0.18834705263358051     
           7  -1.0615946938316866E-002
           8  -4.4006591376441673E-004
           9  0.12281513530734102     
          10  0.20535779355454675     
          11   1.4894370937820449E-002
          12  -1.7170233864047422E-003
          13  0.21132813276228377     
          14 -0.27295345298426538     
          15  -1.9104456411081924E-002
          16   3.5536117216865178E-003
          17 -0.58070290984443029     
          18 -0.64228624580800564     
          19  -3.1598553872634348E-002
          20   4.6268215945951706E-003
Sym=    11a
Ene=  -0.39009824103007235     
Spin= Alpha
Occup=     1.00000000
           1  -2.3326393074271307E-003
           2  -8.5107294927932297E-003
           3  0.10391628704952861     
           4  -1.0877924614764776E-002
           5   8.4496546690688810E-003
           6  -3.8810023288310611E-002
           7  0.62604143454340611     
           8  -6.5563955794389131E-002
           9  -9.1479373301855558E-004
          10   5.9710131076917564E-003
          11  -7.4188835049558574E-002
          12   7.7667232211590708E-003
          13  -1.1138719497098856E-003
          14   3.1313648350251536E-002
          15 -0.51633570026074427     
          16   5.4069652159713030E-002
          17  -1.1019977212014379E-003
          18   3.0834304556116854E-002
          19 -0.57115643582030695     
          20   5.9818433677132896E-002
Sym=    12a
Ene=  -0.39008854512830599     
Spin= Alpha
Occup=     1.00000000
           1  -1.6084422450052184E-004
           2   3.5774768308815066E-004
           3   1.0940506447517628E-002
           4  0.10426537332430658     
           5  -7.5999006172381903E-005
           6  -1.4802626424996271E-003
           7   6.5600513119757828E-002
           8  0.62727019495420455     
           9  -6.1349077126596137E-005
          10   3.9379465185397763E-004
          11  -7.7623451805964635E-003
          12  -7.4368003589533882E-002
          13   2.2287839465038358E-004
          14  -1.9215419585998858E-003
          15  -5.4298288321221688E-002
          16 -0.51726997447042200     
          17  -4.6667748296760041E-004
          18  -2.0365468665095787E-003
          19  -6.0004064826789709E-002
          20 -0.57199510656202035     
Sym=    13a
Ene=  -0.23723991007057602     
Spin= Alpha
Occup=     0.00000000
           1  -7.0407479136023162E-003
           2  -4.0404101981360366E-002
           3  0.61515676149022858     
           4   5.5997043004058457E-003
           5   1.0828221076294357E-003
           6  -4.7456026612931261E-004
           7  -4.9008494006954749E-002
           8  -4.3950395167917437E-004
           9   3.1130411099811006E-003
          10   2.9406577819209186E-002
          11 -0.56374199166904482     
          12  -5.0658899342214212E-003
          13  -5.6770174031506033E-004
          14   3.4137326049450030E-002
          15 -0.54317742139929881     
          16  -4.9316515618249767E-003
          17   4.6179858364635236E-004
          18  -3.2486926246017921E-002
          19  0.59361593524111966     
          20   5.3462678716697260E-003
Sym=    14a
Ene=  -0.23722708536160059     
Spin= Alpha
Occup=     0.00000000
           1  -1.0197954363150117E-003
           2   4.5221924217584020E-003
           3  -5.3136774767066118E-003
           4  0.61649079364939097     
           5   1.3461635595194033E-003
           6   1.0524713085209080E-005
           7   4.2277016411601965E-004
           8  -4.8833992303683731E-002
           9  -1.9247318075303233E-003
          10  -2.9154531311584137E-003
          11   4.9261714715611938E-003
          12 -0.56454686032176349     
          13  -2.6941830872996766E-005
          14  -4.0928567324624455E-003
          15   4.6852500893368888E-003
          16 -0.54423919315415714     
          17  -2.1577934469084467E-004
          18   3.7924708140750752E-003
          19  -5.1463529130440274E-003
          20  0.59449981895302262     
Sym=    15a
Ene=  -0.10149064676047086     
Spin= Alpha
Occup=     0.00000000
           1   4.9899133115406408E-004
           2   3.6194516809179712E-002
           3 -0.62780184998248356     
           4   5.0540835349164731E-002
           5   1.0230311352469892E-002
           6  -4.2338617620066174E-002
           7  0.71095306426198790     
           8  -5.7230476498079261E-002
           9  -2.1136930280280480E-003
          10   3.9151701531131289E-002
          11 -0.65756057812921598     
          12   5.2941701510756195E-002
          13  -1.9246393399392756E-004
          14  -2.1763155897470274E-002
          15  0.36952254928300859     
          16  -2.9746863202905659E-002
          17   3.1509359747608842E-004
          18  -2.4944056820829886E-002
          19  0.41217146225845652     
          20  -3.3183595382103824E-002
Sym=    16a
Ene=  -0.10145425678704205     
Spin= Alpha
Occup=     0.00000000
           1   1.7905722715906792E-003
           2  -1.3085111238616105E-003
           3  -5.0676293734516160E-002
           4 -0.62885411123764379     
           5  -6.8018057518314011E-004
           6   1.1326772529010587E-003
           7   5.7422719326738141E-002
           8  0.71234127813424575     
           9  -1.0658199509322129E-003
          10  -1.3418655248565977E-003
          11  -5.3127655714033453E-002
          12 -0.65869549322424126     
          13  -3.0192865147626158E-004
          14   1.9234767727558438E-004
          15   2.9794085355971289E-002
          16  0.37014714598559312     
          17   1.4846768878787523E-004
          18   5.3240714854719141E-004
          19   3.3283295437938669E-002
          20  0.41287064666376283     
Sym=    17a
Ene=    9.2387650572780380E-002
Spin= Alpha
Occup=     0.00000000
           1 -0.76851247745056506     
           2 -0.24884382997413237     
           3  -1.8413921672634722E-002
           4  -6.4395246391812889E-004
           5  0.94011017830835875     
           6  -3.6272870337649844E-002
           7  -1.6928174848654443E-002
           8   2.2995389788705027E-003
           9 -0.70488137747241830     
          10  0.26986491096179516     
          11   1.7701935132212535E-002
          12  -1.8683914854662189E-004
          13  0.18594159267337063     
          14  0.40302196129417267     
          15   2.4860370486784307E-002
          16  -2.0850832406299120E-003
          17  0.16073815550835727     
          18 -0.36695573918020996     
          19  -2.1920690198061008E-002
          20   1.9315993325331510E-003
Sym=    18a
Ene=   0.51998654004967571     
Spin= Alpha
Occup=     0.00000000
           1  0.87222080782700229     
           2 -0.17074123700463412     
           3  -5.3227127464181825E-004
           4   2.2910949012800688E-003
           5   4.8933415418406491E-002
           6  0.78318003654224011     
           7   4.4945157127909675E-002
           8  -5.1732950024491976E-003
           9 -0.94506647966335988     
          10 -0.11637617370461560     
          11  -1.1817826198746129E-002
          12   3.3835882303092646E-003
          13 -0.42350184311692662     
          14 -0.55069441954273057     
          15  -3.4171810883656728E-002
          16   4.1894675147356635E-003
          17  0.42684747560055558     
          18 -0.57945946081691291     
          19  -3.1442613050250756E-002
          20   3.6339976003607229E-003
Sym=    19a
Ene=    1.0734081909622646     
Spin= Alpha
Occup=     0.00000000
           1  0.32523546645593387     
           2 -0.97762806033075322     
           3  -5.7354724375921005E-002
           4   7.0087274263276591E-003
           5  0.76646443936841824     
           6  -1.6520284801786558E-003
           7  -1.1057885089530633E-002
           8   1.1669622330342344E-003
           9  0.36241121851173042     
          10  0.97747737954873903     
          11   5.6267147433676397E-002
          12  -6.4860893914434684E-003
          13 -0.64566791427370285     
          14 -0.63047299838125903     
          15  -3.5259241089378737E-002
          16   5.3794847658213303E-003
          17 -0.65072837722777221     
          18  0.66324907911664344     
          19   3.7728472562889574E-002
          20  -5.3175966225660950E-003
Sym=    20a
Ene=    1.4590081136485491     
Spin= Alpha
Occup=     0.00000000
           1  0.18753224392552809     
           2   1.1150459791171874     
           3   7.4431078195788106E-002
           4  -8.3001880944233008E-003
           5   9.4455864650255326E-003
           6   1.2433321993469530     
           7   7.5573290332224735E-002
           8  -5.8151001661604119E-003
           9 -0.18138687290966174     
          10   1.1109280753225532     
          11   5.6126870877837777E-002
          12  -5.9089168714806456E-003
          13  0.54717430815025070     
          14  0.47331219584317674     
          15   2.4133257906418310E-002
          16  -4.0142894117299105E-003
          17 -0.53685980843854741     
          18  0.48598896147996645     
          19   2.9490819102139118E-002
          20  -4.3021547321399189E-003
