5
 energy: -10.852659433615 gnorm: 0.365031173885 xtb: 6.2.2 (9d81278992624c895f80dd42a50cac0aa55982e2)
C        -1.30932900000000    0.38046500000000   -0.24852500000000
C        -0.06928300000000    0.93420900000000    0.43593500000000
C         1.19431600000000    0.55359500000000   -0.31967300000000
N        -1.46819300000000   -1.02972100000000    0.06135100000000
C         1.65248900000000   -0.83854800000000    0.07091200000000
5
 energy: -10.988326789459 gnorm: 0.262889560558 xtb: 6.2.2 (9d81278992624c895f80dd42a50cac0aa55982e2)
C        -1.25700657908687    0.31792895071482   -0.16945503690683
C        -0.06366647891726    0.89600446129340    0.33253804651185
C         1.15590284289498    0.48819306895353   -0.23924412734829
N        -1.47991001570692   -0.94689824113790    0.03140008863577
C         1.64468023081608   -0.75522823982385    0.04476102910749
5
 energy: -11.009109806892 gnorm: 0.542447014881 xtb: 6.2.2 (9d81278992624c895f80dd42a50cac0aa55982e2)
C        -1.15971165577787    0.18624745429167   -0.09006379396333
C        -0.07761189640201    0.85962586581144    0.23196099612019
C         1.12576503673577    0.37061466541441   -0.13184140625217
N        -1.55302780008509   -0.80570488239093    0.00336738689628
C         1.66458631552920   -0.61078310312659   -0.01342318280097
5
 energy: -11.069444784365 gnorm: 0.171095441066 xtb: 6.2.2 (9d81278992624c895f80dd42a50cac0aa55982e2)
C        -1.10636803589758    0.19363448578578   -0.07819550238836
C        -0.07474053522077    0.93025420114639    0.21891521579401
C         1.09368685183741    0.39030848475920   -0.11468300437815
N        -1.71522434511071   -0.87266943712630   -0.00260553273421
C         1.80264606439166   -0.64152773456506   -0.02343117629330
5
 energy: -11.076325117141 gnorm: 0.130557786925 xtb: 6.2.2 (9d81278992624c895f80dd42a50cac0aa55982e2)
C        -1.23855970287858    0.18676851897617    0.02407082520596
C        -0.09791159955625    0.98598620938338    0.11856173864100
C         1.13884960511044    0.32787337637773   -0.05066441609364
N        -1.77522378113083   -0.84675819152743   -0.05904919798984
C         1.97284547845523   -0.65386991320984   -0.03291894976348
5
 energy: -11.093749288215 gnorm: 0.121549031565 xtb: 6.2.2 (9d81278992624c895f80dd42a50cac0aa55982e2)
C        -1.18996559098052    0.13173451826305    0.02580016503940
C        -0.05541564746010    0.88616595319182    0.11511464812758
C         1.16125329010950    0.32109631075533   -0.05921814343394
N        -1.96438487448670   -0.80316194976620   -0.05530484579710
C         2.04851282281784   -0.53583483244400   -0.02639182393594
5
 energy: -11.093496694556 gnorm: 0.179153185369 xtb: 6.2.2 (9d81278992624c895f80dd42a50cac0aa55982e2)
C        -1.15878759246699    0.12644607470708   -0.08522164173350
C        -0.08566818694869    0.73543493063560    0.15597700080293
C         1.11126990394919    0.29852198251354   -0.03586038776324
N        -2.01095996394319   -0.68721455544497    0.02442229453063
C         2.14414583940970   -0.47318843241124   -0.05931726583683
5
 energy: -11.101105928124 gnorm: 0.128742656856 xtb: 6.2.2 (9d81278992624c895f80dd42a50cac0aa55982e2)
C        -1.22347984518449    0.11049773548195   -0.06179816871083
C        -0.05844713732303    0.70865705554689    0.11539365884283
C         1.19790934463777    0.32977265835637   -0.01701288019271
N        -2.02464944028404   -0.69157382707757    0.02281096446733
C         2.10866707815381   -0.45735362230764   -0.05939357440662
5
 energy: -11.100246243887 gnorm: 0.144956215778 xtb: 6.2.2 (9d81278992624c895f80dd42a50cac0aa55982e2)
C        -1.27751188886805    0.07002204979862    0.00305580627732
C        -0.04031809508988    0.69998881745678    0.05953996506264
C         1.25198564520536    0.29042387324226    0.01024070626805
N        -2.25411175594348   -0.66997171268517   -0.01351284250105
C         2.31995609469607   -0.39046302781248   -0.05932363510697
5
 energy: -11.111678409834 gnorm: 0.086696934151 xtb: 6.2.2 (9d81278992624c895f80dd42a50cac0aa55982e2)
C        -1.28469367799079    0.11287511545081    0.01649001087759
C        -0.03462540115380    0.64127081812793    0.08775047455307
C         1.19304066568835    0.25691094417238   -0.05716195596410
N        -2.17393364067403   -0.64254776884298   -0.04046470419007
C         2.30021205413030   -0.36850910890813   -0.00661382527649
5
 energy: -11.091814541100 gnorm: 0.247120032653 xtb: 6.2.2 (9d81278992624c895f80dd42a50cac0aa55982e2)
C        -1.19308454520528    0.05030260886811   -0.11966460879412
C        -0.08500405921487    0.55582836408487    0.08127946600515
C         1.25886702793361    0.32622486926506    0.06146916305871
N        -2.16491364740327   -0.58217503718198    0.09844819185785
C         2.18413522388984   -0.35018080503606   -0.12153221212759
5
 energy: -11.114769157529 gnorm: 0.028526159750 xtb: 6.2.2 (9d81278992624c895f80dd42a50cac0aa55982e2)
C        -1.24514350644911    0.05525727225026   -0.07662243863568
C        -0.05390718658212    0.58560271001352    0.07463810909867
C         1.23176610676900    0.28978145687996    0.04271314550879
N        -2.21727796723438   -0.58640199567439    0.05149654095631
C         2.28456255349664   -0.34423944346935   -0.09222535692810
5
 energy: -11.119086982666 gnorm: 0.077820691825 xtb: 6.2.2 (9d81278992624c895f80dd42a50cac0aa55982e2)
C        -1.29105041185226    0.06658930278167    0.02390932115852
C        -0.02807649236934    0.52724660035872    0.05314491314963
C         1.22259547996341    0.22341153575301   -0.02874300699229
N        -2.29388762232882   -0.55255935925200   -0.03067096243327
C         2.39041904658704   -0.26468807964138   -0.01764026488260
5
 energy: -11.121937045677 gnorm: 0.034524082054 xtb: 6.2.2 (9d81278992624c895f80dd42a50cac0aa55982e2)
C        -1.29697745027958    0.05329301655334    0.00017039963875
C        -0.03902312722576    0.48257087798322    0.04005989055558
C         1.24873311799822    0.22822262854915    0.00246153581341
N        -2.31921777522931   -0.52067550686145   -0.00163501533268
C         2.40648523473646   -0.24341101622425   -0.04105681067507
5
 energy: -11.124413513545 gnorm: 0.049256699846 xtb: 6.2.2 (9d81278992624c895f80dd42a50cac0aa55982e2)
C        -1.27996179843789    0.02097705433613   -0.01093472444212
C        -0.03992950290972    0.41569964385926    0.03160345732602
C         1.25342638691698    0.20842051176299    0.02003184555266
N        -2.36527068689865   -0.46124922740025    0.01328488042283
C         2.43173560132931   -0.18384798255812   -0.05398545885941
5
 energy: -11.127414070640 gnorm: 0.034682749553 xtb: 6.2.2 (9d81278992624c895f80dd42a50cac0aa55982e2)
C        -1.30010049120997    0.00389753093222    0.01182393758158
C        -0.03551924553586    0.31456603505003    0.00683010521288
C         1.26655233428500    0.16852059383170    0.01852736042869
N        -2.41417155410043   -0.38687259649628    0.00448960157691
C         2.48323895656129   -0.10011156331766   -0.04167100480008
5
 energy: -11.129237659273 gnorm: 0.020124307859 xtb: 6.2.2 (9d81278992624c895f80dd42a50cac0aa55982e2)
C        -1.30362513971782   -0.02017473368086    0.03044429709745
C        -0.01964920697215    0.22161906855826   -0.00808355251506
C         1.26853985482365    0.13625734939815    0.00954903090278
N        -2.43468063124610   -0.31778882753132   -0.00566753501124
C         2.48941512311246   -0.01991285674423   -0.02624224047395
5
 energy: -11.125505793032 gnorm: 0.105776735438 xtb: 6.2.2 (9d81278992624c895f80dd42a50cac0aa55982e2)
C        -1.32852285165958   -0.06195859827597    0.04055241968651
C        -0.00395354066259    0.03262824414528   -0.03479348121782
C         1.29387884380075    0.07988193183454    0.01011613641166
N        -2.53090067370046   -0.18197208359855   -0.00211552456274
C         2.56949822222192    0.13142050589472   -0.01375955031763
5
 energy: -11.130426383726 gnorm: 0.011761626908 xtb: 6.2.2 (9d81278992624c895f80dd42a50cac0aa55982e2)
C        -1.31395757898862   -0.03526150740719    0.02434104337072
C        -0.01865833292579    0.12454039624174   -0.01521051650399
C         1.27775685663552    0.10832401010744    0.01063420364464
N        -2.46435525017764   -0.24826416976361    0.00378699618982
C         2.51921430545656    0.05066127082165   -0.02355172670121
5
 energy: -11.130591260403 gnorm: 0.013627725703 xtb: 6.2.2 (9d81278992624c895f80dd42a50cac0aa55982e2)
C        -1.31137266954569   -0.04519741596375    0.01782121671187
C        -0.01571215040868    0.10217078790000   -0.01483631991536
C         1.28343136212622    0.10983827716683    0.01261222957064
N        -2.47363473008284   -0.23249764538944    0.01007982821505
C         2.51728818791102    0.06568599628638   -0.02567695458222
5
 energy: -11.130837339569 gnorm: 0.018580897646 xtb: 6.2.2 (9d81278992624c895f80dd42a50cac0aa55982e2)
C        -1.30856758084070   -0.05571198440318    0.01230840795325
C        -0.01418271403270    0.06043231361974   -0.01159964040956
C         1.28043156305006    0.09369482290577    0.00957499276754
N        -2.47866685653532   -0.19805445213565    0.01368951127368
C         2.52098558835870    0.09963930001333   -0.02397327158493
5
 energy: -11.130888395054 gnorm: 0.007833317493 xtb: 6.2.2 (9d81278992624c895f80dd42a50cac0aa55982e2)
C        -1.31049386844382   -0.07492597940328    0.03636559603264
C        -0.01289072416501    0.03047390372261   -0.02757986836660
C         1.28314642758465    0.08233683234788    0.00688340306644
N        -2.48172403238742   -0.16555653965488    0.00404910397293
C         2.52196219741163    0.12767178298770   -0.01971823470542
5
 energy: -11.130609291653 gnorm: 0.018511355610 xtb: 6.2.2 (9d81278992624c895f80dd42a50cac0aa55982e2)
C        -1.31698864338144   -0.05897526054034    0.00319993033883
C        -0.01225643122844    0.01820464107929   -0.02568037625433
C         1.28682901694372    0.03916982816238    0.02680616416513
N        -2.47964110576315   -0.16091034009808    0.02355139680483
C         2.52205716342934    0.16251113139676   -0.02787711505447
5
 energy: -11.130991185547 gnorm: 0.006958660119 xtb: 6.2.2 (9d81278992624c895f80dd42a50cac0aa55982e2)
C        -1.31298706656988   -0.06413795239345    0.01490634739123
C        -0.01284003895530    0.04233745247311   -0.01516419977034
C         1.28403954924157    0.08230066967969    0.00942074908087
N        -2.47852909163896   -0.17971221669120    0.01354883362235
C         2.52031664792261    0.11921204693187   -0.02271173032412
5
 energy: -11.131013081127 gnorm: 0.003852516884 xtb: 6.2.2 (9d81278992624c895f80dd42a50cac0aa55982e2)
C        -1.31238138688593   -0.06847272930336    0.01912003524510
C        -0.01243021357530    0.03528976865652   -0.01761208054282
C         1.28406737222801    0.07987132531000    0.00828497550384
N        -2.48182547007951   -0.17238969340143    0.01186359804364
C         2.52256969831276    0.12570132873830   -0.02165652824977
5
 energy: -11.131030579151 gnorm: 0.002428664455 xtb: 6.2.2 (9d81278992624c895f80dd42a50cac0aa55982e2)
C        -1.31275182052430   -0.06925186428656    0.01698465752771
C        -0.01234660438580    0.03349915569996   -0.01572951135893
C         1.28422613715497    0.07919671149970    0.00732438563016
N        -2.48171325291846   -0.17072153349066    0.01278354781518
C         2.52258554067364    0.12727753057757   -0.02136307961413
5
 energy: -11.131084349017 gnorm: 0.002944827481 xtb: 6.2.2 (9d81278992624c895f80dd42a50cac0aa55982e2)
C        -1.31340573697630   -0.07652600447933    0.00831042794261
C        -0.01137698952257    0.01943101280711   -0.00619617655316
C         1.28476834154415    0.07543003305463    0.00016306658777
N        -2.48273608331189   -0.15715464114393    0.01637697329788
C         2.52275046826664    0.13881959976154   -0.01865429127511
5
 energy: -11.131093403987 gnorm: 0.001821762547 xtb: 6.2.2 (9d81278992624c895f80dd42a50cac0aa55982e2)
C        -1.31283177732883   -0.08004561746952    0.00682575604291
C        -0.01101792685242    0.01305791976089   -0.00298547528928
C         1.28469811539629    0.07469765993691   -0.00355458848480
N        -2.48317134494783   -0.15105077526088    0.01680728238349
C         2.52232293373283    0.14334081303262   -0.01709297465232
5
 energy: -11.131096362527 gnorm: 0.000944442973 xtb: 6.2.2 (9d81278992624c895f80dd42a50cac0aa55982e2)
C        -1.31207577798361   -0.08151791235028    0.00698066701791
C        -0.01090182729175    0.00927915671984   -0.00118303728359
C         1.28456684671724    0.07483553016764   -0.00643160577463
N        -2.48324847569579   -0.14802151428213    0.01648422295956
C         2.52165923425395    0.14542473974495   -0.01585024691925
