      -----------------------------------------------------------      
     |                   =====================                   |     
     |                           x T B                           |     
     |                   =====================                   |     
     |                         S. Grimme                         |     
     |          Mulliken Center for Theoretical Chemistry        |     
     |                    University of Bonn                     |     
      -----------------------------------------------------------      

   * xtb version 6.2.2 (9d81278992624c895f80dd42a50cac0aa55982e2) compiled by '@Darwin' on 04/03/2020

   xtb is free software: you can redistribute it and/or modify it under
   the terms of the GNU Lesser General Public License as published by
   the Free Software Foundation, either version 3 of the License, or
   (at your option) any later version.
   
   xtb is distributed in the hope that it will be useful,
   but WITHOUT ANY WARRANTY; without even the implied warranty of
   MERCHANTABILITY or FITNESS FOR A PARTICULAR PURPOSE.  See the
   GNU Lesser General Public License for more details.
   
   Cite this work as:
   * S. Grimme, C. Bannwarth, P. Shushkov, J. Chem. Theory Comput., 2017,
     13, 1989-2009. DOI: 10.1021/acs.jctc.7b00118
   * C. Bannwarth, S. Ehlert and S. Grimme., J. Chem. Theory Comput., 2019,
     15, 1652-1671. DOI: 10.1021/acs.jctc.8b01176
   * P. Pracht, E. Caldeweyher, S. Ehlert, S. Grimme, ChemRxiv, 2019, preprint.
     DOI: 10.26434/chemrxiv.8326202.v1
   
   for DFT-D4:
   * E. Caldeweyher, C. Bannwarth and S. Grimme, J. Chem. Phys., 2017,
     147, 034112. DOI: 10.1063/1.4993215
   * E. Caldeweyher, S. Ehlert, A. Hansen, H. Neugebauer, S. Spicher,
     C. Bannwarth and S. Grimme, J. Chem. Phys., 2019, 150, 154122.
     DOI: 10.1063/1.5090222
   
   for sTDA-xTB:
   * S. Grimme and C. Bannwarth, J. Chem. Phys., 2016, 145, 054103.
     DOI: 10.1063/1.4959605
   
   in the mass-spec context:
   * V. Asgeirsson, C. Bauer and S. Grimme, Chem. Sci., 2017, 8, 4879.
     DOI: 10.1039/c7sc00601b
   
   for metadynamics refer to:
   * S. Grimme, J. Chem. Theory Comput., 2019, 155, 2847-2862
     DOI: 10.1021/acs.jctc.9b00143
   
   with help from (in alphabetical order)
   C. Bannwarth, F. Bohle, G. Brandenburg, E. Caldeweyher, M. Checinski,
   S. Dohm, S. Ehlert, S. Ehrlich, F. März, H. Neugebauer, J. Pisarek,
   P. Pracht, P. Shushkov, and S. Spicher.
   
 * started run on 2020/05/12 at 11:44:27.929     

           -------------------------------------------------
          |                Calculation Setup                |
           -------------------------------------------------

          program call               : xtb --input H3C1N1_0_S_0.input H3C1N1_0_S_0.xyz --ohess --molden --namespace H3C1N1_0_S_0 output.out
          calculation namespace      : H3C1N1_0_S_0
          coordinate file            : H3C1N1_0_S_0.xyz
          number of atoms            :                     5
          number of electrons        :                    12
          charge                     :                     0
          spin                       :                   0.0
          first test random number   :      0.00669951550495

   ID    Z sym.   atoms
    1    6 C      1
    2    7 N      2
    3    1 H      3-5

           -------------------------------------------------
          |                 G F N 2 - x T B                 |
           -------------------------------------------------

        Reference                      10.1021/acs.jctc.8b01176
      * Hamiltonian:
        H0-scaling (s, p, d)           1.850000    2.230000    2.230000
        zeta-weighting                 0.500000
      * Dispersion:
        s8                             2.700000
        a1                             0.520000
        a2                             5.000000
        s9                             5.000000
      * Repulsion:
        kExp                           1.500000    1.000000
        rExp                           1.000000
      * Coulomb:
        alpha                          2.000000
        third order                    shell-resolved
        anisotropic                    true
        a3                             3.000000
        a5                             4.000000
        cn-shift                       1.200000
        cn-exp                         4.000000
        max-rad                        5.000000


          ...................................................
          :                      SETUP                      :
          :.................................................:
          :  # basis functions                  11          :
          :  # atomic orbitals                  11          :
          :  # shells                            7          :
          :  # electrons                        12          :
          :  max. iterations                   250          :
          :  Hamiltonian                  GFN2-xTB          :
          :  restarted?                      false          :
          :  GBSA solvation                  false          :
          :  PC potential                    false          :
          :  electronic temp.          300.0000000     K    :
          :  accuracy                    1.0000000          :
          :  -> integral cutoff          0.2500000E+02      :
          :  -> integral neglect         0.1000000E-07      :
          :  -> SCF convergence          0.1000000E-05 Eh   :
          :  -> wf. convergence          0.1000000E-03 e    :
          :  Broyden damping             0.4000000          :
          ...................................................

 iter      E             dE          RMSdq      gap      omega  full diag
   1     -6.4544487 -0.645445E+01  0.394E+00    0.00       0.0  T
   2     -6.4634263 -0.897760E-02  0.209E+00    0.00       1.0  T
   3     -6.4639183 -0.492039E-03  0.696E-01    0.00       1.0  T
   4     -6.4642362 -0.317854E-03  0.154E-01    0.00       1.0  T
   5     -6.4639309  0.305230E-03  0.429E-01    0.01       1.0  T
   6     -6.4642652 -0.334277E-03  0.911E-02    0.00       1.0  T
   7     -6.4642704 -0.522117E-05  0.426E-02    0.00       1.0  T
   8     -6.4642760 -0.554794E-05  0.369E-03    0.00      12.1  T
   9     -6.4642760 -0.183054E-07  0.182E-03    0.00      24.5  T
  10     -6.4642760  0.261426E-08  0.313E-03    0.00      14.3  T
  11     -6.4642760 -0.101532E-07  0.620E-05    0.00     721.0  T
  12     -6.4642760 -0.665423E-11  0.504E-06    0.00    8878.5  T

   *** convergence criteria satisfied after 12 iterations ***

         #    Occupation            Energy/Eh            Energy/eV
      -------------------------------------------------------------
         1        2.0000           -0.6312770             -17.1779
         2        2.0000           -0.5670831             -15.4311
         3        2.0000           -0.5165301             -14.0555
         4        2.0000           -0.5165299             -14.0555
         5        2.0000           -0.4379640             -11.9176
         6        1.0000           -0.3761095             -10.2345 (HOMO)
         7        1.0000           -0.3761094             -10.2345 (LUMO)
         8                          0.0840423               2.2869
         9                          0.1081164               2.9420
        10                          0.1664892               4.5304
        11                          0.1664910               4.5304
      -------------------------------------------------------------
                  HL-Gap            0.0000000 Eh            0.0000 eV
             Fermi-level           -0.3761095 Eh          -10.2345 eV

 SCC (total)                   0 d,  0 h,  0 min,  0.002 sec
 SCC setup                      ...        0 min,  0.000 sec (  3.904%)
 Dispersion                     ...        0 min,  0.000 sec (  0.501%)
 integral evaluation            ...        0 min,  0.000 sec ( 21.478%)
 zeroth order Hamiltonian       ...        0 min,  0.000 sec (  0.597%)
 iterations                     ...        0 min,  0.001 sec ( 46.156%)
 molecular gradient             ...        0 min,  0.000 sec ( 23.388%)
 printout                       ...        0 min,  0.000 sec (  3.558%)

         :::::::::::::::::::::::::::::::::::::::::::::::::::::
         ::                     SUMMARY                     ::
         :::::::::::::::::::::::::::::::::::::::::::::::::::::
         :: total energy              -6.409371534094 Eh    ::
         :: gradient norm              0.080323248775 Eh/a0 ::
         :: HOMO-LUMO gap              0.000000219451 eV    ::
         ::.................................................::
         :: SCC energy                -6.464276008023 Eh    ::
         :: -> isotropic ES            0.009475808916 Eh    ::
         :: -> anisotropic ES          0.000979246377 Eh    ::
         :: -> anisotropic XC          0.010921524129 Eh    ::
         :: -> dispersion             -0.000918885797 Eh    ::
         :: repulsion energy           0.054904456045 Eh    ::
         :: add. restraining           0.000000000000 Eh    ::
         :::::::::::::::::::::::::::::::::::::::::::::::::::::

      ----------------------------------------------------------- 
     |                   =====================                   |
     |                        A N C O P T                        |
     |                   =====================                   |
     |               Approximate Normal Coordinate               |
     |                Rational Function Optimizer                |
      ----------------------------------------------------------- 

          ...................................................
          :                      SETUP                      :
          :.................................................:
          :   optimization level            normal          :
          :   max. optcycles                   200          :
          :   ANC micro-cycles                  20          :
          :   degrees of freedom                 9          :
          :.................................................:
          :   RF solver                   davidson          :
          :   write xtbopt.log                true          :
          :   linear?                        false          :
          :   energy convergence         0.5000000E-05 Eh   :
          :   grad. convergence          0.1000000E-02 Eh/α :
          :   maximium RF displ.         1.0000000          :
          :   Hlow (freq-cutoff)         0.1000000E-01      :
          :   Hmax (freq-cutoff)         5.0000000          :
          :   S6 in model hess.         20.0000000          :
          ...................................................

generating ANC from model Hessian ...
Using Lindh-Hessian (1995)
 Shifting diagonal of input Hessian by    0.0000000000000000     
 Lowest  eigenvalues of input Hessian
   -0.000000   -0.000000   -0.000000   -0.000000    0.000000    0.000000
    0.088167    0.088167    0.105996    0.105996    0.127657    0.416628
    1.033081    1.033084    1.211120
 Highest eigenvalues
    0.105996    0.127657    0.416628    1.033081    1.033084    1.211120


........................................................................
.............................. CYCLE    1 ..............................
........................................................................
   1     -6.4642760 -0.646428E+01  0.201E-06    0.00       0.0  T
   2     -6.4642760  0.799361E-13  0.636E-06    0.00    7027.7  T
   3     -6.4642760 -0.817124E-13  0.254E-06    0.00   17624.7  T
     SCC iter.                  ...        0 min,  0.000 sec
     gradient                   ...        0 min,  0.000 sec
 * total energy  :    -6.4093715 Eh     change        0.7162360E-10 Eh
   gradient norm :     0.0803232 Eh/α   predicted     0.0000000E+00 (-100.00%)
   displ. norm   :     0.1195286 α      lambda       -0.7927478E-02
   maximum displ.:     0.0915814 α      in ANC's #6, #9, #5, ...

........................................................................
.............................. CYCLE    2 ..............................
........................................................................
   1     -6.4801562 -0.648016E+01  0.570E-01    0.00       0.0  T
   2     -6.4804889 -0.332774E-03  0.256E-01    0.00       1.0  T
   3     -6.4805131 -0.241376E-04  0.129E-01    0.00       1.0  T
   4     -6.4805206 -0.750582E-05  0.456E-02    0.00       1.0  T
   5     -6.4804973  0.232734E-04  0.122E-01    0.00       1.0  T
   6     -6.4805239 -0.266260E-04  0.678E-03    0.00       6.6  T
   7     -6.4805239 -0.795507E-08  0.496E-04    0.00      90.2  T
   8     -6.4805239 -0.285907E-09  0.155E-04    0.00     288.0  T
     SCC iter.                  ...        0 min,  0.001 sec
     gradient                   ...        0 min,  0.000 sec
 * total energy  :    -6.4148082 Eh     change       -0.5436688E-02 Eh
   gradient norm :     0.0364763 Eh/α   predicted    -0.4020368E-02 ( -26.05%)
   displ. norm   :     0.0620164 α      lambda       -0.2033172E-02
   maximum displ.:     0.0493008 α      in ANC's #9, #6, #5, ...

........................................................................
.............................. CYCLE    3 ..............................
........................................................................
   1     -6.4876061 -0.648761E+01  0.337E-01    0.00       0.0  T
   2     -6.4877008 -0.947307E-04  0.153E-01    0.00       1.0  T
   3     -6.4877065 -0.571698E-05  0.762E-02    0.00       1.0  T
   4     -6.4877078 -0.127017E-05  0.334E-02    0.00       1.3  T
   5     -6.4877092 -0.137054E-05  0.174E-02    0.00       2.6  T
   6     -6.4877096 -0.424421E-06  0.248E-03    0.00      18.1  T
   7     -6.4877096 -0.145771E-08  0.131E-04    0.00     342.4  T
   8     -6.4877096 -0.224620E-11  0.592E-05    0.00     755.1  T
     SCC iter.                  ...        0 min,  0.000 sec
     gradient                   ...        0 min,  0.000 sec
 * total energy  :    -6.4157299 Eh     change       -0.9216874E-03 Eh
   gradient norm :     0.0092227 Eh/α   predicted    -0.1020497E-02 (  10.72%)
   displ. norm   :     0.0248834 α      lambda       -0.1971778E-03
   maximum displ.:     0.0192447 α      in ANC's #5, #6, #9, ...

........................................................................
.............................. CYCLE    4 ..............................
........................................................................
   1     -6.4856581 -0.648566E+01  0.724E-02    0.00       0.0  T
   2     -6.4856638 -0.568959E-05  0.323E-02    0.00       1.4  T
   3     -6.4856640 -0.251887E-06  0.149E-02    0.00       3.0  T
   4     -6.4856638  0.199934E-06  0.177E-02    0.00       2.5  T
   5     -6.4856640 -0.195721E-06  0.113E-02    0.00       3.9  T
   6     -6.4856642 -0.134651E-06  0.735E-04    0.00      60.8  T
   7     -6.4856642 -0.339444E-10  0.301E-05    0.00    1484.4  T
     SCC iter.                  ...        0 min,  0.000 sec
     gradient                   ...        0 min,  0.000 sec
 * total energy  :    -6.4158492 Eh     change       -0.1192859E-03 Eh
   gradient norm :     0.0029822 Eh/α   predicted    -0.9865015E-04 ( -17.30%)
   displ. norm   :     0.0082488 α      lambda       -0.2177572E-04
   maximum displ.:     0.0060610 α      in ANC's #6, #5, #9, ...

........................................................................
.............................. CYCLE    5 ..............................
........................................................................
   1     -6.4850090 -0.648501E+01  0.173E-02    0.00       0.0  T
   2     -6.4850094 -0.346228E-06  0.700E-03    0.00       6.4  T
   3     -6.4850094 -0.126432E-07  0.302E-03    0.00      14.8  T
   4     -6.4850094  0.261874E-07  0.513E-03    0.00       8.7  T
   5     -6.4850094 -0.184771E-07  0.296E-03    0.00      15.1  T
   6     -6.4850094 -0.962967E-08  0.151E-04    0.00     295.9  T
   7     -6.4850094 -0.123279E-11  0.812E-06    0.00    5510.6  T
     SCC iter.                  ...        0 min,  0.000 sec
     gradient                   ...        0 min,  0.000 sec
 * total energy  :    -6.4158605 Eh     change       -0.1133236E-04 Eh
   gradient norm :     0.0002329 Eh/α   predicted    -0.1088926E-04 (  -3.91%)
   displ. norm   :     0.0012088 α      lambda       -0.1487367E-06
   maximum displ.:     0.0009910 α      in ANC's #5, #6, #9, ...

........................................................................
.............................. CYCLE    6 ..............................
........................................................................
   1     -6.4849382 -0.648494E+01  0.309E-03    0.00       0.0  T
   2     -6.4849382 -0.796198E-08  0.136E-03    0.00      32.9  T
   3     -6.4849382 -0.380968E-09  0.793E-04    0.00      56.4  T
   4     -6.4849382  0.328188E-08  0.147E-03    0.00      30.4  T
   5     -6.4849382 -0.356948E-08  0.918E-05    0.00     487.1  T
     SCC iter.                  ...        0 min,  0.000 sec
     gradient                   ...        0 min,  0.000 sec
 * total energy  :    -6.4158606 Eh     change       -0.6779643E-07 Eh
   gradient norm :     0.0000959 Eh/α   predicted    -0.7533066E-07 (  11.11%)
   displ. norm   :     0.0003461 α      lambda       -0.1838056E-07
   maximum displ.:     0.0002621 α      in ANC's #5, #6, #9, ...

   *** GEOMETRY OPTIMIZATION CONVERGED AFTER 6 ITERATIONS ***

------------------------------------------------------------------------
 total energy gain   :        -0.0064891 Eh       -4.0719 kcal/mol
 total RMSD          :         0.0676931 a0        0.0358 Å
 total power (kW/mol):        -2.8395048 (step)-2054.4081 (real)
------------------------------------------------------------------------

 ANCopt (total)                0 d,  0 h,  0 min,  0.008 sec
 optimizer setup                ...        0 min,  0.000 sec (  0.833%)
 model hessian                  ...        0 min,  0.000 sec (  1.614%)
 ANC generation                 ...        0 min,  0.000 sec (  0.773%)
 coordinate transformation      ...        0 min,  0.000 sec (  0.149%)
 single point calculation       ...        0 min,  0.007 sec ( 90.098%)
 optimization log               ...        0 min,  0.000 sec (  1.678%)
 hessian update                 ...        0 min,  0.000 sec (  0.167%)
 rational function              ...        0 min,  0.000 sec (  1.721%)

================
 final structure:
================
5
 xtb: 6.2.2 (9d81278992624c895f80dd42a50cac0aa55982e2)
C        -0.02849311764883    0.00056189319845   -0.00280299399822
N         1.31423929125737   -0.02591725497769    0.12928763396259
H        -0.53126549699785   -0.15826921138386    0.96821854215444
H        -0.37420375119065    0.97116034248007   -0.40194334105275
H        -0.38027692542004   -0.78753576931696   -0.69275984106605

 Bond Distances (Angstroems)
 ---------------------------
C1-N2=1.3495         C1-H3=1.1049         C1-H4=1.1049         C1-H5=1.1049         N2-C1=1.3495         H3-C1=1.1049         
H4-C1=1.1049         H5-C1=1.1049         
 C  H  Rav=1.1049 sigma=0.0000  Rmin=1.1049  Rmax=1.1049     3
 N  C  Rav=1.3495 sigma=0.0000  Rmin=1.3495  Rmax=1.3495     1

 selected bond angles (degree)
 --------------------
H3-C1-N2=111.34                H4-C1-N2=111.34                H4-C1-H3=107.54                H5-C1-N2=111.34                
H5-C1-H3=107.54                H5-C1-H4=107.54                

 selected dihedral angles (degree)
 ---------------------------------

           -------------------------------------------------
          |                Final Singlepoint                |
           -------------------------------------------------

          ...................................................
          :                      SETUP                      :
          :.................................................:
          :  # basis functions                  11          :
          :  # atomic orbitals                  11          :
          :  # shells                            7          :
          :  # electrons                        12          :
          :  max. iterations                   250          :
          :  Hamiltonian                  GFN2-xTB          :
          :  restarted?                      false          :
          :  GBSA solvation                  false          :
          :  PC potential                    false          :
          :  electronic temp.          300.0000000     K    :
          :  accuracy                    1.0000000          :
          :  -> integral cutoff          0.2500000E+02      :
          :  -> integral neglect         0.1000000E-07      :
          :  -> SCF convergence          0.1000000E-05 Eh   :
          :  -> wf. convergence          0.1000000E-03 e    :
          :  Broyden damping             0.4000000          :
          ...................................................

 iter      E             dE          RMSdq      gap      omega  full diag
   1     -6.4849382 -0.648494E+01  0.107E-03    0.00       0.0  T
   2     -6.4849381  0.684902E-07  0.652E-03    0.00       6.9  T
   3     -6.4849382 -0.703724E-07  0.167E-05    0.00    2683.2  T
   4     -6.4849382 -0.282441E-12  0.540E-06    0.00    8279.3  T

   *** convergence criteria satisfied after 4 iterations ***

         #    Occupation            Energy/Eh            Energy/eV
      -------------------------------------------------------------
         1        2.0000           -0.6444354             -17.5360
         2        2.0000           -0.5746301             -15.6365
         3        2.0000           -0.5238264             -14.2540
         4        2.0000           -0.5238264             -14.2540
         5        2.0000           -0.4300949             -11.7035
         6        1.0000           -0.3641543              -9.9091 (HOMO)
         7        1.0000           -0.3641543              -9.9091 (LUMO)
         8                          0.1237948               3.3686
         9                          0.1739006               4.7321
        10                          0.1739006               4.7321
        11                          0.2569536               6.9921
      -------------------------------------------------------------
                  HL-Gap            0.0000000 Eh            0.0000 eV
             Fermi-level           -0.3641543 Eh           -9.9091 eV

 SCC (total)                   0 d,  0 h,  0 min,  0.001 sec
 SCC setup                      ...        0 min,  0.000 sec (  5.619%)
 Dispersion                     ...        0 min,  0.000 sec (  0.788%)
 integral evaluation            ...        0 min,  0.000 sec ( 35.696%)
 zeroth order Hamiltonian       ...        0 min,  0.000 sec (  0.617%)
 iterations                     ...        0 min,  0.000 sec ( 18.029%)
 molecular gradient             ...        0 min,  0.000 sec ( 35.015%)
 printout                       ...        0 min,  0.000 sec (  3.491%)

         :::::::::::::::::::::::::::::::::::::::::::::::::::::
         ::                     SUMMARY                     ::
         :::::::::::::::::::::::::::::::::::::::::::::::::::::
         :: total energy              -6.415860593900 Eh    ::
         :: gradient norm              0.000095868921 Eh/a0 ::
         :: HOMO-LUMO gap              0.000000071796 eV    ::
         ::.................................................::
         :: SCC energy                -6.484938159425 Eh    ::
         :: -> isotropic ES            0.011000927887 Eh    ::
         :: -> anisotropic ES          0.001101331844 Eh    ::
         :: -> anisotropic XC          0.010733089415 Eh    ::
         :: -> dispersion             -0.000920414028 Eh    ::
         :: repulsion energy           0.069077550652 Eh    ::
         :: add. restraining           0.000000000000 Eh    ::
         :::::::::::::::::::::::::::::::::::::::::::::::::::::

           ------------------------------------------------- 
          |                Numerical Hessian                |
           ------------------------------------------------- 
step length          :   0.00500
SCC accuracy         :   0.30000
Hessian scale factor :   1.00000
frozen atoms in %    :   0.00000    0
RMS gradient         :   0.00010
estimated CPU  time      0.00 min
estimated wall time      0.00 min

writing file <hessian>.

 projected vibrational frequencies (cm-1)
eigval :       -0.00    -0.00    -0.00    -0.00     0.00     0.00
eigval :      862.02   862.14  1270.30  1306.33  1317.39  1318.72
eigval :     2769.90  2770.17  2819.16
           -------------------------------------------------
          |                Property Printout                |
           -------------------------------------------------

    * Orbital Energies and Occupations

         #    Occupation            Energy/Eh            Energy/eV
      -------------------------------------------------------------
         1        2.0000           -0.6444354             -17.5360
         2        2.0000           -0.5746301             -15.6365
         3        2.0000           -0.5238264             -14.2540
         4        2.0000           -0.5238264             -14.2540
         5        2.0000           -0.4300949             -11.7035
         6        1.0000           -0.3641543              -9.9091 (HOMO)
         7        1.0000           -0.3641542              -9.9091 (LUMO)
         8                          0.1237947               3.3686
         9                          0.1739006               4.7321
        10                          0.1739006               4.7321
        11                          0.2569535               6.9921
      -------------------------------------------------------------
                  HL-Gap            0.0000000 Eh            0.0000 eV
             Fermi-level           -0.3641543 Eh           -9.9091 eV

     #   Z        covCN         q      C6AA      α(0)
     1   6 C      3.677    -0.001    20.823     6.537
     2   7 N      0.910    -0.260    26.757     7.482
     3   1 H      0.922     0.087     1.907     2.160
     4   1 H      0.922     0.087     1.907     2.160
     5   1 H      0.922     0.087     1.907     2.160

 Mol. C6AA /au·bohr⁶  :        192.093397
 Mol. C8AA /au·bohr⁸  :       3990.115881
 Mol. α(0) /au        :         20.498267


Wiberg/Mayer (AO) data.
largest (>0.10) Wiberg bond orders for each atom
          total WBO             WBO to atom ...
     1  C   3.938        N    2 1.287    H    5 0.884    H    3 0.884    H    4 0.884
     2  N   1.322        C    1 1.287
     3  H   0.899        C    1 0.884
     4  H   0.899        C    1 0.884
     5  H   0.899        C    1 0.884

MOs/occ written to file <molden.input>


molecular dipole:
                 x           y           z       tot (Debye)
 q only:       -0.858       0.017      -0.084
   full:       -1.277       0.025      -0.126       3.263
molecular quadrupole (traceless):
                xx          xy          yy          xz          yz          zz
 q only:       -1.914       0.057       0.970      -0.284       0.006       0.944
  q+dip:       -3.776       0.112       1.915      -0.560       0.011       1.862
   full:       -4.076       0.121       2.067      -0.605       0.012       2.010

           -------------------------------------------------
          |                Geometry Summary                 |
           -------------------------------------------------

      molecular mass/u    :       29.0412614
   center of mass at/Å    :        0.5774537      -0.0113905       0.0568047
  moments of inertia/u·Å² :        0.3202856E+01   0.1682719E+02   0.1682719E+02
rotational constants/cm⁻¹ :        0.5263313E+01   0.1001809E+01   0.1001809E+01

 * 4 selected distances

     #   Z        #   Z                                     value/Å
     1   6 C      2   7 N                                 1.3494737 (max)
     1   6 C      3   1 H                                 1.1049390
     1   6 C      4   1 H                                 1.1049390 (min)
     1   6 C      5   1 H                                 1.1049390

 * 2 distinct bonds (by element types)

   Z      Z             #   av. dist./Å        max./Å        min./Å
   1 H    6 C           3     1.1049390     1.1049390     1.1049390
   6 C    7 N           1     1.3494737     1.3494737     1.3494737

           -------------------------------------------------
          |               Frequency Printout                |
           -------------------------------------------------
Molecule has the following symmetry elements: (C3) 3*(sigma) 
It seems to be the C3v point group
 projected vibrational frequencies (cm-1)
eigval :       -0.00    -0.00    -0.00    -0.00     0.00     0.00
eigval :      862.02   862.14  1270.30  1306.33  1317.39  1318.72
eigval :     2769.90  2770.17  2819.16
 reduced masses (amu)
   1:  3.16   2:  9.15   3: 12.13   4: 13.44   5: 11.86   6:  6.47   7:  3.99   8:  3.99
   9: 12.92  10:  2.12  11:  1.44  12:  1.45  13:  1.93  14:  1.92  15:  1.16
 IR intensities (amu)
   1:  0.10   2:  0.18   3:  0.34   4:  0.31   5:  0.07   6:  0.11   7:  0.08   8:  0.08
   9:  0.43  10:  0.16  11:  0.18  12:  0.17  13:  0.12  14:  0.12  15:  0.03
 Raman intensities (amu)
   1:  0.00   2:  0.00   3:  0.00   4:  0.00   5:  0.00   6:  0.00   7:  0.00   8:  0.00
   9:  0.00  10:  0.00  11:  0.00  12:  0.00  13:  0.00  14:  0.00  15:  0.00
 output can be read by thermo (or use thermo option).
 writing <g98.out> molden fake output.
 recommended (thermochemical) frequency scaling factor: 1.0
           -------------------------------------------------
          |             Thermodynamic Functions             |
           -------------------------------------------------

c3v symmetry found (for desy threshold:  0.10E+00) used in thermo

          ...................................................
          :                      SETUP                      :
          :.................................................:
          :  # frequencies                           9      :
          :  # imaginary freq.                       0      :
          :  linear?                             false      :
          :  only rotor calc.                    false      :
          :  symmetry                              c3v      :
          :  rotational number                       3      :
          :  scaling factor                  1.0000000      :
          :  rotor cutoff                   50.0000000 cm⁻¹ :
          :  imag. cutoff                  -20.0000000 cm⁻¹ :
          :.................................................:

    mode    ω/cm⁻¹     T·S(HO)/kcal·mol⁻¹    T·S(FR)/kcal·mol⁻¹   T·S(vib)
   ------------------------------------------------------------------------
   ------------------------------------------------------------------------

   temp. (K)  partition function   enthalpy   heat capacity  entropy
                                   cal/mol     cal/K/mol   cal/K/mol   J/K/mol
 298.15  VIB   1.04                  106.002      1.696      0.433
         ROT   767.                  888.752      2.981     16.181
         INT   797.                  994.755      4.677     16.614
         TR   0.151E+27             1481.254      4.968     36.016
         TOT                        2476.0085     9.6454    52.6298   220.2030

   temp. (K)  partition function   enthalpy   heat capacity  entropy
                                   cal/mol     cal/K/mol   cal/K/mol   J/K/mol
 120.00  VIB   1.00                    0.162      0.014      0.001
         ROT   196.                  357.707      2.981     13.468
         INT   196.                  357.869      2.995     13.469
         TR   0.387E+26              596.178      4.968     31.497
         TOT                         954.0472     7.9631    44.9661   188.1381

   temp. (K)  partition function   enthalpy   heat capacity  entropy
                                   cal/mol     cal/K/mol   cal/K/mol   J/K/mol
 100.00  VIB   1.00                    0.020      0.003      0.000
         ROT   149.                  298.089      2.981     12.924
         INT   149.                  298.109      2.983     12.925
         TR   0.294E+26              496.815      4.968     30.591
         TOT                         794.9243     7.9516    43.5160   182.0708

   temp. (K)  partition function   enthalpy   heat capacity  entropy
                                   cal/mol     cal/K/mol   cal/K/mol   J/K/mol
  80.00  VIB   1.00                    0.001      0.000     -0.000
         ROT   107.                  238.471      2.981     12.259
         INT   107.                  238.472      2.981     12.259
         TR   0.210E+26              397.452      4.968     29.483
         TOT                         635.9241     7.9492    41.7425   174.6507

   temp. (K)  partition function   enthalpy   heat capacity  entropy
                                   cal/mol     cal/K/mol   cal/K/mol   J/K/mol
  60.00  VIB   1.00                    0.000      0.000     -0.000
         ROT   69.2                  178.853      2.981     11.402
         INT   69.2                  178.853      2.981     11.402
         TR   0.137E+26              298.089      4.968     28.055
         TOT                         476.9424     7.9490    39.4564   165.0856

   temp. (K)  partition function   enthalpy   heat capacity  entropy
                                   cal/mol     cal/K/mol   cal/K/mol   J/K/mol
  40.00  VIB   1.00                    0.000      0.000     -0.000
         ROT   37.7                  119.236      2.981     10.193
         INT   37.7                  119.236      2.981     10.193
         TR   0.744E+25              198.726      4.968     26.041
         TOT                         317.9616     7.9490    36.2343   151.6044

   temp. (K)  partition function   enthalpy   heat capacity  entropy
                                   cal/mol     cal/K/mol   cal/K/mol   J/K/mol
  20.00  VIB   1.00                    0.000      0.000     -0.000
         ROT   13.3                   59.618      2.981      8.127
         INT   13.3                   59.618      2.981      8.127
         TR   0.263E+25               99.363      4.968     22.599
         TOT                         158.9808     7.9490    30.7261   128.5581

   temp. (K)  partition function   enthalpy   heat capacity  entropy
                                   cal/mol     cal/K/mol   cal/K/mol   J/K/mol
  10.00  VIB   1.00                    0.000      0.000     -0.000
         ROT   4.71                   29.809      2.981      6.061
         INT   4.71                   29.809      2.981      6.061
         TR   0.930E+24               49.681      4.968     19.157
         TOT                          79.4904     7.9490    25.2179   105.5118

       T/K    H(0)-H(T)+PV         H(T)/Eh          T*S/Eh         G(T)/Eh
   ------------------------------------------------------------------------
    298.15    0.394577E-02    0.387929E-01    0.250061E-01    0.137868E-01
    120.00    0.152037E-02    0.363675E-01    0.859896E-02    0.277686E-01
    100.00    0.126679E-02    0.361140E-01    0.693471E-02    0.291793E-01
     80.00    0.101341E-02    0.358606E-01    0.532168E-02    0.305389E-01
     60.00    0.760056E-03    0.356072E-01    0.377267E-02    0.318346E-01
     40.00    0.506704E-03    0.353539E-01    0.230972E-02    0.330442E-01
     20.00    0.253352E-03    0.351005E-01    0.979304E-03    0.341212E-01
     10.00    0.126676E-03    0.349738E-01    0.401873E-03    0.345720E-01 (used)
   ------------------------------------------------------------------------

         :::::::::::::::::::::::::::::::::::::::::::::::::::::
         ::                  THERMODYNAMIC                  ::
         :::::::::::::::::::::::::::::::::::::::::::::::::::::
         :: total free energy          -6.381288621272 Eh   ::
         ::.................................................::
         :: total energy               -6.415860593908 Eh   ::
         :: zero point energy           0.034847169875 Eh   ::
         :: G(RRHO) w/o ZPVE           -0.000275197239 Eh   ::
         :: G(RRHO) contrib.            0.034571972636 Eh   ::
         :::::::::::::::::::::::::::::::::::::::::::::::::::::

optimized geometry written to: xtbopt.xyz


           -------------------------------------------------
          | TOTAL ENERGY               -6.415860593908 Eh   |
          | TOTAL ENTHALPY             -6.380886748017 Eh   |
          | TOTAL FREE ENERGY          -6.381288621272 Eh   |
          | GRADIENT NORM               0.000095870530 Eh/α |
          | HOMO-LUMO GAP               0.000000956976 eV   |
           -------------------------------------------------

------------------------------------------------------------------------
 * finished run on 2020/05/12 at 11:44:27.994     
------------------------------------------------------------------------
 total:
 * wall-time:     0 d,  0 h,  0 min,  0.065 sec
 *  cpu-time:     0 d,  0 h,  0 min,  0.064 sec
 * ratio c/w:     0.999 speedup
 SCF:
 * wall-time:     0 d,  0 h,  0 min,  0.002 sec
 *  cpu-time:     0 d,  0 h,  0 min,  0.002 sec
 * ratio c/w:     0.998 speedup
 ANC optimizer:
 * wall-time:     0 d,  0 h,  0 min,  0.010 sec
 *  cpu-time:     0 d,  0 h,  0 min,  0.010 sec
 * ratio c/w:     0.999 speedup
 numerical hessian:
 * wall-time:     0 d,  0 h,  0 min,  0.036 sec
 *  cpu-time:     0 d,  0 h,  0 min,  0.036 sec
 * ratio c/w:     0.999 speedup

