[Molden Format]
[Title]
[Atoms] AU
C      1     6  0.35801862496640E+01 -0.88374793173381E+00 -0.64564901268246E+00
N      2     7  0.14578670003365E+01 -0.40498575729819E+00 -0.32681616525819E+00
C      3     6 -0.98681118432080E+00  0.26402076002563E+00  0.20625310425350E+00
C      4     6 -0.29124775812834E+01 -0.48643603915094E+00 -0.10921277571124E+01
H      5     1 -0.11387644843803E+01  0.15111508578876E+01  0.18583417205300E+01
[GTO]
           1 0
 s           4   1.0000000000000000     
   51.049363095579913      -0.16312063210127389     
   8.7911227406887544      -0.19911024581000730     
  0.70640422258929825       0.31882047753655751     
  0.26922813413411617       0.12706504184240380     
 p           4   1.0000000000000000     
   5.8263656140800002       0.73716451545209605     
   1.5106896018720002       0.68216371614850257     
  0.53256483288000001       0.35783053929253711     
  0.21202323690600003        5.3983030275847881E-002

           2 0
 s           4   1.0000000000000000     
   63.594024466941008      -0.19234388414721629     
   10.951417231523665      -0.23478107924953728     
  0.87999310257376984       0.37593753901700888     
  0.33538715296521110       0.14982889271862770     
 p           4   1.0000000000000000     
   7.2965040481495080       0.97658666315667420     
   1.8918745450712575       0.90372226730345739     
  0.66694432110824120       0.47404958461536373     
  0.26552202674130870        7.1516067715011844E-002

           3 0
 s           4   1.0000000000000000     
   51.049363095579913      -0.16312063210127389     
   8.7911227406887544      -0.19911024581000730     
  0.70640422258929825       0.31882047753655751     
  0.26922813413411617       0.12706504184240380     
 p           4   1.0000000000000000     
   5.8263656140800002       0.73716451545209605     
   1.5106896018720002       0.68216371614850257     
  0.53256483288000001       0.35783053929253711     
  0.21202323690600003        5.3983030275847881E-002

           4 0
 s           4   1.0000000000000000     
   51.049363095579913      -0.16312063210127389     
   8.7911227406887544      -0.19911024581000730     
  0.70640422258929825       0.31882047753655751     
  0.26922813413411617       0.12706504184240380     
 p           4   1.0000000000000000     
   5.8263656140800002       0.73716451545209605     
   1.5106896018720002       0.68216371614850257     
  0.53256483288000001       0.35783053929253711     
  0.21202323690600003        5.3983030275847881E-002

           5 0
 s           3   1.0000000000000000     
   3.3702276975336001       0.27359110588908298     
  0.61389118221497996       0.26460540653860526     
  0.16614291148415999        8.2465947534082318E-002

[MO]
Sym=     1a
Ene=  -0.69104514808956907     
Spin= Alpha
Occup=     2.00000000
           1  0.29798498852838179     
           2 -0.14955741501293507     
           3   3.7470101656217308E-002
           4   2.7596038623165415E-002
           5  0.59072132753987150     
           6  -1.3666038763400687E-002
           7   1.3307231342820799E-002
           8   1.6375589130308336E-002
           9  0.30593295523164010     
          10  0.13227373958112368     
          11  -5.0839830185051754E-002
          12  -4.8429374305102656E-002
          13  0.10585394474105733     
          14   7.2286882785846426E-002
          15   1.2763454033014224E-002
          16   2.8025631566650760E-002
          17   6.4020354805053498E-002
Sym=     2a
Ene=  -0.66841468607230359     
Spin= Alpha
Occup=     2.00000000
           1 -0.36381208464096604     
           2  0.10125564201261909     
           3  -2.7173128990938607E-002
           4  -2.0919031333700905E-002
           5 -0.12461995872242271     
           6 -0.34202452891822832     
           7   6.7327386680105711E-002
           8   3.8763472934314841E-002
           9  0.42364925072935755     
          10  -4.0017537500891695E-002
          11  -4.1125312735124930E-002
          12  -6.1421349148292649E-002
          13  0.27922180017762982     
          14  0.12004717527369396     
          15   3.9897562186439722E-002
          16   7.1646035245004375E-002
          17  0.10890492964914018     
Sym=     3a
Ene=  -0.61556001178623110     
Spin= Alpha
Occup=     2.00000000
           1 -0.28927283014283045     
           2   1.7298665120551560E-002
           3   1.8582681007832804E-002
           4   2.7770980085562929E-002
           5  0.18782863020706905     
           6 -0.29283924680063061     
           7  0.14577157111169434     
           8  0.15160646968183206     
           9  -5.5345905302952497E-002
          10  0.41728818951636509     
          11   3.2342658292682055E-002
          12  0.10606504845123110     
          13 -0.46246996876490121     
          14  -6.1397049467351160E-002
          15  -5.5921365099726283E-002
          16  -8.4414109072601273E-002
          17   1.2651988015224070E-002
Sym=     4a
Ene=  -0.57460101405009023     
Spin= Alpha
Occup=     2.00000000
           1 -0.13077575086598348     
           2  -6.4618735035652561E-002
           3  -8.3323255989188535E-002
           4 -0.12172184019905458     
           5  0.13945633400785998     
           6 -0.22802569226635239     
           7 -0.18912389702936044     
           8 -0.28869092551718550     
           9 -0.17645527055027499     
          10   8.9692780344249823E-002
          11 -0.26726266478395494     
          12 -0.34575644482445667     
          13  0.10323228847293321     
          14   7.5622921266782786E-002
          15  -8.6990883123312518E-002
          16 -0.10555396566421812     
          17 -0.38124344623187961     
Sym=     5a
Ene=  -0.54394956540722650     
Spin= Alpha
Occup=     2.00000000
           1  -4.0499382579465567E-004
           2   3.1075607308048481E-002
           3  0.27547567674430684     
           4 -0.20501904604965468     
           5   7.9531260703694985E-004
           6   6.2129454359233109E-002
           7  0.55100323625177849     
           8 -0.41005207524023218     
           9  -1.2665851594655014E-004
          10   3.3011596180100057E-002
          11  0.29714852404775161     
          12 -0.22097077098546858     
          13   1.7364825318841689E-004
          14   1.3696032130713019E-002
          15  0.12311392778761845     
          16  -9.1514765624908082E-002
          17   1.2168627199425526E-004
Sym=     6a
Ene=  -0.50272939411013218     
Spin= Alpha
Occup=     2.00000000
           1  -7.3497430775979464E-002
           2   7.3047450713230072E-002
           3  0.25340986881534822     
           4  0.35153050554340237     
           5   4.0894998094325216E-002
           6  0.13504477329281500     
           7  0.35499704584630420     
           8  0.49744039309157118     
           9 -0.11163592122905328     
          10   1.9101017174450913E-002
          11 -0.12396781506365349     
          12 -0.16358119998455800     
          13  0.33600332346562350     
          14  -4.1066470145652990E-002
          15  -6.8782588826726845E-002
          16  -9.8521583015410974E-002
          17 -0.26700868059880073     
Sym=     7a
Ene=  -0.45910063221627306     
Spin= Alpha
Occup=     2.00000000
           1 -0.65468733563482684     
           2 -0.58469066714609608     
           3   9.2575759920782819E-002
           4   3.4309508122764724E-002
           5  0.21546434776690329     
           6  0.15679873320837859     
           7  -6.9987205510762873E-002
           8  -7.0717799537514420E-002
           9 -0.12545823779054935     
          10 -0.13989440969590422     
          11   8.8115628786882935E-002
          12  0.10017892138003683     
          13  0.16964277411631798     
          14 -0.21313828161556869     
          15   4.1392733042700518E-002
          16   2.5963921128426201E-002
          17   7.6505340863475962E-002
Sym=     8a
Ene=  -0.44318715850685880     
Spin= Alpha
Occup=     1.99999305
           1   1.2411983270425710E-003
           2   3.5450841062312291E-002
           3  0.29993815666430784     
           4 -0.22342083324866596     
           5  -2.7166015792314799E-004
           6   2.5402520430987625E-002
           7  0.22803327140782123     
           8 -0.16937829442262570     
           9   6.2468458027304503E-004
          10  -4.9453551150541973E-002
          11 -0.44436117097950800     
          12  0.33007897569207850     
          13  -1.0271068329699741E-003
          14  -5.0324332655378168E-002
          15 -0.45959753853585772     
          16  0.34222137949178333     
          17  -3.3789933999593306E-004
Sym=     9a
Ene=  -0.42061909722810337     
Spin= Alpha
Occup=     1.00000695
           1 -0.15628033403150485     
           2 -0.14351435788304998     
           3  0.13970852754198521     
           4  0.16628958341021416     
           5  -3.5071857027534514E-002
           6  0.15579480351575198     
           7   2.3627746544560523E-002
           8   5.5853333030381411E-002
           9  0.10667803118792754     
          10 -0.19945938102288926     
          11  -8.6030321285450559E-002
          12 -0.14648630460603035     
          13 -0.56065516813681537     
          14  0.52652418669784939     
          15  0.20118939796718874     
          16  0.34842144017310456     
          17 -0.18111634219400335     
Sym=    10a
Ene=  -0.34492068972390855     
Spin= Alpha
Occup=     1.00000000
           1  -7.6112657048910681E-002
           2 -0.14837144400097205     
           3   4.5513497939511413E-002
           4   3.7771207489728349E-002
           5 -0.18086599440666837     
           6  0.19322948069245693     
           7  -4.6343866757598676E-002
           8  -3.2685404303698387E-002
           9   2.2143320457250815E-002
          10   1.5161760344573609E-002
          11   2.5129390968557527E-002
          12   3.6093160609742408E-002
          13   4.1098532204416052E-003
          14  0.54701235246336588     
          15 -0.49251768508902377     
          16 -0.58024839471884848     
          17  0.29058678348850059     
Sym=    11a
Ene=  -0.27766362275447282     
Spin= Alpha
Occup=     0.00000000
           1   9.1029901972803764E-005
           2  -6.3370493227327962E-002
           3 -0.55916332786371126     
           4  0.41672477578126282     
           5   4.5181694719800548E-004
           6   3.4298263371144444E-002
           7  0.30516579958486634     
           8 -0.22734005097916538     
           9  -4.3295955453602432E-004
          10   3.5273990479026254E-002
          11  0.31985308490372621     
          12 -0.23788005047672656     
          13  -8.9449841348645677E-005
          14  -5.7876933310884414E-002
          15 -0.52195385198663879     
          16  0.38784582805082618     
          17   3.7788828419509259E-004
Sym=    12a
Ene=  -0.24077990915846870     
Spin= Alpha
Occup=     0.00000000
           1  -2.4739256728528742E-003
           2 -0.24631544412661951     
           3 -0.49905704725841371     
           4 -0.70745837728496985     
           5  -4.8518927356332960E-002
           6  0.20988100245382083     
           7  0.37819685037778589     
           8  0.53968692329285195     
           9   4.7628100118093361E-002
          10   2.1495480503062214E-002
          11  -3.3092619573361960E-003
          12  -1.6567673513783882E-003
          13   3.8272431984603034E-002
          14  0.12000083226872911     
          15   7.4477233902407224E-003
          16   2.8497782984283921E-002
          17 -0.18780718394402973     
Sym=    13a
Ene=  -0.17383744164753642     
Spin= Alpha
Occup=     0.00000000
           1   2.4081688439166960E-005
           2   5.0984121482520045E-002
           3  0.45340145964939077     
           4 -0.33730303693099140     
           5  -9.2333207134689043E-004
           6  -5.6929803884797778E-002
           7 -0.50634649522437425     
           8  0.37670301305660003     
           9   1.9584858141876587E-004
          10   6.2515529741010739E-002
          11  0.55473735694282367     
          12 -0.41310498515497368     
          13  -9.8026248346425245E-006
          14  -4.7368737798243549E-002
          15 -0.42013636785283887     
          16  0.31288093197938527     
          17  -3.5343833855697466E-005
Sym=    14a
Ene=    7.8725123881434225E-002
Spin= Alpha
Occup=     0.00000000
           1 -0.16401775091444970     
           2  0.39420164860151130     
           3 -0.12614136963465589     
           4 -0.11058913587082264     
           5  0.81532908129189219     
           6 -0.27728590897345173     
           7  0.13711414870260641     
           8  0.14466732368462001     
           9 -0.90121419348391829     
          10 -0.53540997212350339     
          11   1.0715369235062127E-002
          12  -6.6005231537995035E-002
          13   4.8670148331735316E-002
          14  0.28055488107057142     
          15   4.4567506960372814E-003
          16   4.8148209150555892E-002
          17  0.50697306271288256     
Sym=    15a
Ene=   0.20038009392556827     
Spin= Alpha
Occup=     0.00000000
           1   9.4164042684324614E-002
           2 -0.21790774731339912     
           3   1.7481950990893929E-002
           4  -9.2358092345039000E-003
           5 -0.48399919313493156     
           6  0.17467832453762577     
           7   2.9400936164922651E-002
           8   6.4677568761091889E-002
           9 -0.41445703223799862     
          10  0.50787920431200539     
          11 -0.57868468706165888     
          12 -0.70081612373126068     
          13   2.1159531093551048E-002
          14 -0.11079914878868768     
          15  0.19436746209714018     
          16  0.24440544349434173     
          17  0.95759645565664220     
Sym=    16a
Ene=   0.64058034766047789     
Spin= Alpha
Occup=     0.00000000
           1   5.6206270035909750E-002
           2  -6.8334089616329446E-002
           3   4.9194923010410216E-002
           4   5.5700257095203910E-002
           5 -0.18250657489185929     
           6  -4.4131113357730796E-002
           7 -0.10071094319024518     
           8 -0.14230830312180739     
           9 -0.64413885319173392     
          10  0.83401004167000425     
          11  0.37996256091366937     
          12  0.63608645221099425     
          13  0.84088290894555640     
          14  0.76703455248940400     
          15  0.29404832189169178     
          16  0.51064768900566593     
          17 -0.23245072720708179     
Sym=    17a
Ene=   0.99715380791224095     
Spin= Alpha
Occup=     0.00000000
           1  0.89300132216152672     
           2 -0.97293763388706911     
           3  0.21417677737621310     
           4  0.13876641724627276     
           5 -0.58609367216108099     
           6  -1.2180555211103141     
           7  0.29526083540347481     
           8  0.21158977156971684     
           9 -0.33829056044699957     
          10 -0.47533333685685564     
          11  0.11958334179382731     
          12   8.9993376953434248E-002
          13  -7.1296746538243111E-002
          14   9.5842063113725194E-003
          15  -5.4231627039762205E-002
          16  -7.1613660479702079E-002
          17  -2.0199880921714989E-002
