$hessian                                                                        
        1.0437100973  -0.2336759663  -0.1559082936  -0.9797179881   0.2168421063
        0.1439372234  -0.0682864700   0.0103213227   0.0029984688   0.0057972552
        0.0060026479   0.0086683951  -0.0015028944   0.0005098893   0.0003042062
       -0.2336759663   0.0615324861   0.0350938582   0.2163833043  -0.0645292815
       -0.0339745798   0.0158187066   0.0018811082   0.0024477540   0.0010346463
       -0.0000674792  -0.0030137368   0.0004393090   0.0011831664  -0.0005532956
       -0.1559082936   0.0350938582   0.0321841310   0.1432187012  -0.0338853523
       -0.0382793618   0.0106084865   0.0015537607   0.0056000430   0.0019650539
       -0.0022258072  -0.0004423371   0.0001160520  -0.0005364594   0.0009375248
       -0.9797179881   0.2163833043   0.1432187012   1.2281463392  -0.2748023872
       -0.1865498633  -0.1336520531   0.0654300703   0.0703880352  -0.0962306383
       -0.0194258461  -0.0406521560  -0.0185456597   0.0124148588   0.0135952829
        0.2168421063  -0.0645292815  -0.0338853523  -0.2748023872   0.1083701273
        0.0665837852   0.0392798038  -0.0433475619  -0.0322412123   0.0005236778
        0.0073794789   0.0095922613   0.0181567993  -0.0078727627  -0.0100494819
        0.1439372234  -0.0339745798  -0.0382793618  -0.1865498633   0.0665837852
        0.0888074758   0.0351673410  -0.0282470708  -0.0477483918  -0.0139190834
        0.0065346974   0.0070556175   0.0213643823  -0.0108968319  -0.0098353396
       -0.0682864700   0.0158187066   0.0106084865  -0.1336520531   0.0392798038
        0.0351673410   0.5653492348   0.0515166492   0.1479127227  -0.3427177049
       -0.1210500898  -0.2121860872  -0.0206930069   0.0144349302   0.0184975369
        0.0103213227   0.0018811082   0.0015537607   0.0654300703  -0.0433475619
       -0.0282470708   0.0515166492   0.2105790709   0.2354692804  -0.1403009739
       -0.0775810638  -0.1072658936   0.0130329318  -0.0915315535  -0.1015100767
        0.0029984688   0.0024477540   0.0056000430   0.0703880352  -0.0322412123
       -0.0477483918   0.1479127227   0.2354692804   0.3796051827  -0.2378819171
       -0.1043329125  -0.1894656427   0.0165826903  -0.1013429096  -0.1479911912
        0.0057972552   0.0010346463   0.0019650539  -0.0962306383   0.0005236778
       -0.0139190834  -0.3427177049  -0.1403009739  -0.2378819171   0.4411064515
        0.1511804475   0.2686407169  -0.0079553635  -0.0124377976  -0.0188047703
        0.0060026479  -0.0000674792  -0.0022258072  -0.0194258461   0.0073794789
        0.0065346974  -0.1210500898  -0.0775810638  -0.1043329125   0.1511804475
        0.0762460895   0.1179789737  -0.0167071595  -0.0059770253  -0.0179549514
        0.0086683951  -0.0030137368  -0.0004423371  -0.0406521560   0.0095922613
        0.0070556175  -0.2121860872  -0.1072658936  -0.1894656427   0.2686407169
        0.1179789737   0.2043079915  -0.0244708689  -0.0172916046  -0.0214556292
       -0.0015028944   0.0004393090   0.0001160520  -0.0185456597   0.0181567993
        0.0213643823  -0.0206930069   0.0130329318   0.0165826903  -0.0079553635
       -0.0167071595  -0.0244708689   0.0486969245  -0.0149218807  -0.0135922557
        0.0005098893   0.0011831664  -0.0005364594   0.0124148588  -0.0078727627
       -0.0108968319   0.0144349302  -0.0915315535  -0.1013429096  -0.0124377976
       -0.0059770253  -0.0172916046  -0.0149218807   0.1041981752   0.1300678056
        0.0003042062  -0.0005532956   0.0009375248   0.0135952829  -0.0100494819
       -0.0098353396   0.0184975369  -0.1015100767  -0.1479911912  -0.0188047703
       -0.0179549514  -0.0214556292  -0.0135922557   0.1300678056   0.1783446352
