5
 energy: -9.355476839702 gnorm: 0.170076643615 xtb: 6.2.2 (9d81278992624c895f80dd42a50cac0aa55982e2)
C         1.25018200000000   -0.86724400000000   -0.03746400000000
N         0.23633800000000    0.17013800000000    0.00202500000000
C        -0.95468500000000   -0.26859700000000    0.73697300000000
C        -0.97093100000000   -0.22865200000000   -0.72917700000000
H         0.43909600000000    1.19435600000000    0.02764400000000
5
 energy: -9.387790797669 gnorm: 0.147120415182 xtb: 6.2.2 (9d81278992624c895f80dd42a50cac0aa55982e2)
C         1.23328435477065   -0.82126933227839   -0.03602316979115
N         0.25988802136834    0.17415130851292    0.00186660717661
C        -0.98269425994845   -0.28616536774970    0.68309114824579
C        -0.99775729851199   -0.24915087113833   -0.67572519784418
H         0.48727918232145    1.18243526265350    0.02679161221293
5
 energy: -9.222453206240 gnorm: 1.384205992495 xtb: 6.2.2 (9d81278992624c895f80dd42a50cac0aa55982e2)
C         1.24805893427106   -0.68593811292430   -0.03249950006759
N         0.37723904485657    0.13865905597606   -0.00040793443502
C        -1.10101627439170   -0.30545173627841    0.50114297729880
C        -1.11203673860804   -0.27838806324860   -0.49252047936496
H         0.58775503387211    1.13111985647524    0.02428593656877
5
 energy: -9.410719063739 gnorm: 0.034626155092 xtb: 6.2.2 (9d81278992624c895f80dd42a50cac0aa55982e2)
C         1.26187741900808   -0.70990691855983   -0.03330504146267
N         0.32184278476092    0.14614805114324    0.00040909434694
C        -1.07573789477323   -0.30226111967111    0.63760813602475
C        -1.08978818512727   -0.26776056808333   -0.62913742782737
H         0.58180587613149    1.13378155517104    0.02442623891835
5
 energy: -9.412457508101 gnorm: 0.030959166742 xtb: 6.2.2 (9d81278992624c895f80dd42a50cac0aa55982e2)
C         1.28773449480235   -0.72806823220945   -0.03408663600473
N         0.33210976261698    0.13978955017915    0.00012272891360
C        -1.08326701830306   -0.29198445962718    0.63651590162994
C        -1.09728431695246   -0.25756487838763   -0.62732158606295
H         0.56070707783619    1.13782902004510    0.02477059152414
5
 energy: -9.414270059479 gnorm: 0.029338119249 xtb: 6.2.2 (9d81278992624c895f80dd42a50cac0aa55982e2)
C         1.31960361980693   -0.73630516972717   -0.03466730307901
N         0.35810990287158    0.11977595005902   -0.00070668610967
C        -1.09777692087094   -0.27484569171903    0.63523650142986
C        -1.11174721068271   -0.24053510197631   -0.62479120270599
H         0.53181060887514    1.13191101336349    0.02492969046480
5
 energy: -9.415824869210 gnorm: 0.021014839966 xtb: 6.2.2 (9d81278992624c895f80dd42a50cac0aa55982e2)
C         1.35571596931748   -0.73331048982942   -0.03498933469139
N         0.39677396352062    0.09170909650904   -0.00189595119944
C        -1.12075058044987   -0.25483558352378    0.63399913647646
C        -1.13467209550510   -0.22064329753665   -0.62195995225346
H         0.50293274311686    1.11708127438081    0.02484710166782
5
 energy: -9.416658290526 gnorm: 0.019722920922 xtb: 6.2.2 (9d81278992624c895f80dd42a50cac0aa55982e2)
C         1.37976594023153   -0.72337351889029   -0.03498594019932
N         0.42859005123268    0.07554139869729   -0.00268794322079
C        -1.14316623509273   -0.24450704985758    0.63323288106888
C        -1.15706050520750   -0.21038941690715   -0.62013847982659
H         0.49187074883602    1.10272958695773    0.02458048217782
5
 energy: -9.417934040556 gnorm: 0.035129515786 xtb: 6.2.2 (9d81278992624c895f80dd42a50cac0aa55982e2)
C         1.42258040346701   -0.70863472548836   -0.03505808554823
N         0.48728442909083    0.05702148723478   -0.00384211025166
C        -1.18803323029710   -0.23207347057496    0.63168256271854
C        -1.20188221310948   -0.19809037285948   -0.61692505826731
H         0.48005061084873    1.08177808168803    0.02414369134867
5
 energy: -9.418491430858 gnorm: 0.135954777035 xtb: 6.2.2 (9d81278992624c895f80dd42a50cac0aa55982e2)
C         1.53461642027818   -0.68310202533780   -0.03560104769298
N         0.63855269385751    0.02376043609371   -0.00642051720802
C        -1.30574331370094   -0.20558714028646    0.62789140048045
C        -1.31948541156999   -0.17192950082962   -0.60910475292197
H         0.45205961113524    1.03685923036017    0.02323591734252
5
 energy: -9.421391048713 gnorm: 0.041031468484 xtb: 6.2.2 (9d81278992624c895f80dd42a50cac0aa55982e2)
C         1.51979830923817   -0.69284178867890   -0.03570179747157
N         0.59985502252667    0.04155344995271   -0.00550807345944
C        -1.28450890940778   -0.21296595330434    0.63001868004833
C        -1.29830585705770   -0.17916572431353   -0.61209824467826
H         0.46316143470064    1.04342101634405    0.02329043556094
5
 energy: -9.423547229678 gnorm: 0.023678817573 xtb: 6.2.2 (9d81278992624c895f80dd42a50cac0aa55982e2)
C         1.56731051897746   -0.69984210131331   -0.03641588390168
N         0.65637281867073    0.04571529783544   -0.00601886008710
C        -1.32964975598254   -0.20617541819047    0.63055288952258
C        -1.34345653889442   -0.17238374424970   -0.61126855041966
H         0.44942295722878    1.03268696591804    0.02315140488586
5
 energy: -9.426848744646 gnorm: 0.027136882163 xtb: 6.2.2 (9d81278992624c895f80dd42a50cac0aa55982e2)
C         1.66529068413948   -0.72299098012478   -0.03811983258227
N         0.80504755250067    0.06404847210030   -0.00716524010619
C        -1.43250001432310   -0.19374514789560    0.63239199802052
C        -1.44635747957881   -0.15993058738731   -0.61016761902819
H         0.40851925726177    1.01261924330739    0.02306169369613
5
 energy: -9.428222207511 gnorm: 0.014773865832 xtb: 6.2.2 (9d81278992624c895f80dd42a50cac0aa55982e2)
C         1.70667279016235   -0.72424268566422   -0.03860313547854
N         0.88122039418146    0.09298563805450   -0.00721909201964
C        -1.48955036773791   -0.19674846753394    0.63451211997733
C        -1.50347227214775   -0.16284000683153   -0.61119489943291
H         0.40512945554185    0.99084652197518    0.02250600695376
5
 energy: -9.428761263645 gnorm: 0.007351786726 xtb: 6.2.2 (9d81278992624c895f80dd42a50cac0aa55982e2)
C         1.73541597278077   -0.72138196702069   -0.03883797620972
N         0.93556833791859    0.11397593092941   -0.00724558272056
C        -1.53021876099186   -0.19834324775501    0.63539591745129
C        -1.54417126513352   -0.16440220357796   -0.61127132045346
H         0.40340571542602    0.97015248742425    0.02195996193245
5
 energy: -9.428992273458 gnorm: 0.020020394963 xtb: 6.2.2 (9d81278992624c895f80dd42a50cac0aa55982e2)
C         1.78323708458201   -0.72147947244917   -0.03936369862765
N         1.01433963382903    0.13471807926332   -0.00754807958836
C        -1.58671194012005   -0.19409056810351    0.63591891178194
C        -1.60068557048127   -0.16015563040054   -0.61032197412676
H         0.38982079219027    0.94100859168989    0.02131584056083
5
 energy: -9.429234164444 gnorm: 0.004980825262 xtb: 6.2.2 (9d81278992624c895f80dd42a50cac0aa55982e2)
C         1.79785679409411   -0.71579868011900   -0.03936675967363
N         1.04233249145999    0.15318533286253   -0.00735254369905
C        -1.60929910463401   -0.19606367800744    0.63604440983075
C        -1.62328664094649   -0.16212819657333   -0.61006046913417
H         0.39239646002641    0.92080622183724    0.02073636267610
5
 energy: -9.429310305749 gnorm: 0.010778029286 xtb: 6.2.2 (9d81278992624c895f80dd42a50cac0aa55982e2)
C         1.82162449075037   -0.71050022457240   -0.03948293529403
N         1.07119975937488    0.15972634327040   -0.00749293013002
C        -1.63343212859677   -0.19181073439030    0.63594489485345
C        -1.64742143571358   -0.15790135416673   -0.60920056353524
H         0.38802931418510    0.90048696985903    0.02023253410584
5
 energy: -9.429478173353 gnorm: 0.014644580920 xtb: 6.2.2 (9d81278992624c895f80dd42a50cac0aa55982e2)
C         1.85390884732261   -0.70055863222195   -0.03956608588085
N         1.09579055658914    0.16081755659673   -0.00773677583463
C        -1.65786642173499   -0.18141502685957    0.63559760276560
C        -1.67185257083555   -0.14755776643608   -0.60775380639595
H         0.38001958865879    0.86871486892087    0.01946006534583
5
 energy: -9.430234915531 gnorm: 0.022098711754 xtb: 6.2.2 (9d81278992624c895f80dd42a50cac0aa55982e2)
C         1.96822867769889   -0.66349492731524   -0.03981029202858
N         1.15233989732874    0.14463781040276   -0.00881409041532
C        -1.72434639072712   -0.13314076470905    0.63465165314464
C        -1.73832508131101   -0.09946556219027   -0.60273329280146
H         0.34210289701050    0.75146444381180    0.01670702210072
5
 energy: -9.429914369402 gnorm: 0.094876763691 xtb: 6.2.2 (9d81278992624c895f80dd42a50cac0aa55982e2)
C         2.16309545002926   -0.58316663941087   -0.03976270038648
N         1.18545886788950    0.07570808928184   -0.01108414633714
C        -1.80164739045331   -0.02889544684111    0.63233449790652
C        -1.81558801900547    0.00440403354506   -0.59307250783510
H         0.26868109154001    0.53195096342508    0.01158585665221
5
 energy: -9.434381721483 gnorm: 0.007421215291 xtb: 6.2.2 (9d81278992624c895f80dd42a50cac0aa55982e2)
C         2.13980595888265   -0.52068773997519   -0.03784763780806
N         1.14027253218368    0.04885451989520   -0.01122127003508
C        -1.73203905785610    0.00039337204020    0.64243880026466
C        -1.74623906119385    0.03421910893452   -0.60310677901934
H         0.19819962798363    0.43722173910526    0.00973788659782
5
 energy: -9.437031139145 gnorm: 0.042696637399 xtb: 6.2.2 (9d81278992624c895f80dd42a50cac0aa55982e2)
C         2.13556745765628   -0.43493059502838   -0.03537433214498
N         1.06406575833786    0.01079040621874   -0.01162521345373
C        -1.62653489895475    0.04916505767453    0.64490034791604
C        -1.64107016260034    0.08303610494571   -0.60532656462964
H         0.06797184556096    0.29194002618941    0.00742676231230
5
 energy: -9.437255332029 gnorm: 0.035605106752 xtb: 6.2.2 (9d81278992624c895f80dd42a50cac0aa55982e2)
C         2.10382658886871   -0.37529645361872   -0.03395280258856
N         1.00506140946798   -0.01333622405725   -0.01057195295370
C        -1.53033405573871    0.08143371588709    0.64242743488130
C        -1.54586588019167    0.11465860610427   -0.60357038041355
H        -0.03268806240630    0.19254135568462    0.00566870107451
5
 energy: -9.438233253992 gnorm: 0.007748071634 xtb: 6.2.2 (9d81278992624c895f80dd42a50cac0aa55982e2)
C         2.13715019205020   -0.37816414838104   -0.03364787094499
N         1.04945110069966   -0.01024888483864   -0.01264117787037
C        -1.59041291183067    0.07890945282562    0.64085589648383
C        -1.60685415496960    0.11185996772765   -0.60113860261483
H         0.01066577405043    0.19764461266642    0.00657275494638
5
 energy: -9.438253588582 gnorm: 0.029077278101 xtb: 6.2.2 (9d81278992624c895f80dd42a50cac0aa55982e2)
C         2.17186032237108   -0.34018805954810   -0.03446579576698
N         1.05798899048537   -0.02605274811238   -0.00976200173549
C        -1.60279692408814    0.09976786927612    0.64097471111013
C        -1.62571826191515    0.13103889315273   -0.60156993910118
H        -0.00133412685313    0.13543504523164    0.00482402549354
5
 energy: -9.438564499827 gnorm: 0.008811262525 xtb: 6.2.2 (9d81278992624c895f80dd42a50cac0aa55982e2)
C         2.16014258588635   -0.33830879913514   -0.03253701977591
N         1.05361446764247   -0.02600114108601   -0.01300413385874
C        -1.58964120287265    0.10006384132501    0.63971866530109
C        -1.62428244154281    0.12915235810542   -0.60383311178226
H         0.00016659088666    0.13509474079073    0.00965660011588
5
 energy: -9.438927046839 gnorm: 0.012857430103 xtb: 6.2.2 (9d81278992624c895f80dd42a50cac0aa55982e2)
C         2.16154379088700   -0.31170336051916   -0.03585896523238
N         1.04953926097359   -0.03717353696699   -0.00298999866513
C        -1.55293385449911    0.11902904750442    0.63057766465740
C        -1.65632857054967    0.13120558918083   -0.61360678359805
H        -0.00182062681180    0.09864326080094    0.02187908283841
5
 energy: -9.421620621119 gnorm: 0.205488534041 xtb: 6.2.2 (9d81278992624c895f80dd42a50cac0aa55982e2)
C         2.17518569776199   -0.14307202448564   -0.04339807102938
N         1.02389652836095   -0.10942764313003    0.02119386315059
C        -1.30792117576500    0.24815003730923    0.56277200085413
C        -1.88305615529487    0.13466572740917   -0.68115843135327
H        -0.00810489506313   -0.13031509710250    0.14059163837962
5
 energy: -9.439904633151 gnorm: 0.030112674986 xtb: 6.2.2 (9d81278992624c895f80dd42a50cac0aa55982e2)
C         2.18782256274936   -0.16177777071599   -0.05023638538129
N         1.03636384008576   -0.09951428414668   -0.01592862304465
C        -1.47632715008027    0.23074081605508    0.58942025005898
C        -1.73043444473493    0.14212141578269   -0.63529343659141
H        -0.01742480801993   -0.11156917697499    0.11203919495923
5
 energy: -9.439366657713 gnorm: 0.048718496869 xtb: 6.2.2 (9d81278992624c895f80dd42a50cac0aa55982e2)
C         2.15324619948697   -0.25446282095990   -0.06255060590679
N         1.04146535353178   -0.06459223955934    0.04228806883267
C        -1.46873120996499    0.17039978958046    0.58905417308736
C        -1.73622919888782    0.11637213956029   -0.62525508717036
H         0.01024885583405    0.03228413137856    0.05646445115781
5
 energy: -9.440279160060 gnorm: 0.023318654577 xtb: 6.2.2 (9d81278992624c895f80dd42a50cac0aa55982e2)
C         2.17109450254553   -0.21417284196040   -0.07389808618222
N         1.04201492994389   -0.08164242640399    0.03708259667162
C        -1.47027481282473    0.20827210707471    0.58443581101414
C        -1.73934851960482    0.11633804118204   -0.63327063305784
H        -0.00348610005987   -0.02879387989228    0.08565131155506
5
 energy: -9.440036002727 gnorm: 0.034950996354 xtb: 6.2.2 (9d81278992624c895f80dd42a50cac0aa55982e2)
C         2.19028631114292   -0.14661613852425   -0.05156140684214
N         1.03727670352868   -0.11157302268076   -0.03961056057351
C        -1.45967875186028    0.25600152405586    0.57302020044675
C        -1.75306395334566    0.12577620890702   -0.64207668330182
H        -0.01482030946567   -0.12358757175771    0.16022945027181
5
 energy: -9.440835481450 gnorm: 0.020416734609 xtb: 6.2.2 (9d81278992624c895f80dd42a50cac0aa55982e2)
C         2.17861113534552   -0.18138064274455   -0.06991992361824
N         1.03902906643648   -0.09887980739608    0.01416818263796
C        -1.45447118847016    0.23412766512294    0.57329770171958
C        -1.75208291202731    0.11727589221718   -0.63691860195131
H        -0.01108610128454   -0.07114210719938    0.11937364121295
5
 energy: -9.441153500360 gnorm: 0.020398601422 xtb: 6.2.2 (9d81278992624c895f80dd42a50cac0aa55982e2)
C         2.17885248058592   -0.17723281166300   -0.06922557811682
N         1.03903699284814   -0.10400908429431    0.01653489952307
C        -1.44073451696700    0.23657736455941    0.56659466116757
C        -1.76445513576410    0.11705212078736   -0.63626263532225
H        -0.01269982070297   -0.07238658938934    0.12235965274945
5
 energy: -9.420107060900 gnorm: 0.230967251160 xtb: 6.2.2 (9d81278992624c895f80dd42a50cac0aa55982e2)
C         2.18052066432230   -0.11308279008129   -0.04511407837118
N         1.04489973235189   -0.20744477442910    0.02598670629535
C        -1.15096076645753    0.28832939714343    0.41640858032851
C        -2.03941385395331    0.08901134022292   -0.62697270496325
H        -0.03504577626347   -0.05681217285558    0.22969249671323
5
 energy: -9.445000747239 gnorm: 0.021731365108 xtb: 6.2.2 (9d81278992624c895f80dd42a50cac0aa55982e2)
C         2.19515265958317   -0.12687890029324   -0.06415408907925
N         1.05112145659319   -0.17379015636804    0.00977797110208
C        -1.33507709376334    0.27770711381379    0.48052769076797
C        -1.89653687602949    0.09763700900373   -0.61838600202748
H        -0.01466014638359   -0.07467406615600    0.19223542923846
5
 energy: -9.445741258482 gnorm: 0.049790665405 xtb: 6.2.2 (9d81278992624c895f80dd42a50cac0aa55982e2)
C         2.18891645510190   -0.15543777747489   -0.04633839342459
N         1.05636988890766   -0.17128411309919   -0.01105436835025
C        -1.31814366801268    0.25641744606315    0.47067863202900
C        -1.90909448414787    0.09311961018627   -0.61035595992767
H        -0.01804819184910   -0.02281416567507    0.19707108967539
5
 energy: -9.449739447891 gnorm: 0.060385412621 xtb: 6.2.2 (9d81278992624c895f80dd42a50cac0aa55982e2)
C         2.19275409535226   -0.16149483092917   -0.01537792311990
N         1.06317611747694   -0.21114359628899   -0.05114326651743
C        -1.23968970868296    0.25006319091149    0.41593049162738
C        -1.96167199488423    0.08773967563394   -0.58391709130492
H        -0.05456850926213    0.03483656067309    0.23450878931723
5
 energy: -9.453571959731 gnorm: 0.088041489396 xtb: 6.2.2 (9d81278992624c895f80dd42a50cac0aa55982e2)
C         2.21245765359356   -0.15435766638178    0.04184113009002
N         1.08084182564137   -0.25886242033256   -0.12822223792208
C        -1.18171952429949    0.23465890874879    0.36258370772292
C        -2.03142072426820    0.10089219679000   -0.54964568226826
H        -0.08015923066743    0.07766998117602    0.27344408238028
5
 energy: -9.456852185325 gnorm: 0.162311686327 xtb: 6.2.2 (9d81278992624c895f80dd42a50cac0aa55982e2)
C         2.27837466637050   -0.12884753750260    0.06223588889263
N         1.14349355565356   -0.33989960047486   -0.21728671463280
C        -1.19273357590001    0.27481108798825    0.26911527929214
C        -2.15299780241858    0.06379539856029   -0.50712547274671
H        -0.07613684370570    0.13014165142951    0.39306201919828
5
 energy: -9.466675143633 gnorm: 0.061393462751 xtb: 6.2.2 (9d81278992624c895f80dd42a50cac0aa55982e2)
C         2.28739550884116   -0.15525134895305   -0.00243447822879
N         1.16504502177862   -0.36377933916574   -0.18584680540276
C        -1.19958564062999    0.32716234864611    0.21816590505393
C        -2.10670902158689   -0.00329187303093   -0.48554142400039
H        -0.14614586840311    0.19516121250415    0.45565780258152
5
 energy: -9.455394940902 gnorm: 0.245500457195 xtb: 6.2.2 (9d81278992624c895f80dd42a50cac0aa55982e2)
C         2.32523453439161   -0.22676289269665   -0.07158402591882
N         1.24455398086366   -0.41303552371140   -0.15034340988323
C        -1.16415772922651    0.38143866310200    0.09586782279563
C        -2.21191458843099   -0.12331484244367   -0.45057078395834
H        -0.19371619759801    0.38167559575030    0.57663139696882
5
 energy: -9.472062412735 gnorm: 0.041551866660 xtb: 6.2.2 (9d81278992624c895f80dd42a50cac0aa55982e2)
C         2.37870109593956   -0.22937892448423   -0.07499662497253
N         1.24795733928988   -0.42937067501529   -0.15514949769477
C        -1.21825324230737    0.37670681737111    0.11194639828860
C        -2.16720581631226   -0.10730628267884   -0.43771879543161
H        -0.24119937661005    0.38935006480783    0.55591951981437
5
 energy: -9.473052984741 gnorm: 0.013992129704 xtb: 6.2.2 (9d81278992624c895f80dd42a50cac0aa55982e2)
C         2.41278337253709   -0.24226961055836   -0.07997828595282
N         1.29101665890179   -0.43640728723503   -0.15728951539369
C        -1.25561035358018    0.37261297204420    0.14225917433170
C        -2.18533300653524   -0.10375109949111   -0.45170542277296
H        -0.26285667132369    0.40981602524088    0.54671504979183
5
 energy: -9.473797475029 gnorm: 0.042707365756 xtb: 6.2.2 (9d81278992624c895f80dd42a50cac0aa55982e2)
C         2.49037900875049   -0.25490377742764   -0.08017712126377
N         1.38119448335070   -0.43845044494011   -0.16299221169657
C        -1.27345156372984    0.35469391946279    0.08719481724947
C        -2.26506519013864   -0.07340957788699   -0.41696598250340
H        -0.33305673823294    0.41207088079254    0.57294149821832
5
 energy: -9.474537760716 gnorm: 0.019758582649 xtb: 6.2.2 (9d81278992624c895f80dd42a50cac0aa55982e2)
C         2.53912513108269   -0.26663768121188   -0.08068616686720
N         1.42376522938108   -0.44441226165199   -0.16868796971590
C        -1.30458804603992    0.34290271156470    0.10195106351813
C        -2.30039851504688   -0.06401954815950   -0.42316571030926
H        -0.35790379937720    0.43216777945927    0.57058978337829
5
 energy: -9.474978615544 gnorm: 0.008131659874 xtb: 6.2.2 (9d81278992624c895f80dd42a50cac0aa55982e2)
C         2.60528873157040   -0.29261441109602   -0.07825701287352
N         1.48163332250950   -0.44679919144054   -0.18696932251640
C        -1.35345127795065    0.32177092397806    0.12972701109737
C        -2.33757654149907   -0.05455626413003   -0.43498498353951
H        -0.39589423463040    0.47219994268911    0.57048530783611
5
 energy: -9.475117200438 gnorm: 0.007190894159 xtb: 6.2.2 (9d81278992624c895f80dd42a50cac0aa55982e2)
C         2.64544730156899   -0.29845529788217   -0.08247377636522
N         1.52325540018609   -0.45528748136617   -0.18886825135585
C        -1.37109006106062    0.30701009439172    0.12454205798380
C        -2.37078402611479   -0.04061260623698   -0.43232051658618
H        -0.42682861457989    0.48734629109419    0.57912148632748
5
 energy: -9.475184552186 gnorm: 0.001950431453 xtb: 6.2.2 (9d81278992624c895f80dd42a50cac0aa55982e2)
C         2.67572494366917   -0.30518525424120   -0.08469935849356
N         1.55459656746313   -0.46172860714212   -0.19470321699604
C        -1.38525864957973    0.29401089233498    0.12280803001575
C        -2.39110317085498   -0.03096866630320   -0.43112566551462
H        -0.45395969069781    0.50387263535212    0.58772121099251
5
 energy: -9.475197068140 gnorm: 0.001068736671 xtb: 6.2.2 (9d81278992624c895f80dd42a50cac0aa55982e2)
C         2.68555046187033   -0.30714102761143   -0.08557072780089
N         1.56550417074762   -0.46592071147667   -0.19838955800772
C        -1.38875359435790    0.28634325586643    0.12345966410115
C        -2.39678973007581   -0.02687627951693   -0.43179564247783
H        -0.46551130818447    0.51359576273918    0.59229726418935
5
 energy: -9.475205755631 gnorm: 0.001220056394 xtb: 6.2.2 (9d81278992624c895f80dd42a50cac0aa55982e2)
C         2.67839355041971   -0.30746377140339   -0.08454634010215
N         1.55843969276676   -0.46562150699210   -0.20204394488865
C        -1.38397830471834    0.28430842036818    0.12515422370497
C        -2.38961548905761   -0.02923117932246   -0.43399058085865
H        -0.46323944941076    0.51800903735036    0.59542764214852
5
 energy: -9.475279275955 gnorm: 0.005190438596 xtb: 6.2.2 (9d81278992624c895f80dd42a50cac0aa55982e2)
C         2.55841064600680   -0.30208986353521   -0.08015433402400
N         1.44264381906860   -0.46534398588611   -0.23883781507123
C        -1.30612199047959    0.26488849844584    0.14473720672615
C        -2.27631311692194   -0.06639787524180   -0.46817995888543
H        -0.41861935767409    0.56894422621786    0.64243590125857
5
 energy: -9.475312838669 gnorm: 0.003339596730 xtb: 6.2.2 (9d81278992624c895f80dd42a50cac0aa55982e2)
C         2.50917159984768   -0.29923724798602   -0.08348528201834
N         1.39462519666098   -0.46426447970625   -0.24745962545172
C        -1.27353710953967    0.26369636237672    0.14757300118343
C        -2.22808688997540   -0.08317682141242   -0.48064904419965
H        -0.40217279699382    0.58298318672855    0.66402195049035
5
 energy: -9.475417843556 gnorm: 0.013050536653 xtb: 6.2.2 (9d81278992624c895f80dd42a50cac0aa55982e2)
C         2.36444119173614   -0.30125848509193   -0.10227235163866
N         1.25182934160413   -0.46002827058356   -0.27937938366064
C        -1.17529491831543    0.25891768109225    0.15774129390991
C        -2.07265462794683   -0.14134111034530   -0.52714324388766
H        -0.36832098707824    0.64371118492911    0.75105468528113
5
 energy: -9.475613677500 gnorm: 0.023084370498 xtb: 6.2.2 (9d81278992624c895f80dd42a50cac0aa55982e2)
C         2.28067893184267   -0.31111262700191   -0.12073835389197
N         1.16743695085477   -0.45163183547420   -0.29998086092854
C        -1.11305951046171    0.26934038558891    0.15305873473843
C        -1.96944106982706   -0.18531871435846   -0.55256527978869
H        -0.36561530240891    0.67872379124622    0.82022675987486
5
 energy: -9.475809472069 gnorm: 0.032666728160 xtb: 6.2.2 (9d81278992624c895f80dd42a50cac0aa55982e2)
C         2.29848863992676   -0.35496263434176   -0.15227878049051
N         1.17646045474076   -0.42161379514026   -0.30674384185459
C        -1.10701808730771    0.33488400717243    0.11563512133756
C        -1.92197224242949   -0.22937200598757   -0.54418621209998
H        -0.44595876493057    0.67106542829772    0.88757471311161
5
 energy: -9.474185662843 gnorm: 0.088634288146 xtb: 6.2.2 (9d81278992624c895f80dd42a50cac0aa55982e2)
C         2.19817443753232   -0.40288832709484   -0.16878301755844
N         1.06778704114559   -0.38461312539927   -0.35410092245995
C        -1.05072108578154    0.36924968653327    0.15522738774270
C        -1.75726369597188   -0.31116019610559   -0.59169449378367
H        -0.45797669692473    0.72941296206697    0.95935204606347
5
 energy: -9.476701976891 gnorm: 0.026791998279 xtb: 6.2.2 (9d81278992624c895f80dd42a50cac0aa55982e2)
C         2.22434671358358   -0.38304081027719   -0.13577180786783
N         1.10296125772329   -0.40515097276463   -0.37074795096742
C        -1.05293010172597    0.28824040584248    0.15648107567590
C        -1.82725252547593   -0.25784330586148   -0.57803111706996
H        -0.44712534410521    0.75779568306135    0.92807080023341
5
 energy: -9.475211289321 gnorm: 0.071402092541 xtb: 6.2.2 (9d81278992624c895f80dd42a50cac0aa55982e2)
C         2.27827658236948   -0.32407190167593   -0.16505838073846
N         1.16780641038345   -0.46446707636753   -0.28154283336409
C        -1.11123735084548    0.26913996654860    0.19683008753164
C        -1.90262781926328   -0.19440474258907   -0.58198783077942
H        -0.43221782264441    0.71380475408447    0.83175995735443
5
 energy: -9.476869256226 gnorm: 0.038945619615 xtb: 6.2.2 (9d81278992624c895f80dd42a50cac0aa55982e2)
C         2.23788793591987   -0.35176372171700   -0.17476557356534
N         1.11909045947008   -0.43991111328154   -0.31172365039296
C        -1.06409194806842    0.27665866626913    0.16928971069199
C        -1.83930025443576   -0.23059088248594   -0.58942693669331
H        -0.45358619288601    0.74560805121590    0.90662744996372
5
 energy: -9.475690720281 gnorm: 0.085283043264 xtb: 6.2.2 (9d81278992624c895f80dd42a50cac0aa55982e2)
C         2.23910485350281   -0.43104098257749   -0.15143863153918
N         1.09505421615134   -0.35272680915105   -0.36941604198841
C        -1.04383506272556    0.28695601765660    0.15218160929891
C        -1.80530380111751   -0.27294681459814   -0.57933889552722
H        -0.48502020581133    0.76975958867061    0.94801295976000
5
 energy: -9.477378887563 gnorm: 0.028923811008 xtb: 6.2.2 (9d81278992624c895f80dd42a50cac0aa55982e2)
C         2.20067529067274   -0.37220133111433   -0.18983451210109
N         1.07326785643943   -0.41950600400514   -0.32355940717073
C        -1.02234538390623    0.27804269396503    0.16133346558571
C        -1.77673612530624   -0.25582603718999   -0.59951380944629
H        -0.47486163789992    0.76949167834498    0.95157526313651
5
 energy: -9.477579726087 gnorm: 0.009851717753 xtb: 6.2.2 (9d81278992624c895f80dd42a50cac0aa55982e2)
C         2.20697580605295   -0.37218025653524   -0.18778378731594
N         1.07455552222979   -0.41240496117576   -0.31248887491650
C        -1.02842956704711    0.26622885180516    0.17295239689221
C        -1.78878649630649   -0.24566797649598   -0.59974690425491
H        -0.46431526492939    0.76402534240236    0.92706816959925
5
 energy: -9.478219338379 gnorm: 0.025986941026 xtb: 6.2.2 (9d81278992624c895f80dd42a50cac0aa55982e2)
C         2.12794659518174   -0.38860604130295   -0.21777342928177
N         0.98080771624319   -0.37862649339918   -0.30129103971299
C        -0.95062732475842    0.25027030052433    0.17239593119259
C        -1.68904863229830   -0.27019880303478   -0.61878453300227
H        -0.46907835436846    0.78716203721311    0.96545407080855
5
 energy: -9.479453478010 gnorm: 0.082543673561 xtb: 6.2.2 (9d81278992624c895f80dd42a50cac0aa55982e2)
C         2.04182196131901   -0.40596012625444   -0.26553142643804
N         0.87690293884869   -0.34034429896136   -0.27216142510711
C        -0.84807879586697    0.21309774327289    0.17149543710624
C        -1.57981019231801   -0.28623652873967   -0.64226181830046
H        -0.49083591198295    0.81944421068311    1.00846023274350
5
 energy: -9.487384578449 gnorm: 0.161008534237 xtb: 6.2.2 (9d81278992624c895f80dd42a50cac0aa55982e2)
C         1.88487288255392   -0.35777547992551   -0.23846955691241
N         0.71901166694788   -0.31860456992633   -0.26193342143425
C        -0.71010226701387    0.16787131908863    0.15038808220164
C        -1.50859909800322   -0.28051174088832   -0.62921845603598
H        -0.38518318448496    0.78902147165206    0.97923435218513
5
 energy: -9.498577686650 gnorm: 0.072456998437 xtb: 6.2.2 (9d81278992624c895f80dd42a50cac0aa55982e2)
C         1.90813488823529   -0.36429731164956   -0.24380845142800
N         0.74875032588455   -0.32050510078693   -0.23451879603749
C        -0.66621380104343    0.23863906049899    0.07776686910680
C        -1.58276226143351   -0.30929876277998   -0.60778983004330
H        -0.40790915164317    0.75546311471801    1.00835120840612
5
 energy: -9.502354113289 gnorm: 0.095766305340 xtb: 6.2.2 (9d81278992624c895f80dd42a50cac0aa55982e2)
C         1.91496153818131   -0.40493626654545   -0.20491878348860