      -----------------------------------------------------------      
     |                   =====================                   |     
     |                           x T B                           |     
     |                   =====================                   |     
     |                         S. Grimme                         |     
     |          Mulliken Center for Theoretical Chemistry        |     
     |                    University of Bonn                     |     
      -----------------------------------------------------------      

   * xtb version 6.2.2 (9d81278992624c895f80dd42a50cac0aa55982e2) compiled by '@Darwin' on 04/03/2020

   xtb is free software: you can redistribute it and/or modify it under
   the terms of the GNU Lesser General Public License as published by
   the Free Software Foundation, either version 3 of the License, or
   (at your option) any later version.
   
   xtb is distributed in the hope that it will be useful,
   but WITHOUT ANY WARRANTY; without even the implied warranty of
   MERCHANTABILITY or FITNESS FOR A PARTICULAR PURPOSE.  See the
   GNU Lesser General Public License for more details.
   
   Cite this work as:
   * S. Grimme, C. Bannwarth, P. Shushkov, J. Chem. Theory Comput., 2017,
     13, 1989-2009. DOI: 10.1021/acs.jctc.7b00118
   * C. Bannwarth, S. Ehlert and S. Grimme., J. Chem. Theory Comput., 2019,
     15, 1652-1671. DOI: 10.1021/acs.jctc.8b01176
   * P. Pracht, E. Caldeweyher, S. Ehlert, S. Grimme, ChemRxiv, 2019, preprint.
     DOI: 10.26434/chemrxiv.8326202.v1
   
   for DFT-D4:
   * E. Caldeweyher, C. Bannwarth and S. Grimme, J. Chem. Phys., 2017,
     147, 034112. DOI: 10.1063/1.4993215
   * E. Caldeweyher, S. Ehlert, A. Hansen, H. Neugebauer, S. Spicher,
     C. Bannwarth and S. Grimme, J. Chem. Phys., 2019, 150, 154122.
     DOI: 10.1063/1.5090222
   
   for sTDA-xTB:
   * S. Grimme and C. Bannwarth, J. Chem. Phys., 2016, 145, 054103.
     DOI: 10.1063/1.4959605
   
   in the mass-spec context:
   * V. Asgeirsson, C. Bauer and S. Grimme, Chem. Sci., 2017, 8, 4879.
     DOI: 10.1039/c7sc00601b
   
   for metadynamics refer to:
   * S. Grimme, J. Chem. Theory Comput., 2019, 155, 2847-2862
     DOI: 10.1021/acs.jctc.9b00143
   
   with help from (in alphabetical order)
   C. Bannwarth, F. Bohle, G. Brandenburg, E. Caldeweyher, M. Checinski,
   S. Dohm, S. Ehlert, S. Ehrlich, F. März, H. Neugebauer, J. Pisarek,
   P. Pracht, P. Shushkov, and S. Spicher.
   
 * started run on 2020/05/12 at 11:44:57.430     

           -------------------------------------------------
          |                Calculation Setup                |
           -------------------------------------------------

          program call               : xtb --input H1C3N1_18_S_2.input H1C3N1_18_S_2.xyz --ohess --molden --namespace H1C3N1_18_S_2 output.out
          calculation namespace      : H1C3N1_18_S_2
          coordinate file            : H1C3N1_18_S_2.xyz
          number of atoms            :                     5
          number of electrons        :                    18
          charge                     :                     0
          spin                       :                   1.0
          first test random number   :      0.96218277135785

   ID    Z sym.   atoms
    1    6 C      1, 3, 4
    2    7 N      2
    3    1 H      5

           -------------------------------------------------
          |                 G F N 2 - x T B                 |
           -------------------------------------------------

        Reference                      10.1021/acs.jctc.8b01176
      * Hamiltonian:
        H0-scaling (s, p, d)           1.850000    2.230000    2.230000
        zeta-weighting                 0.500000
      * Dispersion:
        s8                             2.700000
        a1                             0.520000
        a2                             5.000000
        s9                             5.000000
      * Repulsion:
        kExp                           1.500000    1.000000
        rExp                           1.000000
      * Coulomb:
        alpha                          2.000000
        third order                    shell-resolved
        anisotropic                    true
        a3                             3.000000
        a5                             4.000000
        cn-shift                       1.200000
        cn-exp                         4.000000
        max-rad                        5.000000


          ...................................................
          :                      SETUP                      :
          :.................................................:
          :  # basis functions                  17          :
          :  # atomic orbitals                  17          :
          :  # shells                            9          :
          :  # electrons                        18          :
          :  max. iterations                   250          :
          :  Hamiltonian                  GFN2-xTB          :
          :  restarted?                      false          :
          :  GBSA solvation                  false          :
          :  PC potential                    false          :
          :  electronic temp.          300.0000000     K    :
          :  accuracy                    1.0000000          :
          :  -> integral cutoff          0.2500000E+02      :
          :  -> integral neglect         0.1000000E-07      :
          :  -> SCF convergence          0.1000000E-05 Eh   :
          :  -> wf. convergence          0.1000000E-03 e    :
          :  Broyden damping             0.4000000          :
          ...................................................

 iter      E             dE          RMSdq      gap      omega  full diag
   1     -9.3011553 -0.930116E+01  0.104E+01    0.10       0.0  T
   2     -8.0999162  0.120124E+01  0.115E+01    0.13       1.0  T
   3     -7.3591593  0.740757E+00  0.131E+01    2.17       1.0  T
   4     -9.4107558 -0.205160E+01  0.460E+00    0.03       1.0  T
   5     -9.4025149  0.824089E-02  0.396E+00    0.02       1.0  T
   6     -9.4060642 -0.354924E-02  0.246E+00    0.03       1.0  T
   7     -9.4138146 -0.775050E-02  0.143E+00    0.04       1.0  T
   8     -9.4164930 -0.267837E-02  0.107E+00    0.04       1.0  T
   9     -9.4200492 -0.355621E-02  0.730E-01    0.04       1.0  T
  10     -9.4207104 -0.661165E-03  0.416E-01    0.04       1.0  T
  11     -9.4208381 -0.127723E-03  0.355E-01    0.04       1.0  T
  12     -9.4210494 -0.211283E-03  0.186E-01    0.04       1.0  T
  13     -9.4210612 -0.117532E-04  0.796E-02    0.03       1.0  T
  14     -9.4210630 -0.179999E-05  0.144E-02    0.03       3.1  T
  15     -9.4210632 -0.241425E-06  0.137E-02    0.03       3.3  T
  16     -9.4210633 -0.117186E-06  0.111E-02    0.03       4.0  T
  17     -9.4210634 -0.924876E-07  0.107E-03    0.03      41.9  T
  18     -9.4210634 -0.494529E-09  0.261E-04    0.03     171.4  T
  19     -9.4210634 -0.113261E-10  0.175E-05    0.03    2551.0  T

   *** convergence criteria satisfied after 19 iterations ***

         #    Occupation            Energy/Eh            Energy/eV
      -------------------------------------------------------------
         1        2.0000           -0.7384698             -20.0948
       ...           ...                  ...                  ...
         4        2.0000           -0.6163241             -16.7710
         5        2.0000           -0.5353524             -14.5677
         6        2.0000           -0.5042163             -13.7204
         7        2.0000           -0.4727391             -12.8639
         8        1.8371           -0.4201212             -11.4321
         9        1.1629           -0.4170108             -11.3474
        10        0.6560           -0.3710999             -10.0981 (HOMO)
        11        0.3440           -0.3698734             -10.0648 (LUMO)
        12                         -0.2911739              -7.9232
        13                         -0.1217615              -3.3133
        14                         -0.0917773              -2.4974
        15                          0.0703736               1.9150
       ...                                ...                  ...
        17                          0.2089813               5.6867
      -------------------------------------------------------------
                  HL-Gap            0.0012265 Eh            0.0334 eV
             Fermi-level           -0.3945263 Eh          -10.7356 eV

 transition dipole moment (au) for excitation:           9          10
     X       Y       Z   
  -0.0481   0.0305   0.0014  total (au/Debye):    0.057   0.145
 dE (eV)             :    1.249
 oscillator strength :  0.14065E-03

 SCC (total)                   0 d,  0 h,  0 min,  0.005 sec
 SCC setup                      ...        0 min,  0.000 sec (  1.774%)
 Dispersion                     ...        0 min,  0.000 sec (  0.320%)
 integral evaluation            ...        0 min,  0.001 sec ( 20.721%)
 zeroth order Hamiltonian       ...        0 min,  0.000 sec (  0.407%)
 iterations                     ...        0 min,  0.002 sec ( 37.584%)
 molecular gradient             ...        0 min,  0.001 sec ( 21.630%)
 printout                       ...        0 min,  0.001 sec ( 17.356%)

         :::::::::::::::::::::::::::::::::::::::::::::::::::::
         ::                     SUMMARY                     ::
         :::::::::::::::::::::::::::::::::::::::::::::::::::::
         :: total energy              -9.355476839724 Eh    ::
         :: gradient norm              0.170076464952 Eh/a0 ::
         :: HOMO-LUMO gap              0.033374697008 eV    ::
         ::.................................................::
         :: SCC energy                -9.421063405912 Eh    ::
         :: -> isotropic ES           -0.025068557971 Eh    ::
         :: -> anisotropic ES          0.003895807337 Eh    ::
         :: -> anisotropic XC          0.004569754614 Eh    ::
         :: -> dispersion             -0.002268236827 Eh    ::
         :: repulsion energy           0.065586505975 Eh    ::
         :: add. restraining           0.000000000000 Eh    ::
         :::::::::::::::::::::::::::::::::::::::::::::::::::::

      ----------------------------------------------------------- 
     |                   =====================                   |
     |                        A N C O P T                        |
     |                   =====================                   |
     |               Approximate Normal Coordinate               |
     |                Rational Function Optimizer                |
      ----------------------------------------------------------- 

          ...................................................
          :                      SETUP                      :
          :.................................................:
          :   optimization level            normal          :
          :   max. optcycles                   200          :
          :   ANC micro-cycles                  20          :
          :   degrees of freedom                 9          :
          :.................................................:
          :   RF solver                   davidson          :
          :   write xtbopt.log                true          :
          :   linear?                        false          :
          :   energy convergence         0.5000000E-05 Eh   :
          :   grad. convergence          0.1000000E-02 Eh/α :
          :   maximium RF displ.         1.0000000          :
          :   Hlow (freq-cutoff)         0.1000000E-01      :
          :   Hmax (freq-cutoff)         5.0000000          :
          :   S6 in model hess.         20.0000000          :
          ...................................................

generating ANC from model Hessian ...
Using Lindh-Hessian (1995)
 Shifting diagonal of input Hessian by    0.0000000000000000     
 Lowest  eigenvalues of input Hessian
   -0.000000   -0.000000   -0.000000    0.000000    0.000000    0.000000
    0.078504    0.105113    0.149330    0.202755    0.459834    0.848321
    0.968184    1.408979    1.645750
 Highest eigenvalues
    0.202755    0.459834    0.848321    0.968184    1.408979    1.645750


........................................................................
.............................. CYCLE    1 ..............................
........................................................................
   1     -9.4210634 -0.942106E+01  0.246E-05    0.03       0.0  T
   2     -9.4210634  0.476241E-11  0.405E-05    0.03    1103.3  T
   3     -9.4210634 -0.277822E-11  0.313E-05    0.03    1427.5  T
     SCC iter.                  ...        0 min,  0.000 sec
     gradient                   ...        0 min,  0.001 sec
 * total energy  :    -9.3554768 Eh     change        0.2147438E-10 Eh
   gradient norm :     0.1700766 Eh/α   predicted     0.0000000E+00 (-100.00%)
   displ. norm   :     0.2189949 α      lambda       -0.3202454E-01
   maximum displ.:     0.1601430 α      in ANC's #7, #4, #3, ...

........................................................................
.............................. CYCLE    2 ..............................
........................................................................
   1     -9.4745306 -0.947453E+01  0.288E+00    0.29       0.0  T
   2     -9.4753004 -0.769884E-03  0.172E+00    0.18       1.0  T
   3     -9.4670250  0.827539E-02  0.128E+00    0.25       1.0  T
   4     -9.4779579 -0.109329E-01  0.179E-01    0.17       1.0  T
   5     -9.4781198 -0.161881E-03  0.710E-02    0.18       1.0  T
   6     -9.4781244 -0.456358E-05  0.279E-02    0.18       1.6  T
   7     -9.4781246 -0.289065E-06  0.161E-02    0.18       2.8  T
   8     -9.4781264 -0.171089E-05  0.486E-03    0.18       9.2  T
   9     -9.4781264 -0.356624E-07  0.151E-03    0.18      29.6  T
  10     -9.4781264 -0.151797E-07  0.288E-04    0.18     155.1  T
  11     -9.4781264 -0.770939E-10  0.707E-05    0.18     632.7  T
     SCC iter.                  ...        0 min,  0.001 sec
     gradient                   ...        0 min,  0.001 sec
 * total energy  :    -9.3877908 Eh     change       -0.3231396E-01 Eh
   gradient norm :     0.1471193 Eh/α   predicted    -0.1678020E-01 ( -48.07%)
   displ. norm   :     0.7102758 α      lambda       -0.9454335E-01
   maximum displ.:     0.5508828 α      in ANC's #7, #3, #4, ...

........................................................................
.............................. CYCLE    3 ..............................
........................................................................
   1     -9.6954552 -0.969546E+01  0.555E+00    0.79       0.0  T
   2     -9.6978379 -0.238275E-02  0.325E+00    1.20       1.0  T
   3     -9.6909616  0.687634E-02  0.136E+00    0.49       1.0  T
   4     -9.6997071 -0.874555E-02  0.172E-01    1.00       1.0  T
   5     -9.6997071 -0.292986E-08  0.742E-02    0.98       1.0  T
   6     -9.6997111 -0.396646E-05  0.116E-02    0.99       3.8  T
   7     -9.6997111 -0.496940E-07  0.326E-03    0.98      13.7  T
   8     -9.6997111 -0.196250E-08  0.978E-04    0.98      45.7  T
   9     -9.6997111 -0.387843E-09  0.744E-05    0.98     600.9  T
     SCC iter.                  ...        0 min,  0.001 sec
     gradient                   ...        0 min,  0.001 sec
 * total energy  :    -9.2224532 Eh     change        0.1653376E+00 Eh
   gradient norm :     1.3842035 Eh/α   predicted    -0.7111984E-01 (-143.01%)
   displ. norm   :     0.3894768 α      lambda       -0.5056223E+00
   maximum displ.:     0.3673488 α      in ANC's #7, #5, #9, ...

........................................................................
.............................. CYCLE    4 ..............................
........................................................................
   1     -9.5488077 -0.954881E+01  0.303E+00    0.87       0.0  T
   2     -9.5498671 -0.105939E-02  0.178E+00    0.86       1.0  T
   3     -9.5499781 -0.110979E-03  0.230E-01    0.87       1.0  T
   4     -9.5499995 -0.213785E-04  0.104E-01    0.86       1.0  T
   5     -9.5499995 -0.167430E-07  0.628E-02    0.87       1.0  T
   6     -9.5500072 -0.769449E-05  0.143E-02    0.86       3.1  T
   7     -9.5500066  0.563802E-06  0.151E-02    0.86       3.0  T
   8     -9.5500080 -0.143354E-05  0.167E-03    0.86      26.7  T
   9     -9.5500080 -0.118678E-08  0.644E-04    0.86      69.4  T
  10     -9.5500080 -0.115369E-08  0.481E-05    0.86     929.3  T
     SCC iter.                  ...        0 min,  0.001 sec
     gradient                   ...        0 min,  0.001 sec
 * total energy  :    -9.4107191 Eh     change       -0.1882659E+00 Eh
   gradient norm :     0.0345959 Eh/α   predicted    -0.2911606E+00 (  54.65%)
   displ. norm   :     0.0830953 α      lambda       -0.2524616E-02
   maximum displ.:     0.0646602 α      in ANC's #4, #5, #3, ...

........................................................................
.............................. CYCLE    5 ..............................
........................................................................
   1     -9.5463412 -0.954634E+01  0.370E-01    0.85       0.0  T
   2     -9.5465543 -0.213153E-03  0.206E-01    0.87       1.0  T
   3     -9.5466789 -0.124554E-03  0.110E-01    0.86       1.0  T
   4     -9.5466899 -0.110635E-04  0.191E-02    0.86       2.3  T
   5     -9.5466905 -0.565881E-06  0.859E-03    0.86       5.2  T
   6     -9.5466905 -0.194536E-07  0.131E-03    0.86      34.2  T
   7     -9.5466905  0.210725E-07  0.180E-03    0.86      24.8  T
   8     -9.5466905 -0.236236E-07  0.243E-04    0.86     184.2  T
   9     -9.5466905 -0.131974E-09  0.106E-04    0.86     422.1  T
     SCC iter.                  ...        0 min,  0.001 sec
     gradient                   ...        0 min,  0.001 sec
 * total energy  :    -9.4124575 Eh     change       -0.1738444E-02 Eh
   gradient norm :     0.0309564 Eh/α   predicted    -0.1271023E-02 ( -26.89%)
   displ. norm   :     0.1201518 α      lambda       -0.2392411E-02
   maximum displ.:     0.0870350 α      in ANC's #4, #3, #5, ...

........................................................................
.............................. CYCLE    6 ..............................
........................................................................
   1     -9.5493592 -0.954936E+01  0.489E-01    0.97       0.0  T
   2     -9.5494700 -0.110813E-03  0.310E-01    0.99       1.0  T
   3     -9.5494985 -0.284800E-04  0.160E-01    0.98       1.0  T
   4     -9.5495679 -0.694083E-04  0.228E-02    0.99       2.0  T
   5     -9.5495686 -0.704918E-06  0.939E-03    0.99       4.8  T
   6     -9.5495686 -0.600902E-08  0.210E-03    0.99      21.3  T
   7     -9.5495685  0.492473E-07  0.290E-03    0.99      15.4  T
   8     -9.5495686 -0.585384E-07  0.336E-04    0.99     133.2  T
   9     -9.5495686 -0.452012E-10  0.758E-05    0.99     590.1  T
     SCC iter.                  ...        0 min,  0.001 sec
     gradient                   ...        0 min,  0.001 sec
 * total energy  :    -9.4142701 Eh     change       -0.1812551E-02 Eh
   gradient norm :     0.0293344 Eh/α   predicted    -0.1213477E-02 ( -33.05%)
   displ. norm   :     0.1524727 α      lambda       -0.2273431E-02
   maximum displ.:     0.0946327 α      in ANC's #3, #4, #9, ...

........................................................................
.............................. CYCLE    7 ..............................
........................................................................
   1     -9.5571837 -0.955718E+01  0.696E-01    1.24       0.0  T
   2     -9.5572747 -0.910015E-04  0.454E-01    1.25       1.0  T
   3     -9.5571354  0.139314E-03  0.240E-01    1.24       1.0  T
   4     -9.5574271 -0.291699E-03  0.310E-02    1.25       1.4  T
   5     -9.5574279 -0.788571E-06  0.917E-03    1.25       4.9  T
   6     -9.5574279 -0.105797E-07  0.314E-03    1.25      14.2  T
   7     -9.5574278  0.101880E-06  0.394E-03    1.25      11.3  T
   8     -9.5574279 -0.112795E-06  0.520E-04    1.25      86.0  T
   9     -9.5574279 -0.500908E-09  0.122E-04    1.25     368.0  T
     SCC iter.                  ...        0 min,  0.001 sec
     gradient                   ...        0 min,  0.001 sec
 * total energy  :    -9.4158249 Eh     change       -0.1554810E-02 Eh
   gradient norm :     0.0209678 Eh/α   predicted    -0.1163140E-02 ( -25.19%)
   displ. norm   :     0.1117860 α      lambda       -0.1083984E-02
   maximum displ.:     0.0784123 α      in ANC's #3, #9, #4, ...

........................................................................
.............................. CYCLE    8 ..............................
........................................................................
   1     -9.5660676 -0.956607E+01  0.575E-01    1.52       0.0  T
   2     -9.5661116 -0.439812E-04  0.413E-01    1.53       1.0  T
   3     -9.5661698 -0.581714E-04  0.227E-01    1.52       1.0  T
   4     -9.5663580 -0.188206E-03  0.243E-02    1.53       1.8  T
   5     -9.5663582 -0.268620E-06  0.396E-03    1.53      11.3  T
   6     -9.5663583 -0.196116E-07  0.172E-03    1.53      26.0  T
   7     -9.5663583  0.498523E-08  0.840E-04    1.53      53.2  T
   8     -9.5663583 -0.535511E-08  0.118E-04    1.53     379.7  T
     SCC iter.                  ...        0 min,  0.001 sec
     gradient                   ...        0 min,  0.001 sec
 * total energy  :    -9.4166583 Eh     change       -0.8334213E-03 Eh
   gradient norm :     0.0196474 Eh/α   predicted    -0.5487651E-03 ( -34.16%)
   displ. norm   :     0.1960144 α      lambda       -0.1514452E-02
   maximum displ.:     0.1322443 α      in ANC's #3, #9, #5, ...

........................................................................
.............................. CYCLE    9 ..............................
........................................................................
   1     -9.5803045 -0.958030E+01  0.105E+00    2.11       0.0  T
   2     -9.5794360  0.868464E-03  0.947E-01    1.87       1.0  T
   3     -9.5827878 -0.335179E-02  0.424E-01    2.07       1.0  T
   4     -9.5829752 -0.187378E-03  0.402E-02    2.05       1.1  T
   5     -9.5829750  0.159478E-06  0.182E-02    2.05       2.5  T
   6     -9.5829756 -0.589645E-06  0.394E-03    2.05      11.4  T
   7     -9.5829756  0.254866E-07  0.248E-03    2.05      18.0  T
   8     -9.5829756 -0.303807E-08  0.205E-03    2.05      21.8  T
   9     -9.5829756 -0.272081E-07  0.120E-04    2.05     371.6  T
  10     -9.5829756 -0.163780E-10  0.159E-05    2.05    2820.3  T
     SCC iter.                  ...        0 min,  0.001 sec
     gradient                   ...        0 min,  0.001 sec
 * total energy  :    -9.4179340 Eh     change       -0.1275750E-02 Eh
   gradient norm :     0.0350726 Eh/α   predicted    -0.7863265E-03 ( -38.36%)
   displ. norm   :     0.4969259 α      lambda       -0.3698855E-02
   maximum displ.:     0.3188233 α      in ANC's #3, #9, #5, ...

........................................................................
.............................. CYCLE   10 ..............................
........................................................................
   1     -9.6129111 -0.961291E+01  0.194E+00    2.92       0.0  T
   2     -9.6027352  0.101758E-01  0.216E+00    1.82       1.0  T
   3     -9.6267872 -0.240520E-01  0.776E-01    2.46       1.0  T
   4     -9.6268345 -0.473150E-04  0.125E-01    2.48       1.0  T
   5     -9.6269115 -0.769870E-04  0.473E-02    2.42       1.0  T
   6     -9.6269118 -0.296184E-06  0.204E-02    2.42       2.2  T
   7     -9.6269124 -0.648511E-06  0.414E-03    2.43      10.8  T
   8     -9.6269123  0.939981E-07  0.362E-03    2.42      12.4  T
   9     -9.6269124 -0.100367E-06  0.335E-04    2.42     133.3  T
  10     -9.6269124 -0.178968E-09  0.878E-05    2.43     509.6  T
     SCC iter.                  ...        0 min,  0.001 sec
     gradient                   ...        0 min,  0.001 sec
 * total energy  :    -9.4184914 Eh     change       -0.5573903E-03 Eh
   gradient norm :     0.1359517 Eh/α   predicted    -0.2306122E-02 ( 313.74%)
   displ. norm   :     0.1088105 α      lambda       -0.5321324E-02
   maximum displ.:     0.0612182 α      in ANC's #9, #3, #8, ...

........................................................................
.............................. CYCLE   11 ..............................
........................................................................
   1     -9.6067458 -0.960675E+01  0.412E-01    2.04       0.0  T
   2     -9.6068144 -0.685029E-04  0.288E-01    2.21       1.0  T
   3     -9.6067542  0.601393E-04  0.184E-01    2.09       1.0  T
   4     -9.6069229 -0.168708E-03  0.107E-01    2.17       1.0  T
   5     -9.6069614 -0.384890E-04  0.152E-02    2.16       2.9  T
   6     -9.6069618 -0.350408E-06  0.174E-03    2.16      25.7  T
   7     -9.6069618 -0.429125E-08  0.655E-04    2.16      68.3  T
   8     -9.6069618  0.194492E-08  0.517E-04    2.16      86.4  T
     SCC iter.                  ...        0 min,  0.001 sec
     gradient                   ...        0 min,  0.001 sec
 * total energy  :    -9.4213910 Eh     change       -0.2899618E-02 Eh
   gradient norm :     0.0409984 Eh/α   predicted    -0.2692165E-02 (  -7.15%)
   displ. norm   :     0.1888981 α      lambda       -0.2541452E-02
   maximum displ.:     0.1126243 α      in ANC's #9, #3, #5, ...

........................................................................
.............................. CYCLE   12 ..............................
........................................................................
   1     -9.6079364 -0.960794E+01  0.618E-01    2.25       0.0  T
   2     -9.6064877  0.144861E-02  0.717E-01    1.98       1.0  T
   3     -9.6095127 -0.302493E-02  0.199E-01    2.19       1.0  T
   4     -9.6095236 -0.109261E-04  0.653E-02    2.14       1.0  T
   5     -9.6095448 -0.212219E-04  0.109E-02    2.16       4.1  T
   6     -9.6095448 -0.648656E-08  0.310E-03    2.16      14.4  T
   7     -9.6095448  0.205474E-08  0.157E-03    2.16      28.5  T
   8     -9.6095448 -0.890010E-08  0.101E-03    2.16      44.1  T
   9     -9.6095448 -0.447822E-08  0.792E-05    2.16     564.7  T
  10     -9.6095448 -0.113474E-10  0.175E-05    2.16    2557.5  T
     SCC iter.                  ...        0 min,  0.001 sec
     gradient                   ...        0 min,  0.001 sec
 * total energy  :    -9.4235472 Eh     change       -0.2156181E-02 Eh
   gradient norm :     0.0235428 Eh/α   predicted    -0.1316068E-02 ( -38.96%)
   displ. norm   :     0.4477386 α      lambda       -0.4940338E-02
   maximum displ.:     0.2916899 α      in ANC's #9, #5, #3, ...

........................................................................
.............................. CYCLE   13 ..............................
........................................................................
   1     -9.6141041 -0.961410E+01  0.933E-01    2.37       0.0  T
   2     -9.6133599  0.744214E-03  0.825E-01    2.30       1.0  T
   3     -9.6155689 -0.220901E-02  0.390E-01    2.51       1.0  T
   4     -9.6157165 -0.147545E-03  0.225E-01    2.33       1.0  T
   5     -9.6159830 -0.266517E-03  0.232E-02    2.42       1.9  T
   6     -9.6159837 -0.741769E-06  0.580E-03    2.42       7.7  T
   7     -9.6159839 -0.136476E-06  0.353E-03    2.42      12.7  T
   8     -9.6159839 -0.787530E-07  0.142E-03    2.42      31.5  T
   9     -9.6159839 -0.737178E-08  0.272E-04    2.42     164.5  T
  10     -9.6159839 -0.257007E-09  0.946E-05    2.42     472.5  T
     SCC iter.                  ...        0 min,  0.001 sec
     gradient                   ...        0 min,  0.001 sec
 * total energy  :    -9.4268487 Eh     change       -0.3301515E-02 Eh
   gradient norm :     0.0265651 Eh/α   predicted    -0.2965346E-02 ( -10.18%)
   displ. norm   :     0.2343540 α      lambda       -0.1975780E-02
   maximum displ.:     0.1702733 α      in ANC's #9, #3, #5, ...

........................................................................
.............................. CYCLE   14 ..............................
........................................................................
   1     -9.6197252 -0.961973E+01  0.468E-01    2.57       0.0  T
   2     -9.6199824 -0.257242E-03  0.308E-01    2.79       1.0  T
   3     -9.6200286 -0.461933E-04  0.181E-01    2.67       1.0  T
   4     -9.6198440  0.184588E-03  0.192E-01    2.76       1.0  T
   5     -9.6201108 -0.266762E-03  0.134E-02    2.71       3.3  T
   6     -9.6201112 -0.384294E-06  0.284E-03    2.71      15.7  T
   7     -9.6201112 -0.293930E-07  0.106E-03    2.71      42.0  T
   8     -9.6201112 -0.425608E-08  0.680E-04    2.71      65.7  T
   9     -9.6201112 -0.182324E-08  0.739E-05    2.71     605.1  T
     SCC iter.                  ...        0 min,  0.001 sec
     gradient                   ...        0 min,  0.001 sec
 * total energy  :    -9.4282222 Eh     change       -0.1373463E-02 Eh
   gradient norm :     0.0144523 Eh/α   predicted    -0.1042151E-02 ( -24.12%)
   displ. norm   :     0.1687718 α      lambda       -0.7545622E-03
   maximum displ.:     0.1225433 α      in ANC's #9, #3, #5, ...

........................................................................
.............................. CYCLE   15 ..............................
........................................................................
   1     -9.6244051 -0.962441E+01  0.332E-01    2.80       0.0  T
   2     -9.6240455  0.359585E-03  0.367E-01    3.00       1.0  T
   3     -9.6245653 -0.519778E-03  0.173E-01    2.87       1.0  T
   4     -9.6245446  0.207389E-04  0.128E-01    2.91       1.0  T
   5     -9.6246429 -0.983180E-04  0.168E-02    2.89       2.7  T
   6     -9.6246431 -0.238199E-06  0.106E-02    2.89       4.2  T
   7     -9.6246437 -0.594666E-06  0.155E-03    2.89      28.9  T
   8     -9.6246437 -0.103262E-07  0.150E-04    2.89     298.2  T
   9     -9.6246437  0.138840E-10  0.108E-04    2.89     413.7  T
     SCC iter.                  ...        0 min,  0.001 sec
     gradient                   ...        0 min,  0.001 sec
 * total energy  :    -9.4287613 Eh     change       -0.5390561E-03 Eh
   gradient norm :     0.0072899 Eh/α   predicted    -0.3880235E-03 ( -28.02%)
   displ. norm   :     0.2418507 α      lambda       -0.4801927E-03
   maximum displ.:     0.1675522 α      in ANC's #9, #3, #5, ...

........................................................................
.............................. CYCLE   16 ..............................
........................................................................
   1     -9.6267424 -0.962674E+01  0.829E-01    2.99       0.0  T
   2     -9.6240114  0.273104E-02  0.699E-01    3.22       1.0  T
   3     -9.6224538  0.155764E-02  0.844E-01    2.77       1.0  T
   4     -9.6261719 -0.371812E-02  0.347E-01    2.91       1.0  T
   5     -9.6269210 -0.749158E-03  0.151E-01    3.00       1.0  T
   6     -9.6270734 -0.152386E-03  0.832E-02    3.03       1.0  T
   7     -9.6270938 -0.203974E-04  0.140E-02    3.06       3.2  T
   8     -9.6270928  0.101004E-05  0.180E-02    3.06       2.5  T
   9     -9.6270948 -0.194782E-05  0.444E-03    3.05      10.1  T
  10     -9.6270948 -0.539393E-07  0.266E-03    3.05      16.8  T
  11     -9.6270948 -0.255570E-07  0.112E-03    3.05      40.1  T
  12     -9.6270948 -0.299496E-09  0.183E-04    3.05     244.8  T
  13     -9.6270948 -0.172475E-09  0.715E-05    3.05     625.4  T
     SCC iter.                  ...        0 min,  0.001 sec
     gradient                   ...        0 min,  0.001 sec
 * total energy  :    -9.4289923 Eh     change       -0.2310098E-03 Eh
   gradient norm :     0.0197642 Eh/α   predicted    -0.2541390E-03 (  10.01%)
   displ. norm   :     0.1002561 α      lambda       -0.4325224E-03
   maximum displ.:     0.0704999 α      in ANC's #9, #3, #7, ...

........................................................................
.............................. CYCLE   17 ..............................
........................................................................
   1     -9.6288359 -0.962884E+01  0.478E-01    3.03       0.0  T
   2     -9.6254753  0.336062E-02  0.632E-01    3.24       1.0  T
   3     -9.6273984 -0.192307E-02  0.481E-01    2.95       1.0  T
   4     -9.6289164 -0.151806E-02  0.165E-01    3.03       1.0  T
   5     -9.6290761 -0.159700E-03  0.716E-02    3.07       1.0  T
   6     -9.6291001 -0.239538E-04  0.518E-02    3.08       1.0  T
   7     -9.6291016 -0.149634E-05  0.260E-02    3.10       1.7  T
   8     -9.6291057 -0.414063E-05  0.123E-02    3.09       3.7  T
   9     -9.6291066 -0.822489E-06  0.498E-03    3.09       9.0  T
  10     -9.6291067 -0.156304E-06  0.501E-04    3.09      89.3  T
  11     -9.6291067  0.311466E-10  0.359E-04    3.09     124.5  T
     SCC iter.                  ...        0 min,  0.001 sec
     gradient                   ...        0 min,  0.001 sec
 * total energy  :    -9.4292342 Eh     change       -0.2418910E-03 Eh
   gradient norm :     0.0049666 Eh/α   predicted    -0.2184330E-03 (  -9.70%)
   displ. norm   :     0.1052648 α      lambda       -0.1075468E-03
   maximum displ.:     0.0685543 α      in ANC's #3, #9, #7, ...

........................................................................
.............................. CYCLE   18 ..............................
........................................................................
   1     -9.6309822 -0.963098E+01  0.362E-01    3.12       0.0  T
   2     -9.6307765  0.205762E-03  0.196E-01    3.16       1.0  T
   3     -9.6290268  0.174963E-02  0.544E-01    2.98       1.0  T
   4     -9.6309206 -0.189378E-02  0.955E-02    3.09       1.0  T
   5     -9.6310026 -0.819635E-04  0.225E-02    3.12       2.0  T
   6     -9.6309893  0.132403E-04  0.409E-02    3.13       1.1  T
   7     -9.6310027 -0.133500E-04  0.391E-03    3.12      11.4  T
   8     -9.6310028 -0.658920E-07  0.981E-04    3.12      45.6  T
   9     -9.6310028 -0.461126E-08  0.630E-04    3.12      71.0  T
     SCC iter.                  ...        0 min,  0.001 sec
     gradient                   ...        0 min,  0.001 sec
 * total energy  :    -9.4293103 Eh     change       -0.7614130E-04 Eh
   gradient norm :     0.0107780 Eh/α   predicted    -0.5437121E-04 ( -28.59%)
   displ. norm   :     0.1229410 α      lambda       -0.1939077E-03
   maximum displ.:     0.0972599 α      in ANC's #3, #9, #7, ...

........................................................................
.............................. CYCLE   19 ..............................
........................................................................
   1     -9.6333864 -0.963339E+01  0.281E-01    3.13       0.0  T
   2     -9.6333411  0.452737E-04  0.162E-01    3.11       1.0  T
   3     -9.6303113  0.302983E-02  0.551E-01    3.24       1.0  T
   4     -9.6333842 -0.307295E-02  0.369E-02    3.11       1.2  T
   5     -9.6333869 -0.265788E-05  0.374E-02    3.13       1.2  T
   6     -9.6333842  0.273005E-05  0.316E-02    3.13       1.4  T
   7     -9.6333935 -0.934117E-05  0.851E-03    3.12       5.3  T
   8     -9.6333938 -0.320275E-06  0.580E-03    3.12       7.7  T
   9     -9.6333940 -0.184311E-06  0.297E-03    3.12      15.1  T
  10     -9.6333941 -0.595882E-07  0.604E-04    3.12      74.1  T
  11     -9.6333941 -0.698245E-09  0.104E-04    3.12     429.5  T
     SCC iter.                  ...        0 min,  0.001 sec
     gradient                   ...        0 min,  0.001 sec
 * total energy  :    -9.4294782 Eh     change       -0.1678676E-03 Eh
   gradient norm :     0.0146323 Eh/α   predicted    -0.9842081E-04 ( -41.37%)
   displ. norm   :     0.4079534 α      lambda       -0.8585969E-03
   maximum displ.:     0.3458297 α      in ANC's #3, #4, #9, ...

........................................................................
.............................. CYCLE   20 ..............................
........................................................................
   1     -9.6351427 -0.963514E+01  0.778E-01    3.08       0.0  T
   2     -9.6290713  0.607142E-02  0.133E+00    2.73       1.0  T
   3     -9.6353276 -0.625630E-02  0.469E-01    2.95       1.0  T
   4     -9.6196263  0.157013E-01  0.121E+00    3.25       1.0  T
   5     -9.6358089 -0.161826E-01  0.144E-01    3.00       1.0  T
   6     -9.6358472 -0.383367E-04  0.123E-01    3.00       1.0  T
   7     -9.6358055  0.417751E-04  0.952E-02    2.99       1.0  T
   8     -9.6358403 -0.347986E-04  0.714E-02    3.00       1.0  T
   9     -9.6358604 -0.201030E-04  0.513E-02    3.01       1.0  T
  10     -9.6358664 -0.599709E-05  0.429E-02    3.01       1.0  T
  11     -9.6358773 -0.109188E-04  0.178E-02    3.01       2.5  T
  12     -9.6358793 -0.198709E-05  0.660E-03    3.02       6.8  T
  13     -9.6358796 -0.314820E-06  0.116E-04    3.02     385.2  T
  14     -9.6358796 -0.116579E-09  0.329E-05    3.02    1357.9  T
     SCC iter.                  ...        0 min,  0.001 sec
     gradient                   ...        0 min,  0.001 sec
 * total energy  :    -9.4302349 Eh     change       -0.7567422E-03 Eh
   gradient norm :     0.0220918 Eh/α   predicted    -0.5007437E-03 ( -33.83%)
   displ. norm   :     0.7009377 α      lambda       -0.2074115E-02
   maximum displ.:     0.6176308 α      in ANC's #3, #4, #5, ...
 * RMSD in coord.:     1.6612726 α      energy gain  -0.7475808E-01 Eh

generating ANC from model Hessian ...
Using Lindh-Hessian (1995)
 Shifting diagonal of input Hessian by    1.2471268031466616E-002
 Lowest  eigenvalues of input Hessian
    0.010000    0.012378   -0.000000   -0.000000   -0.000000    0.000000
    0.000000    0.000000    0.012644    0.013710    0.013847    0.581172
    0.691687    1.799314    2.393369
 Highest eigenvalues
    0.013710    0.013847    0.581172    0.691687    1.799314    2.393369


........................................................................
.............................. CYCLE   21 ..............................
........................................................................
   1     -9.6193903 -0.961939E+01  0.166E+00    2.62       0.0  T
   2     -9.6063413  0.130490E-01  0.210E+00    2.12       1.0  T
   3     -9.6170650 -0.107238E-01  0.112E+00    2.70       1.0  T
   4     -9.6177619 -0.696881E-03  0.746E-01    2.33       1.0  T
   5     -9.6215694 -0.380752E-02  0.315E-01    2.54       1.0  T
   6     -9.6215978 -0.284028E-04  0.394E-01    2.59       1.0  T
   7     -9.6215162  0.816283E-04  0.124E-01    2.55       1.0  T
   8     -9.6216671 -0.150934E-03  0.260E-02    2.58       1.7  T
   9     -9.6216693 -0.219097E-05  0.970E-03    2.59       4.6  T
  10     -9.6216700 -0.630297E-06  0.804E-03    2.59       5.6  T
  11     -9.6216700  0.558566E-08  0.140E-03    2.59      31.9  T
  12     -9.6216700 -0.184053E-07  0.339E-04    2.59     131.8  T
  13     -9.6216700 -0.110263E-08  0.344E-05    2.59    1301.6  T
     SCC iter.                  ...        0 min,  0.001 sec
     gradient                   ...        0 min,  0.001 sec
 * total energy  :    -9.4299144 Eh     change        0.3205461E-03 Eh
   gradient norm :     0.0948768 Eh/α   predicted     0.0000000E+00 (-100.00%)
   displ. norm   :     0.3420428 α      lambda       -0.7099014E-02
   maximum displ.:     0.3308959 α      in ANC's #1, #5, #7, ...

........................................................................
.............................. CYCLE   22 ..............................
........................................................................
   1     -9.6294535 -0.962945E+01  0.118E+00    3.08       0.0  T
   2     -9.6174936  0.119599E-01  0.204E+00    2.25       1.0  T
   3     -9.6330637 -0.155701E-01  0.686E-01    2.83       1.0  T
   4     -9.6314698  0.159385E-02  0.708E-01    2.97       1.0  T
   5     -9.6314414  0.284841E-04  0.418E-01    2.71       1.0  T
   6     -9.6331441 -0.170274E-02  0.248E-01    2.80       1.0  T
   7     -9.6332795 -0.135426E-03  0.135E-01    2.82       1.0  T
   8     -9.6333065 -0.269891E-04  0.101E-01    2.83       1.0  T
   9     -9.6333383 -0.318041E-04  0.429E-02    2.84       1.0  T
  10     -9.6333398 -0.143106E-05  0.371E-02    2.84       1.2  T
  11     -9.6333425 -0.275740E-05  0.201E-02    2.85       2.2  T
  12     -9.6333437 -0.122070E-05  0.651E-04    2.85      68.7  T
  13     -9.6333437 -0.542823E-09  0.821E-05    2.85     545.0  T
  14     -9.6333437  0.206253E-10  0.120E-04    2.85     371.2  T
     SCC iter.                  ...        0 min,  0.001 sec
     gradient                   ...        0 min,  0.001 sec
 * total energy  :    -9.4343817 Eh     change       -0.4467352E-02 Eh
   gradient norm :     0.0074212 Eh/α   predicted    -0.3964777E-02 ( -11.25%)
   displ. norm   :     0.5333939 α      lambda       -0.3329063E-02
   maximum displ.:     0.5200896 α      in ANC's #1, #5, #7, ...

........................................................................
.............................. CYCLE   23 ..............................
........................................................................
   1     -9.6200249 -0.962002E+01  0.133E+00    2.90       0.0  T
   2     -9.6063238  0.137011E-01  0.146E+00    2.00       1.0  T
   3     -9.6215197 -0.151959E-01  0.851E-01    2.77       1.0  T
   4     -9.6243529 -0.283316E-02  0.363E-01    2.72       1.0  T
   5     -9.6247280 -0.375183E-03  0.231E-01    2.64       1.0  T
   6     -9.6248317 -0.103715E-03  0.145E-01    2.62       1.0  T
   7     -9.6248371 -0.533541E-05  0.376E-02    2.61       1.2  T
   8     -9.6248390 -0.190378E-05  0.134E-02    2.61       3.3  T
   9     -9.6248390 -0.357300E-08  0.450E-03    2.61       9.9  T
  10     -9.6248391 -0.121412E-06  0.226E-03    2.61      19.8  T
  11     -9.6248391 -0.128026E-08  0.588E-05    2.61     760.0  T
  12     -9.6248391  0.287770E-12  0.357E-05    2.61    1253.8  T
     SCC iter.                  ...        0 min,  0.001 sec
     gradient                   ...        0 min,  0.001 sec
 * total energy  :    -9.4370311 Eh     change       -0.2649418E-02 Eh
   gradient norm :     0.0426611 Eh/α   predicted    -0.2138143E-02 ( -19.30%)
   displ. norm   :     0.4183725 α      lambda       -0.1976741E-02
   maximum displ.:     0.4159683 α      in ANC's #1, #9, #5, ...

........................................................................
.............................. CYCLE   24 ..............................
........................................................................
   1     -9.6257693 -0.962577E+01  0.854E-01    2.78       0.0  T
   2     -9.6233345  0.243478E-02  0.757E-01    2.28       1.0  T
   3     -9.6255418 -0.220735E-02  0.557E-01    2.68       1.0  T
   4     -9.6271601 -0.161830E-02  0.143E-01    2.59       1.0  T
   5     -9.6271925 -0.323644E-04  0.261E-02    2.56       1.7  T
   6     -9.6271925 -0.337312E-08  0.917E-03    2.56       4.9  T
   7     -9.6271927 -0.206579E-06  0.703E-03    2.56       6.4  T
   8     -9.6271930 -0.300216E-06  0.214E-03    2.56      20.9  T
   9     -9.6271930 -0.144064E-07  0.240E-04    2.56     186.5  T
  10     -9.6271930 -0.693827E-10  0.636E-05    2.56     703.2  T
     SCC iter.                  ...        0 min,  0.001 sec
     gradient                   ...        0 min,  0.001 sec
 * total energy  :    -9.4372553 Eh     change       -0.2241929E-03 Eh
   gradient norm :     0.0355093 Eh/α   predicted    -0.1161360E-02 ( 418.02%)
   displ. norm   :     0.2101005 α      lambda       -0.2066729E-02
   maximum displ.:     0.1830941 α      in ANC's #1, #5, #6, ...

........................................................................
.............................. CYCLE   25 ..............................
........................................................................
   1     -9.6355446 -0.963554E+01  0.286E-01    2.58       0.0  T
   2     -9.6350465  0.498132E-03  0.269E-01    2.68       1.0  T
   3     -9.6354045 -0.358029E-03  0.226E-01    2.54       1.0  T
   4     -9.6356897 -0.285219E-03  0.302E-02    2.61       1.5  T
   5     -9.6356937 -0.390729E-05  0.114E-02    2.60       3.9  T
   6     -9.6356931  0.589930E-06  0.997E-03    2.60       4.5  T
   7     -9.6356937 -0.681418E-06  0.292E-03    2.60      15.3  T
   8     -9.6356938 -0.300849E-07  0.111E-03    2.60      40.4  T
   9     -9.6356938 -0.381825E-08  0.106E-04    2.60     420.4  T
  10     -9.6356938 -0.113989E-10  0.631E-06    2.60    7088.8  T
     SCC iter.                  ...        0 min,  0.001 sec
     gradient                   ...        0 min,  0.001 sec
 * total energy  :    -9.4382333 Eh     change       -0.9779220E-03 Eh
   gradient norm :     0.0077262 Eh/α   predicted    -0.1078979E-02 (  10.33%)
   displ. norm   :     0.1722452 α      lambda       -0.3809039E-03
   maximum displ.:     0.1645813 α      in ANC's #5, #1, #7, ...

........................................................................
.............................. CYCLE   26 ..............................
........................................................................
   1     -9.6279986 -0.962800E+01  0.407E-01    2.50       0.0  T
   2     -9.6279433  0.553546E-04  0.244E-01    2.49       1.0  T
   3     -9.6272090  0.734310E-03  0.337E-01    2.60       1.0  T
   4     -9.6279941 -0.785165E-03  0.803E-02    2.47       1.0  T
   5     -9.6280541 -0.599826E-04  0.160E-02    2.52       2.8  T
   6     -9.6280538  0.346954E-06  0.150E-02    2.52       3.0  T
   7     -9.6280552 -0.142052E-05  0.158E-03    2.52      28.3  T
   8     -9.6280552 -0.315485E-08  0.805E-04    2.52      55.5  T
   9     -9.6280552 -0.742508E-09  0.123E-04    2.52     362.2  T
     SCC iter.                  ...        0 min,  0.001 sec
     gradient                   ...        0 min,  0.001 sec
 * total energy  :    -9.4382536 Eh     change       -0.2033459E-04 Eh
   gradient norm :     0.0289119 Eh/α   predicted    -0.1961014E-03 ( 864.37%)
   displ. norm   :     0.0370988 α      lambda       -0.4633967E-03
   maximum displ.:     0.0202268 α      in ANC's #2, #5, #1, ...

........................................................................
.............................. CYCLE   27 ..............................
........................................................................
   1     -9.6333489 -0.963335E+01  0.109E-01    2.61       0.0  T
   2     -9.6333220  0.268826E-04  0.103E-01    2.60       1.0  T
   3     -9.6333594 -0.374491E-04  0.698E-02    2.58       1.0  T
   4     -9.6333785 -0.190191E-04  0.266E-02    2.60       1.7  T
   5     -9.6333793 -0.852875E-06  0.104E-02    2.59       4.3  T
   6     -9.6333800 -0.707657E-06  0.382E-03    2.59      11.7  T
   7     -9.6333801 -0.331744E-07  0.429E-04    2.59     104.2  T
   8     -9.6333801 -0.110544E-09  0.176E-04    2.59     253.9  T
     SCC iter.                  ...        0 min,  0.001 sec
     gradient                   ...        0 min,  0.001 sec
 * total energy  :    -9.4385645 Eh     change       -0.3109112E-03 Eh
   gradient norm :     0.0087385 Eh/α   predicted    -0.2320189E-03 ( -25.37%)
   displ. norm   :     0.1383761 α      lambda       -0.3799494E-03
   maximum displ.:     0.0856898 α      in ANC's #2, #5, #1, ...

........................................................................
.............................. CYCLE   28 ..............................
........................................................................
   1     -9.6347792 -0.963478E+01  0.405E-01    2.66       0.0  T
   2     -9.6341396  0.639663E-03  0.391E-01    2.67       1.0  T
   3     -9.6346590 -0.519421E-03  0.264E-01    2.64       1.0  T
   4     -9.6349768 -0.317846E-03  0.250E-02    2.66       1.8  T
   5     -9.6349775 -0.613360E-06  0.168E-02    2.65       2.7  T
   6     -9.6349749  0.254708E-05  0.198E-02    2.66       2.3  T
   7     -9.6349782 -0.330894E-05  0.130E-03    2.66      34.4  T
   8     -9.6349782 -0.110780E-08  0.648E-04    2.66      69.1  T
   9     -9.6349782 -0.591836E-09  0.966E-05    2.66     463.1  T
     SCC iter.                  ...        0 min,  0.001 sec
     gradient                   ...        0 min,  0.001 sec
 * total energy  :    -9.4389270 Eh     change       -0.3625470E-03 Eh
   gradient norm :     0.0128162 Eh/α   predicted    -0.1936109E-03 ( -46.60%)
   displ. norm   :     0.9238002 α      lambda       -0.2440538E-02
   maximum displ.:     0.6493470 α      in ANC's #2, #5, #1, ...

........................................................................
.............................. CYCLE   29 ..............................
........................................................................
   1     -9.5586787 -0.955868E+01  0.261E+00    3.03       0.0  T
   2     -9.4875886  0.710901E-01  0.340E+00    3.31       1.0  T
   3     -9.5540083 -0.664197E-01  0.181E+00    3.25       1.0  T
   4     -9.5674120 -0.134038E-01  0.647E-01    3.12       1.0  T
   5     -9.5697769 -0.236485E-02  0.316E-01    3.31       1.0  T
   6     -9.5703130 -0.536137E-03  0.135E-01    3.28       1.0  T
   7     -9.5703740 -0.609705E-04  0.248E-02    3.30       1.8  T
   8     -9.5703761 -0.206140E-05  0.949E-03    3.30       4.7  T
   9     -9.5703761 -0.500059E-07  0.138E-03    3.30      32.3  T
  10     -9.5703761 -0.149290E-07  0.452E-04    3.30      98.9  T
  11     -9.5703761 -0.559439E-09  0.732E-05    3.30     611.3  T
     SCC iter.                  ...        0 min,  0.001 sec
     gradient                   ...        0 min,  0.001 sec
 * total energy  :    -9.4216206 Eh     change        0.1730643E-01 Eh
   gradient norm :     0.2030044 Eh/α   predicted    -0.2261620E-02 (-113.07%)
   displ. norm   :     0.4561566 α      lambda       -0.4185468E-01
   maximum displ.:     0.3706479 α      in ANC's #2, #4, #3, ...

........................................................................
.............................. CYCLE   30 ..............................
........................................................................
   1     -9.6220261 -0.962203E+01  0.174E+00    3.01       0.0  T
   2     -9.6071883  0.148378E-01  0.173E+00    2.12       1.0  T
   3     -9.6222517 -0.150633E-01  0.110E+00    2.82       1.0  T
   4     -9.6276130 -0.536139E-02  0.331E-01    2.74       1.0  T
   5     -9.6277585 -0.145503E-03  0.176E-01    2.60       1.0  T
   6     -9.6279123 -0.153801E-03  0.838E-02    2.64       1.0  T
   7     -9.6279224 -0.100412E-04  0.207E-02    2.62       2.2  T
   8     -9.6279252 -0.280351E-05  0.487E-03    2.63       9.2  T
   9     -9.6279252 -0.178109E-07  0.976E-04    2.63      45.8  T
  10     -9.6279252 -0.458074E-09  0.512E-04    2.63      87.3  T
     SCC iter.                  ...        0 min,  0.001 sec
     gradient                   ...        0 min,  0.001 sec
 * total energy  :    -9.4399046 Eh     change       -0.1828401E-01 Eh
   gradient norm :     0.0296453 Eh/α   predicted    -0.2528184E-01 (  38.27%)
   displ. norm   :     0.3946626 α      lambda       -0.2278173E-02
   maximum displ.:     0.2880574 α      in ANC's #5, #1, #4, ...

........................................................................
.............................. CYCLE   31 ..............................
........................................................................
   1     -9.6497668 -0.964977E+01  0.102E+00    2.84       0.0  T
   2     -9.6498110 -0.442357E-04  0.604E-01    2.75       1.0  T
   3     -9.6476535  0.215751E-02  0.604E-01    2.73       1.0  T
   4     -9.6495881 -0.193460E-02  0.248E-01    2.81       1.0  T
   5     -9.6500657 -0.477597E-03  0.256E-02    2.75       1.7  T
   6     -9.6500622  0.346087E-05  0.219E-02    2.76       2.0  T
   7     -9.6500665 -0.428136E-05  0.310E-03    2.75      14.4  T
   8     -9.6500665 -0.329509E-07  0.134E-03    2.75      33.4  T
   9     -9.6500665 -0.174179E-08  0.214E-04    2.75     209.5  T
  10     -9.6500665 -0.102299E-09  0.261E-05    2.75    1715.4  T
     SCC iter.                  ...        0 min,  0.001 sec
     gradient                   ...        0 min,  0.001 sec
 * total energy  :    -9.4393667 Eh     change        0.5379754E-03 Eh
   gradient norm :     0.0481546 Eh/α   predicted    -0.1316493E-02 (-344.71%)
   displ. norm   :     0.1761785 α      lambda       -0.1237908E-02
   maximum displ.:     0.1296256 α      in ANC's #5, #1, #4, ...

........................................................................
.............................. CYCLE   32 ..............................
........................................................................
   1     -9.6393734 -0.963937E+01  0.452E-01    2.68       0.0  T
   2     -9.6393377  0.357788E-04  0.283E-01    2.72       1.0  T
   3     -9.6387011  0.636516E-03  0.336E-01    2.74       1.0  T
   4     -9.6393704 -0.669229E-03  0.106E-01    2.69       1.0  T
   5     -9.6394521 -0.817025E-04  0.129E-02    2.72       3.5  T
   6     -9.6394505  0.162113E-05  0.146E-02    2.72       3.1  T
   7     -9.6394522 -0.179400E-05  0.198E-03    2.72      22.5  T
   8     -9.6394523 -0.166827E-07  0.574E-04    2.72      77.9  T
   9     -9.6394523 -0.321787E-09  0.103E-04    2.72     434.8  T
     SCC iter.                  ...        0 min,  0.001 sec
     gradient                   ...        0 min,  0.001 sec
 * total energy  :    -9.4402792 Eh     change       -0.9125023E-03 Eh
   gradient norm :     0.0226716 Eh/α   predicted    -0.6381658E-03 ( -30.06%)
   displ. norm   :     0.3261238 α      lambda       -0.1181265E-02
   maximum displ.:     0.1916892 α      in ANC's #5, #2, #4, ...

........................................................................
.............................. CYCLE   33 ..............................
........................................................................
   1     -9.6254814 -0.962548E+01  0.896E-01    2.56       0.0  T
   2     -9.6248317  0.649704E-03  0.615E-01    2.63       1.0  T
   3     -9.6214322  0.339956E-02  0.788E-01    2.59       1.0  T
   4     -9.6257552 -0.432307E-02  0.105E-01    2.58       1.0  T
   5     -9.6258035 -0.482566E-04  0.307E-02    2.62       1.5  T
   6     -9.6257973  0.620248E-05  0.341E-02    2.60       1.3  T
   7     -9.6258063 -0.900658E-05  0.401E-03    2.61      11.1  T
   8     -9.6258064 -0.728698E-07  0.148E-03    2.61      30.2  T
   9     -9.6258064 -0.557833E-08  0.188E-04    2.61     237.4  T
  10     -9.6258064 -0.638369E-10  0.234E-05    2.61    1914.5  T
     SCC iter.                  ...        0 min,  0.001 sec
     gradient                   ...        0 min,  0.001 sec
 * total energy  :    -9.4400360 Eh     change        0.2431573E-03 Eh
   gradient norm :     0.0341954 Eh/α   predicted    -0.6534537E-03 (-368.74%)
   displ. norm   :     0.1868576 α      lambda       -0.1690933E-02
   maximum displ.:     0.1068530 α      in ANC's #5, #4, #2, ...

........................................................................
.............................. CYCLE   34 ..............................
........................................................................
   1     -9.6360548 -0.963605E+01  0.537E-01    2.75       0.0  T
   2     -9.6359943  0.604562E-04  0.335E-01    2.69       1.0  T
   3     -9.6346752  0.131913E-02  0.435E-01    2.78       1.0  T
   4     -9.6360983 -0.142314E-02  0.763E-02    2.72       1.0  T
   5     -9.6361311 -0.327419E-04  0.127E-02    2.71       3.5  T
   6     -9.6361308  0.246294E-06  0.601E-03    2.71       7.4  T
   7     -9.6361310 -0.223777E-06  0.241E-03    2.71      18.5  T
   8     -9.6361311 -0.484819E-07  0.606E-04    2.71      73.8  T
   9     -9.6361311 -0.658769E-09  0.924E-05    2.71     484.1  T
     SCC iter.                  ...        0 min,  0.001 sec
     gradient                   ...        0 min,  0.001 sec
 * total energy  :    -9.4408355 Eh     change       -0.7994787E-03 Eh
   gradient norm :     0.0195904 Eh/α   predicted    -0.8749905E-03 (   9.45%)
   displ. norm   :     0.0403493 α      lambda       -0.3207130E-03
   maximum displ.:     0.0312435 α      in ANC's #2, #4, #3, ...

........................................................................
.............................. CYCLE   35 ..............................
........................................................................
   1     -9.6366693 -0.963667E+01  0.129E-01    2.72       0.0  T
   2     -9.6365971  0.722271E-04  0.127E-01    2.70       1.0  T
   3     -9.6366582 -0.610888E-04  0.855E-02    2.72       1.0  T
   4     -9.6366909 -0.326568E-04  0.107E-02    2.72       4.2  T
   5     -9.6366911 -0.194198E-06  0.517E-03    2.72       8.6  T
   6     -9.6366908  0.275354E-06  0.667E-03    2.71       6.7  T
   7     -9.6366911 -0.342861E-06  0.446E-04    2.72     100.3  T
   8     -9.6366911 -0.538712E-09  0.208E-04    2.72     214.9  T
     SCC iter.                  ...        0 min,  0.001 sec
     gradient                   ...        0 min,  0.001 sec
 * total energy  :    -9.4411535 Eh     change       -0.3180189E-03 Eh
   gradient norm :     0.0194620 Eh/α   predicted    -0.1606163E-03 ( -49.49%)
   displ. norm   :     0.8730904 α      lambda       -0.7247476E-02
   maximum displ.:     0.7431444 α      in ANC's #2, #4, #3, ...

........................................................................
.............................. CYCLE   36 ..............................
........................................................................
   1     -9.5626104 -0.956261E+01  0.275E+00    3.04       0.0  T
   2     -9.4791760  0.834344E-01  0.368E+00    3.01       1.0  T
   3     -9.5579092 -0.787332E-01  0.195E+00    3.08       1.0  T
   4     -9.5716673 -0.137581E-01  0.676E-01    3.04       1.0  T
   5     -9.5744767 -0.280940E-02  0.323E-01    3.07       1.0  T
   6     -9.5749415 -0.464729E-03  0.174E-01    3.07       1.0  T
   7     -9.5750613 -0.119834E-03  0.288E-02    3.07       1.6  T
   8     -9.5750627 -0.143221E-05  0.137E-02    3.07       3.3  T
   9     -9.5750632 -0.466540E-06  0.141E-03    3.07      31.8  T
  10     -9.5750632 -0.607305E-08  0.839E-04    3.07      53.3  T
  11     -9.5750632 -0.309686E-08  0.988E-05    3.07     452.8  T
     SCC iter.                  ...        0 min,  0.001 sec
     gradient                   ...        0 min,  0.001 sec
 * total energy  :    -9.4201071 Eh     change        0.2104644E-01 Eh
   gradient norm :     0.2255721 Eh/α   predicted    -0.6385965E-02 (-130.34%)
   displ. norm   :     0.4744061 α      lambda       -0.5863968E-01
   maximum displ.:     0.3978752 α      in ANC's #2, #4, #3, ...

........................................................................
.............................. CYCLE   37 ..............................
........................................................................
   1     -9.6333216 -0.963332E+01  0.178E+00    3.04       0.0  T
   2     -9.6170554  0.162662E-01  0.183E+00    2.20       1.0  T
   3     -9.6348372 -0.177818E-01  0.108E+00    2.87       1.0  T
   4     -9.6392639 -0.442676E-02  0.322E-01    2.80       1.0  T
   5     -9.6395160 -0.252085E-03  0.124E-01    2.72       1.0  T
   6     -9.6394918  0.241948E-04  0.920E-02    2.73       1.0  T
   7     -9.6395595 -0.676780E-04  0.160E-02    2.70       2.8  T
   8     -9.6395607 -0.121073E-05  0.529E-03    2.71       8.5  T
   9     -9.6395608 -0.416977E-07  0.621E-04    2.71      72.0  T
  10     -9.6395608  0.383711E-10  0.317E-04    2.71     141.0  T
     SCC iter.                  ...        0 min,  0.001 sec
     gradient                   ...        0 min,  0.001 sec
 * total energy  :    -9.4450007 Eh     change       -0.2489369E-01 Eh
   gradient norm :     0.0198457 Eh/α   predicted    -0.3591862E-01 (  44.29%)
   displ. norm   :     0.1394254 α      lambda       -0.1258922E-02
   maximum displ.:     0.0907203 α      in ANC's #5, #1, #2, ...

........................................................................
.............................. CYCLE   38 ..............................
........................................................................
   1     -9.6517311 -0.965173E+01  0.450E-01    2.87       0.0  T
   2     -9.6514369  0.294228E-03  0.326E-01    2.74       1.0  T
   3     -9.6512119  0.225021E-03  0.341E-01    2.86       1.0  T
   4     -9.6519180 -0.706086E-03  0.115E-01    2.80       1.0  T
   5     -9.6519508 -0.328250E-04  0.271E-02    2.80       1.6  T
   6     -9.6519526 -0.184481E-05  0.212E-02    2.79       2.1  T
   7     -9.6519547 -0.206904E-05  0.238E-03    2.79      18.8  T
   8     -9.6519547 -0.215953E-07  0.782E-04    2.79      57.2  T
   9     -9.6519547 -0.443395E-09  0.184E-04    2.79     242.6  T
     SCC iter.                  ...        0 min,  0.001 sec
     gradient                   ...        0 min,  0.001 sec
 * total energy  :    -9.4457413 Eh     change       -0.7405112E-03 Eh
   gradient norm :     0.0483394 Eh/α   predicted    -0.6416969E-03 ( -13.34%)
   displ. norm   :     0.2865676 α      lambda       -0.3559215E-02
   maximum displ.:     0.2080194 α      in ANC's #2, #6, #8, ...

........................................................................
.............................. CYCLE   39 ..............................
........................................................................
   1     -9.6559786 -0.965598E+01  0.110E+00    2.95       0.0  T
   2     -9.6527579  0.322061E-02  0.950E-01    2.91       1.0  T
   3     -9.6536325 -0.874568E-03  0.841E-01    2.96       1.0  T
   4     -9.6569804 -0.334792E-02  0.845E-02    2.92       1.0  T
   5     -9.6569517  0.287171E-04  0.891E-02    2.95       1.0  T
   6     -9.6569925 -0.408208E-04  0.429E-02    2.92       1.0  T
   7     -9.6570013 -0.880766E-05  0.580E-03    2.93       7.7  T
   8     -9.6570014 -0.692063E-07  0.248E-03    2.93      18.0  T
   9     -9.6570014 -0.971909E-08  0.378E-04    2.93     118.4  T
  10     -9.6570014 -0.451671E-09  0.532E-05    2.93     840.4  T
     SCC iter.                  ...        0 min,  0.001 sec
     gradient                   ...        0 min,  0.001 sec
 * total energy  :    -9.4497394 Eh     change       -0.3998189E-02 Eh
   gradient norm :     0.0585322 Eh/α   predicted    -0.1925759E-02 ( -51.83%)
   displ. norm   :     0.3212822 α      lambda       -0.5152944E-02
   maximum displ.:     0.2273301 α      in ANC's #2, #3, #6, ...

........................................................................
.............................. CYCLE   40 ..............................
........................................................................
   1     -9.6467041 -0.964670E+01  0.120E+00    3.07       0.0  T
   2     -9.6439750  0.272902E-02  0.107E+00    3.19       1.0  T
   3     -9.6443867 -0.411647E-03  0.858E-01    3.07       1.0  T
   4     -9.6476409 -0.325419E-02  0.199E-01    3.09       1.0  T
   5     -9.6478252 -0.184366E-03  0.523E-02    3.12       1.0  T
   6     -9.6478184  0.686431E-05  0.321E-02    3.11       1.4  T
   7     -9.6478264 -0.805200E-05  0.114E-02    3.12       3.9  T
   8     -9.6478273 -0.851815E-06  0.223E-03    3.12      20.0  T
   9     -9.6478273 -0.724069E-08  0.346E-04    3.12     129.4  T
  10     -9.6478273 -0.281148E-09  0.538E-05    3.12     831.1  T
     SCC iter.                  ...        0 min,  0.001 sec
     gradient                   ...        0 min,  0.001 sec
 * total energy  :    -9.4535720 Eh     change       -0.3832512E-02 Eh
   gradient norm :     0.0854495 Eh/α   predicted    -0.2842413E-02 ( -25.83%)
   displ. norm   :     0.4976456 α      lambda       -0.1068153E-01
   maximum displ.:     0.2989652 α      in ANC's #2, #1, #8, ...

........................................................................
.............................. CYCLE   41 ..............................
........................................................................
   1     -9.6241127 -0.962411E+01  0.152E+00    3.27       0.0  T
   2     -9.6223530  0.175968E-02  0.124E+00    3.39       1.0  T
   3     -9.6175421  0.481089E-02  0.113E+00    3.20       1.0  T
   4     -9.6243876 -0.684541E-02  0.414E-01    3.28       1.0  T
   5     -9.6252652 -0.877675E-03  0.583E-02    3.30       1.0  T
   6     -9.6251814  0.837958E-04  0.115E-01    3.32       1.0  T
   7     -9.6252801 -0.986897E-04  0.195E-02    3.31       2.3  T
   8     -9.6252818 -0.171509E-05  0.669E-03    3.31       6.7  T
   9     -9.6252820 -0.183650E-06  0.106E-03    3.30      42.1  T
  10     -9.6252820 -0.335827E-08  0.130E-04    3.30     344.6  T
  11     -9.6252820 -0.511982E-10  0.685E-05    3.30     653.0  T
     SCC iter.                  ...        0 min,  0.001 sec
     gradient                   ...        0 min,  0.001 sec
 * total energy  :    -9.4568522 Eh     change       -0.3280226E-02 Eh
   gradient norm :     0.1580668 Eh/α   predicted    -0.6663463E-02 ( 103.14%)
   displ. norm   :     0.3407993 α      lambda       -0.1846435E-01
   maximum displ.:     0.1881490 α      in ANC's #3, #4, #7, ...

........................................................................
.............................. CYCLE   42 ..............................
........................................................................
   1     -9.6918149 -0.969181E+01  0.138E+00    3.79       0.0  T
   2     -9.6902484  0.156645E-02  0.883E-01    3.44       1.0  T
   3     -9.6843265  0.592190E-02  0.116E+00    3.80       1.0  T
   4     -9.6927951 -0.846852E-02  0.309E-01    3.64       1.0  T
   5     -9.6931093 -0.314268E-03  0.722E-02    3.56       1.0  T
   6     -9.6931214 -0.120590E-04  0.397E-02    3.53       1.1  T
   7     -9.6931290 -0.763055E-05  0.214E-02    3.53       2.1  T
   8     -9.6931317 -0.264387E-05  0.460E-03    3.54       9.7  T
   9     -9.6931317 -0.738274E-07  0.916E-04    3.54      48.8  T
  10     -9.6931317 -0.411402E-08  0.385E-04    3.54     116.2  T
     SCC iter.                  ...        0 min,  0.001 sec
     gradient                   ...        0 min,  0.001 sec
 * total energy  :    -9.4666751 Eh     change       -0.9822958E-02 Eh
   gradient norm :     0.0606979 Eh/α   predicted    -0.1030443E-01 (   4.90%)
   displ. norm   :     0.6515456 α      lambda       -0.1362534E-01
   maximum displ.:     0.2978785 α      in ANC's #3, #2, #1, ...
 * RMSD in coord.:     1.2035073 α      energy gain  -0.3644023E-01 Eh

generating ANC from model Hessian ...
Using Lindh-Hessian (1995)
 Shifting diagonal of input Hessian by    9.2508717208052114E-003
 Lowest  eigenvalues of input Hessian
   -0.000000   -0.000000    0.000000    0.000000    0.000000    0.000000
    0.010000    0.011835    0.016063    0.025287    0.058955    0.305136
    0.618797    1.848634    2.415839
 Highest eigenvalues
    0.025287    0.058955    0.305136    0.618797    1.848634    2.415839


........................................................................
.............................. CYCLE   43 ..............................
........................................................................
   1     -9.6771582 -0.967716E+01  0.198E+00    4.51       0.0  T
   2     -9.6750516  0.210661E-02  0.137E+00    4.47       1.0  T
   3     -9.6548582  0.201934E-01  0.186E+00    4.38       1.0  T
   4     -9.6774375 -0.225794E-01  0.295E-01    4.47       1.0  T
   5     -9.6779481 -0.510576E-03  0.830E-02    4.46       1.0  T
   6     -9.6779725 -0.243638E-04  0.320E-02    4.47       1.4  T
   7     -9.6779757 -0.321058E-05  0.128E-02    4.47       3.5  T
   8     -9.6779761 -0.461673E-06  0.430E-03    4.47      10.4  T
   9     -9.6779762 -0.319670E-07  0.106E-03    4.47      42.3  T
  10     -9.6779762 -0.187014E-08  0.408E-04    4.47     109.6  T
  11     -9.6779762 -0.835229E-09  0.521E-05    4.47     858.6  T
     SCC iter.                  ...        0 min,  0.001 sec
     gradient                   ...        0 min,  0.001 sec
 * total energy  :    -9.4553949 Eh     change        0.1128020E-01 Eh
   gradient norm :     0.2455005 Eh/α   predicted     0.0000000E+00 (-100.00%)
   displ. norm   :     0.2030798 α      lambda       -0.3456114E-01
   maximum displ.:     0.0981612 α      in ANC's #7, #3, #8, ...

........................................................................
.............................. CYCLE   44 ..............................
........................................................................
   1     -9.6998251 -0.969983E+01  0.102E+00    4.00       0.0  T
   2     -9.6973541  0.247101E-02  0.817E-01    3.73       1.0  T
   3     -9.6987073 -0.135327E-02  0.726E-01    4.00       1.0  T
   4     -9.7009421 -0.223481E-02  0.119E-01    3.93       1.0  T
   5     -9.7010062 -0.640706E-04  0.367E-02    3.89       1.2  T
   6     -9.7010032  0.300941E-05  0.337E-02    3.88       1.3  T
   7     -9.7010085 -0.529673E-05  0.756E-03    3.88       5.9  T
   8     -9.7010088 -0.297881E-06  0.287E-03    3.88      15.6  T
   9     -9.7010088 -0.322311E-07  0.376E-04    3.88     119.0  T
  10     -9.7010088 -0.457121E-09  0.156E-04    3.88     286.6  T
     SCC iter.                  ...        0 min,  0.001 sec
     gradient                   ...        0 min,  0.001 sec
 * total energy  :    -9.4720624 Eh     change       -0.1666747E-01 Eh
   gradient norm :     0.0415515 Eh/α   predicted    -0.1799324E-01 (   7.95%)
   displ. norm   :     0.1592473 α      lambda       -0.1446433E-02
   maximum displ.:     0.1119891 α      in ANC's #3, #4, #5, ...

........................................................................
.............................. CYCLE   45 ..............................
........................................................................
   1     -9.7069556 -0.970696E+01  0.342E-01    4.05       0.0  T
   2     -9.7069139  0.417354E-04  0.258E-01    3.94       1.0  T
   3     -9.7067592  0.154625E-03  0.230E-01    4.00       1.0  T
   4     -9.7070433 -0.284084E-03  0.372E-02    3.97       1.2  T
   5     -9.7070469 -0.357605E-05  0.100E-02    3.95       4.5  T
   6     -9.7070464  0.535001E-06  0.108E-02    3.96       4.2  T
   7     -9.7070471 -0.758616E-06  0.115E-03    3.96      38.8  T
   8     -9.7070471  0.120787E-08  0.741E-04    3.96      60.4  T
   9     -9.7070471 -0.366662E-08  0.817E-05    3.96     547.6  T
     SCC iter.                  ...        0 min,  0.001 sec
     gradient                   ...        0 min,  0.001 sec
 * total energy  :    -9.4730530 Eh     change       -0.9905720E-03 Eh
   gradient norm :     0.0139794 Eh/α   predicted    -0.7415564E-03 ( -25.14%)
   displ. norm   :     0.3387124 α      lambda       -0.2002385E-02
   maximum displ.:     0.2043302 α      in ANC's #4, #1, #5, ...

........................................................................
.............................. CYCLE   46 ..............................
........................................................................
   1     -9.7267739 -0.972677E+01  0.740E-01    4.24       0.0  T
   2     -9.7268529 -0.789682E-04  0.443E-01    4.06       1.0  T
   3     -9.7258226  0.103025E-02  0.438E-01    4.09       1.0  T
   4     -9.7269443 -0.112168E-02  0.492E-02    4.05       1.0  T
   5     -9.7269449 -0.563673E-06  0.227E-02    4.04       2.0  T
   6     -9.7269458 -0.942532E-06  0.180E-02    4.04       2.5  T
   7     -9.7269471 -0.124910E-05  0.285E-03    4.04      15.7  T
   8     -9.7269471 -0.127821E-07  0.877E-04    4.04      51.0  T
   9     -9.7269471 -0.440475E-08  0.301E-04    4.04     148.7  T
     SCC iter.                  ...        0 min,  0.001 sec
     gradient                   ...        0 min,  0.001 sec
 * total energy  :    -9.4737975 Eh     change       -0.7444903E-03 Eh
   gradient norm :     0.0427056 Eh/α   predicted    -0.1116060E-02 (  49.91%)
   displ. norm   :     0.1703112 α      lambda       -0.1001453E-02
   maximum displ.:     0.1025100 α      in ANC's #4, #3, #5, ...

........................................................................
.............................. CYCLE   47 ..............................
........................................................................
   1     -9.7196906 -0.971969E+01  0.217E-01    4.02       0.0  T
   2     -9.7196399  0.507814E-04  0.170E-01    3.98       1.0  T
   3     -9.7196542 -0.143278E-04  0.137E-01    4.00       1.0  T
   4     -9.7197294 -0.752446E-04  0.145E-02    4.00       3.1  T
   5     -9.7197297 -0.323148E-06  0.767E-03    3.99       5.8  T
   6     -9.7197300 -0.208137E-06  0.474E-03    3.99       9.4  T
   7     -9.7197300 -0.737251E-07  0.745E-04    3.99      60.0  T
   8     -9.7197300 -0.118984E-08  0.208E-04    3.99     215.5  T
     SCC iter.                  ...        0 min,  0.001 sec
     gradient                   ...        0 min,  0.001 sec
 * total energy  :    -9.4745378 Eh     change       -0.7402857E-03 Eh
   gradient norm :     0.0197585 Eh/α   predicted    -0.5152491E-03 ( -30.40%)
   displ. norm   :     0.2464620 α      lambda       -0.7693616E-03
   maximum displ.:     0.1479584 α      in ANC's #4, #3, #5, ...

........................................................................
.............................. CYCLE   48 ..............................
........................................................................
   1     -9.7156505 -0.971565E+01  0.415E-01    3.95       0.0  T
   2     -9.7155943  0.562315E-04  0.274E-01    3.87       1.0  T
   3     -9.7151866  0.407689E-03  0.308E-01    3.94       1.0  T
   4     -9.7157147 -0.528082E-03  0.282E-02    3.90       1.6  T
   5     -9.7157170 -0.233093E-05  0.106E-02    3.89       4.2  T
   6     -9.7157165  0.509172E-06  0.123E-02    3.89       3.6  T
   7     -9.7157173 -0.775063E-06  0.126E-03    3.89      35.6  T
   8     -9.7157173 -0.311107E-08  0.383E-04    3.89     116.7  T
   9     -9.7157173 -0.380131E-09  0.123E-04    3.89     363.2  T
     SCC iter.                  ...        0 min,  0.001 sec
     gradient                   ...        0 min,  0.001 sec
 * total energy  :    -9.4749786 Eh     change       -0.4408548E-03 Eh
   gradient norm :     0.0081301 Eh/α   predicted    -0.4080508E-03 (  -7.44%)
   displ. norm   :     0.1534493 α      lambda       -0.1993221E-03
   maximum displ.:     0.0954482 α      in ANC's #4, #5, #3, ...

........................................................................
.............................. CYCLE   49 ..............................
........................................................................
   1     -9.7166250 -0.971662E+01  0.220E-01    3.94       0.0  T
   2     -9.7166343 -0.928610E-05  0.129E-01    3.88       1.0  T
   3     -9.7165406  0.936543E-04  0.138E-01    3.91       1.0  T
   4     -9.7166456 -0.105049E-03  0.276E-02    3.89       1.6  T
   5     -9.7166475 -0.186264E-05  0.397E-03    3.88      11.3  T
   6     -9.7166474  0.593934E-07  0.327E-03    3.89      13.7  T
   7     -9.7166475 -0.686551E-07  0.113E-03    3.89      39.4  T
   8     -9.7166475 -0.469052E-08  0.549E-04    3.88      81.5  T
   9     -9.7166475 -0.218612E-08  0.651E-05    3.89     686.7  T
     SCC iter.                  ...        0 min,  0.001 sec
     gradient                   ...        0 min,  0.001 sec
 * total energy  :    -9.4751172 Eh     change       -0.1385849E-03 Eh
   gradient norm :     0.0071842 Eh/α   predicted    -0.1020085E-03 ( -26.39%)
   displ. norm   :     0.1193372 α      lambda       -0.1099519E-03
   maximum displ.:     0.0733746 α      in ANC's #4, #5, #3, ...

........................................................................
.............................. CYCLE   50 ..............................
........................................................................
   1     -9.7193159 -0.971932E+01  0.176E-01    3.91       0.0  T
   2     -9.7193254 -0.954218E-05  0.998E-02    3.86       1.0  T
   3     -9.7192820  0.434424E-04  0.922E-02    3.89       1.0  T
   4     -9.7193289 -0.468750E-04  0.240E-02    3.87       1.9  T
   5     -9.7193305 -0.161402E-05  0.283E-03    3.86      15.8  T
   6     -9.7193304  0.577595E-07  0.341E-03    3.87      13.1  T
   7     -9.7193305 -0.681956E-07  0.804E-04    3.87      55.6  T
   8     -9.7193305 -0.204319E-08  0.445E-04    3.87     100.4  T
     SCC iter.                  ...        0 min,  0.001 sec
     gradient                   ...        0 min,  0.001 sec
 * total energy  :    -9.4751846 Eh     change       -0.6735175E-04 Eh
   gradient norm :     0.0019498 Eh/α   predicted    -0.5575718E-04 ( -17.21%)
   displ. norm   :     0.0470974 α      lambda       -0.1525401E-04
   maximum displ.:     0.0300267 α      in ANC's #5, #4, #6, ...

........................................................................
.............................. CYCLE   51 ..............................
........................................................................
   1     -9.7204592 -0.972046E+01  0.921E-02    3.88       0.0  T
   2     -9.7204612 -0.199180E-05  0.528E-02    3.86       1.0  T
   3     -9.7204594  0.181048E-05  0.234E-02    3.87       1.9  T
   4     -9.7204601 -0.662459E-06  0.155E-02    3.87       2.9  T
   5     -9.7204615 -0.146799E-05  0.159E-03    3.86      28.2  T
   6     -9.7204615  0.606834E-08  0.106E-03    3.86      42.0  T
   7     -9.7204616 -0.712414E-08  0.238E-04    3.86     188.1  T
   8     -9.7204616 -0.174873E-09  0.675E-05    3.86     662.7  T
     SCC iter.                  ...        0 min,  0.001 sec
     gradient                   ...        0 min,  0.001 sec
 * total energy  :    -9.4751971 Eh     change       -0.1251595E-04 Eh
   gradient norm :     0.0010667 Eh/α   predicted    -0.7634156E-05 ( -39.00%)
   displ. norm   :     0.0293858 α      lambda       -0.6160497E-05
   maximum displ.:     0.0159804 α      in ANC's #3, #4, #1, ...

........................................................................
.............................. CYCLE   52 ..............................
........................................................................
   1     -9.7203606 -0.972036E+01  0.434E-02    3.86       0.0  T
   2     -9.7203602  0.427321E-06  0.286E-02    3.87       1.6  T
   3     -9.7203552  0.491284E-05  0.320E-02    3.86       1.4  T
   4     -9.7203614 -0.614352E-05  0.270E-03    3.87      16.5  T
   5     -9.7203614 -0.388637E-07  0.125E-03    3.87      35.8  T
   6     -9.7203614  0.267996E-08  0.109E-03    3.87      41.1  T
   7     -9.7203614 -0.584255E-08  0.765E-05    3.87     584.7  T
   8     -9.7203614 -0.327738E-11  0.155E-05    3.87    2878.8  T
     SCC iter.                  ...        0 min,  0.001 sec
     gradient                   ...        0 min,  0.001 sec
 * total energy  :    -9.4752058 Eh     change       -0.8687491E-05 Eh
   gradient norm :     0.0012180 Eh/α   predicted    -0.3081222E-05 ( -64.53%)
   displ. norm   :     0.4559360 α      lambda       -0.8069699E-04
   maximum displ.:     0.2561198 α      in ANC's #3, #4, #1, ...

........................................................................
.............................. CYCLE   53 ..............................
........................................................................
   1     -9.7170293 -0.971703E+01  0.574E-01    3.85       0.0  T
   2     -9.7168042  0.225088E-03  0.461E-01    4.16       1.0  T
   3     -9.7171557 -0.351522E-03  0.349E-01    3.98       1.0  T
   4     -9.7175800 -0.424239E-03  0.920E-02    3.96       1.0  T
   5     -9.7176036 -0.236068E-04  0.280E-02    4.00       1.6  T
   6     -9.7176055 -0.197733E-05  0.162E-02    4.00       2.8  T
   7     -9.7176066 -0.103566E-05  0.431E-03    4.01      10.4  T
   8     -9.7176067 -0.113419E-06  0.139E-03    4.01      32.2  T
   9     -9.7176067 -0.127479E-07  0.123E-04    4.01     362.5  T
[...]

 Bond Distances (Angstroems)
 ---------------------------
C1-N2=1.1636         N2-C1=1.1636         N2-C3=1.3706         C3-N2=1.3706         C3-C4=1.2916         C3-H5=1.0983         
C4-C3=1.2916         H5-C3=1.0983         
 C  H  Rav=1.0983 sigma=0.0000  Rmin=1.0983  Rmax=1.0983     1
 C  C  Rav=1.2916 sigma=0.0000  Rmin=1.2916  Rmax=1.2916     1
 N  C  Rav=1.2671 sigma=0.1035  Rmin=1.1636  Rmax=1.3706     2

 selected bond angles (degree)
 --------------------
C3-N2-C1=175.64                C4-C3-N2=123.77                H5-C3-N2=112.84                H5-C3-C4=123.40                

 selected dihedral angles (degree)
 ---------------------------------
C4-C3-N2-C1=181.36            H5-C3-N2-C1=  1.41            
           -------------------------------------------------
          |                Final Singlepoint                |
           -------------------------------------------------

          ...................................................
          :                      SETUP                      :
          :.................................................:
          :  # basis functions                  17          :
          :  # atomic orbitals                  17          :
          :  # shells                            9          :
          :  # electrons                        18          :
          :  max. iterations                   250          :
          :  Hamiltonian                  GFN2-xTB          :
          :  restarted?                      false          :
          :  GBSA solvation                  false          :
          :  PC potential                    false          :
          :  electronic temp.          300.0000000     K    :
          :  accuracy                    1.0000000          :
          :  -> integral cutoff          0.2500000E+02      :
          :  -> integral neglect         0.1000000E-07      :
          :  -> SCF convergence          0.1000000E-05 Eh   :
          :  -> wf. convergence          0.1000000E-03 e    :
          :  Broyden damping             0.4000000          :
          ...................................................

 iter      E             dE          RMSdq      gap      omega  full diag
   1     -9.7067214 -0.970672E+01  0.174E-04    1.83       0.0  T
   2     -9.7067214  0.211740E-09  0.189E-04    1.83     237.1  T
   3     -9.7067214 -0.233294E-09  0.102E-04    1.83     439.5  T

   *** convergence criteria satisfied after 3 iterations ***

         #    Occupation            Energy/Eh            Energy/eV
      -------------------------------------------------------------
         1        2.0000           -0.6910454             -18.8043
       ...           ...                  ...                  ...
         4        2.0000           -0.5746010             -15.6357
         5        2.0000           -0.5439497             -14.8016
         6        2.0000           -0.5027295             -13.6800
         7        2.0000           -0.4591011             -12.4928
         8        2.0000           -0.4431872             -12.0597
         9        1.0000           -0.4206189             -11.4456
        10        1.0000           -0.3449206              -9.3858 (HOMO)
        11                         -0.2776639              -7.5556 (LUMO)
        12                         -0.2407803              -6.5520
        13                         -0.1738375              -4.7304
        14                          0.0787253               2.1422
        15                          0.2003803               5.4526
       ...                                ...                  ...
        17                          0.9971537              27.1339
      -------------------------------------------------------------
                  HL-Gap            0.0672567 Eh            1.8301 eV
             Fermi-level           -0.3715976 Eh          -10.1117 eV

 transition dipole moment (au) for excitation:           9          10
     X       Y       Z   
  -0.1214  -0.0320  -0.0617  total (au/Debye):    0.140   0.356
 dE (eV)             :    2.060
 oscillator strength :  0.13968E-02

 SCC (total)                   0 d,  0 h,  0 min,  0.003 sec
 SCC setup                      ...        0 min,  0.000 sec (  2.253%)
 Dispersion                     ...        0 min,  0.000 sec (  0.348%)
 integral evaluation            ...        0 min,  0.001 sec ( 31.977%)
 zeroth order Hamiltonian       ...        0 min,  0.000 sec (  0.416%)
 iterations                     ...        0 min,  0.000 sec ( 10.306%)
 molecular gradient             ...        0 min,  0.001 sec ( 30.163%)
 printout                       ...        0 min,  0.001 sec ( 24.355%)

         :::::::::::::::::::::::::::::::::::::::::::::::::::::
         ::                     SUMMARY                     ::
         :::::::::::::::::::::::::::::::::::::::::::::::::::::
         :: total energy              -9.518123747772 Eh    ::
         :: gradient norm              0.000515289964 Eh/a0 ::
         :: HOMO-LUMO gap              1.830147670188 eV    ::
         ::.................................................::
         :: SCC energy                -9.706721384225 Eh    ::
         :: -> isotropic ES           -0.009121524965 Eh    ::
         :: -> anisotropic ES         -0.000567331837 Eh    ::
         :: -> anisotropic XC          0.015395297893 Eh    ::
         :: -> dispersion             -0.002230053144 Eh    ::
         :: repulsion energy           0.188597573940 Eh    ::
         :: add. restraining           0.000000000000 Eh    ::
         :::::::::::::::::::::::::::::::::::::::::::::::::::::

           ------------------------------------------------- 
          |                Numerical Hessian                |
           ------------------------------------------------- 
step length          :   0.00500
SCC accuracy         :   0.30000
Hessian scale factor :   1.00000
frozen atoms in %    :   0.00000    0
RMS gradient         :   0.00052
estimated CPU  time      0.00 min
estimated wall time      0.00 min

writing file <hessian>.

 projected vibrational frequencies (cm-1)
eigval :       -0.00    -0.00    -0.00    -0.00     0.00     0.00
eigval :      203.76   273.07   498.49   534.96   955.45  1157.21
eigval :     1646.23  2154.41  2784.05
           -------------------------------------------------
          |                Property Printout                |
           -------------------------------------------------

    * Orbital Energies and Occupations

         #    Occupation            Energy/Eh            Energy/eV
      -------------------------------------------------------------
         1        2.0000           -0.6910451             -18.8043
         2        2.0000           -0.6684147             -18.1885
         3        2.0000           -0.6155600             -16.7502
         4        2.0000           -0.5746010             -15.6357
         5        2.0000           -0.5439496             -14.8016
         6        2.0000           -0.5027294             -13.6800
         7        2.0000           -0.4591006             -12.4928
         8        2.0000           -0.4431872             -12.0597
         9        1.0000           -0.4206191             -11.4456
        10        1.0000           -0.3449207              -9.3858 (HOMO)
        11                         -0.2776636              -7.5556 (LUMO)
        12                         -0.2407799              -6.5520
        13                         -0.1738374              -4.7304
        14                          0.0787251               2.1422
        15                          0.2003801               5.4526
        16                          0.6405803              17.4311
        17                          0.9971538              27.1339
      -------------------------------------------------------------
                  HL-Gap            0.0672571 Eh            1.8302 eV
             Fermi-level           -0.3715976 Eh          -10.1117 eV

     #   Z        covCN         q      C6AA      α(0)
     1   6 C      0.913    -0.105    38.775    10.422
     2   7 N      1.833     0.049    21.049     6.799
     3   6 C      2.816     0.053    26.800     8.482
     4   6 C      0.994    -0.095    39.009    10.497
     5   1 H      0.923     0.098     1.802     2.099

 Mol. C6AA /au·bohr⁶  :        554.827869
 Mol. C8AA /au·bohr⁸  :      14644.188075
 Mol. α(0) /au        :         38.299622


Wiberg/Mayer (AO) data.
largest (>0.10) Wiberg bond orders for each atom
          total WBO             WBO to atom ...
     1  C   2.810        N    2 2.555    C    4 0.180
     2  N   3.624        C    1 2.555    C    3 1.033
     3  C   3.856        C    4 1.918    N    2 1.033    H    5 0.855
     4  C   2.139        C    3 1.918    C    1 0.180
     5  H   0.888        C    3 0.855

MOs/occ written to file <molden.input>


molecular dipole:
                 x           y           z       tot (Debye)
 q only:       -0.194       0.282       0.349
   full:       -0.495       0.379       0.435       1.933
molecular quadrupole (traceless):
                xx          xy          yy          xz          yz          zz
 q only:       -2.032      -0.019       0.972      -0.450       0.262       1.059
  q+dip:       -3.178       0.714       1.207       0.400       1.045       1.972
Molecule has the following symmetry elements: (sigma) 
It seems to be the Cs point group
   full:       -4.861       0.955       2.209       0.251       0.501       2.653

           -------------------------------------------------
          |                Geometry Summary                 |
           -------------------------------------------------

      molecular mass/u    :       51.0468517
   center of mass at/Å    :        0.1600531      -0.1807420      -0.2187254
  moments of inertia/u·Å² :        0.6949190E+01   0.8314658E+02   0.9009574E+02
rotational constants/cm⁻¹ :        0.2425841E+01   0.2027460E+00   0.1871080E+00

 * 4 selected distances

     #   Z        #   Z                                     value/Å
     1   6 C      2   7 N                                 1.1636013
     2   7 N      3   6 C                                 1.3705777 (max)
     3   6 C      4   6 C                                 1.2915795
     3   6 C      5   1 H                                 1.0983227 (min)

 * 3 distinct bonds (by element types)

   Z      Z             #   av. dist./Å        max./Å        min./Å
   1 H    6 C           1     1.0983227     1.0983227     1.0983227
   6 C    6 C           1     1.2915795     1.2915795     1.2915795
   6 C    7 N           2     1.2670895     1.3705777     1.1636013

           -------------------------------------------------
          |               Frequency Printout                |
           -------------------------------------------------
 projected vibrational frequencies (cm-1)
eigval :       -0.00    -0.00    -0.00    -0.00     0.00     0.00
eigval :      203.76   273.07   498.49   534.96   955.45  1157.21
eigval :     1646.23  2154.41  2784.05
 reduced masses (amu)
   1: 10.39   2: 12.24   3:  9.99   4: 12.56   5: 12.32   6: 11.69   7: 12.39   8: 12.66
   9:  5.63  10: 12.60  11: 11.90  12:  2.14  13: 11.89  14: 13.01  15:  1.71
 IR intensities (amu)
   1:  0.20   2:  0.07   3:  0.18   4:  0.10   5:  0.15   6:  0.09   7:  0.30   8:  0.07
   9:  0.15  10:  0.23  11:  0.11  12:  0.11  13:  0.22  14:  1.01  15:  0.08
 Raman intensities (amu)
   1:  0.00   2:  0.00   3:  0.00   4:  0.00   5:  0.00   6:  0.00   7:  0.00   8:  0.00
   9:  0.00  10:  0.00  11:  0.00  12:  0.00  13:  0.00  14:  0.00  15:  0.00
 output can be read by thermo (or use thermo option).
 writing <g98.out> molden fake output.
 recommended (thermochemical) frequency scaling factor: 1.0
           -------------------------------------------------
          |             Thermodynamic Functions             |
           -------------------------------------------------

cs  symmetry found (for desy threshold:  0.10E+00) used in thermo

          ...................................................
          :                      SETUP                      :
          :.................................................:
          :  # frequencies                           9      :
          :  # imaginary freq.                       0      :
          :  linear?                             false      :
          :  only rotor calc.                    false      :
          :  symmetry                               cs      :
          :  rotational number                       1      :
          :  scaling factor                  1.0000000      :
          :  rotor cutoff                   50.0000000 cm⁻¹ :
          :  imag. cutoff                  -20.0000000 cm⁻¹ :
          :.................................................:

    mode    ω/cm⁻¹     T·S(HO)/kcal·mol⁻¹    T·S(FR)/kcal·mol⁻¹   T·S(vib)
   ------------------------------------------------------------------------
       1    203.76    -0.00000 ( 99.64%)     0.01227 (  0.36%)     0.00004
       2    273.07    -0.00000 ( 99.89%)     0.01517 (  0.11%)     0.00002
   ------------------------------------------------------------------------

   temp. (K)  partition function   enthalpy   heat capacity  entropy
                                   cal/mol     cal/K/mol   cal/K/mol   J/K/mol
 298.15  VIB   2.63                  941.968      6.698      5.083
         ROT  0.174E+05              888.752      2.981     22.388
         INT  0.459E+05             1830.721      9.679     27.471
         TR   0.353E+27             1481.254      4.968     37.697
         TOT                        3311.9745    14.6475    65.1675   272.6607

   temp. (K)  partition function   enthalpy   heat capacity  entropy
                                   cal/mol     cal/K/mol   cal/K/mol   J/K/mol
 120.00  VIB   1.14                   92.325      2.426      1.038
         ROT  0.445E+04              357.707      2.981     19.675
         INT  0.509E+04              450.031      5.407     20.713
         TR   0.901E+26              596.178      4.968     33.177
         TOT                        1046.2094    10.3747    53.8905   225.4779

   temp. (K)  partition function   enthalpy   heat capacity  entropy
                                   cal/mol     cal/K/mol   cal/K/mol   J/K/mol
 100.00  VIB   1.08                   50.261      1.776      0.656
         ROT  0.339E+04              298.089      2.981     19.132
         INT  0.365E+04              348.350      4.757     19.788
         TR   0.685E+26              496.815      4.968     32.272
         TOT                         845.1645     9.7252    52.0600   217.8192

   temp. (K)  partition function   enthalpy   heat capacity  entropy
                                   cal/mol     cal/K/mol   cal/K/mol   J/K/mol
  80.00  VIB   1.03                   21.391      1.111      0.337
         ROT  0.242E+04              238.471      2.981     18.467
         INT  0.251E+04              259.862      4.092     18.803
         TR   0.490E+26              397.452      4.968     31.164
         TOT                         657.3142     9.0599    49.9672   209.0627

   temp. (K)  partition function   enthalpy   heat capacity  entropy
                                   cal/mol     cal/K/mol   cal/K/mol   J/K/mol
  60.00  VIB   1.01                    5.566      0.489      0.113
         ROT  0.157E+04              178.853      2.981     17.609
         INT  0.159E+04              184.419      3.470     17.722
         TR   0.319E+26              298.089      4.968     29.735
         TOT                         482.5082     8.4379    47.4570   198.5600

   temp. (K)  partition function   enthalpy   heat capacity  entropy
                                   cal/mol     cal/K/mol   cal/K/mol   J/K/mol
  40.00  VIB   1.00                    0.425      0.081      0.012
         ROT   856.                  119.236      2.981     16.401
         INT   857.                  119.660      3.061     16.413
         TR   0.173E+26              198.726      4.968     27.722
         TOT                         318.3864     8.0296    44.1346   184.6590

   temp. (K)  partition function   enthalpy   heat capacity  entropy
                                   cal/mol     cal/K/mol   cal/K/mol   J/K/mol
  20.00  VIB   1.00                    0.000      0.000     -0.003
         ROT   303.                   59.618      2.981     14.334
         INT   303.                   59.618      2.981     14.331
         TR   0.613E+25               99.363      4.968     24.280
         TOT                         158.9811     7.9492    38.6110   161.5485

   temp. (K)  partition function   enthalpy   heat capacity  entropy
                                   cal/mol     cal/K/mol   cal/K/mol   J/K/mol
  10.00  VIB   1.00                    0.000      0.000     -0.007
         ROT   107.                   29.809      2.981     12.268
         INT   107.                   29.809      2.981     12.262
         TR   0.217E+25               49.681      4.968     20.838
         TOT                          79.4904     7.9490    33.0994   138.4881

       T/K    H(0)-H(T)+PV         H(T)/Eh          T*S/Eh         G(T)/Eh
   ------------------------------------------------------------------------
    298.15    0.527797E-02    0.285327E-01    0.309632E-01   -0.243047E-02
    120.00    0.166724E-02    0.249220E-01    0.103056E-01    0.146164E-01
    100.00    0.134686E-02    0.246016E-01    0.829629E-02    0.163053E-01
     80.00    0.104750E-02    0.243022E-01    0.637022E-02    0.179320E-01
     60.00    0.768926E-03    0.240237E-01    0.453765E-02    0.194860E-01
     40.00    0.507381E-03    0.237621E-01    0.281332E-02    0.209488E-01
     20.00    0.253352E-03    0.235081E-01    0.123061E-02    0.222775E-01
     10.00    0.126676E-03    0.233814E-01    0.527473E-03    0.228539E-01 (used)
   ------------------------------------------------------------------------

         :::::::::::::::::::::::::::::::::::::::::::::::::::::
         ::                  THERMODYNAMIC                  ::
         :::::::::::::::::::::::::::::::::::::::::::::::::::::
         :: total free energy          -9.495269809425 Eh   ::
         ::.................................................::
         :: total energy               -9.518123748007 Eh   ::
         :: zero point energy           0.023254735724 Eh   ::
         :: G(RRHO) w/o ZPVE           -0.000400797141 Eh   ::
         :: G(RRHO) contrib.            0.022853938583 Eh   ::
         :::::::::::::::::::::::::::::::::::::::::::::::::::::

optimized geometry written to: xtbopt.xyz


           -------------------------------------------------
          | TOTAL ENERGY               -9.518123748007 Eh   |
          | TOTAL ENTHALPY             -9.494742336268 Eh   |
          | TOTAL FREE ENERGY          -9.495269809425 Eh   |
          | GRADIENT NORM               0.000515267681 Eh/α |
          | HOMO-LUMO GAP               1.830157946639 eV   |
           -------------------------------------------------

------------------------------------------------------------------------
 * finished run on 2020/05/12 at 11:44:57.752     
------------------------------------------------------------------------
 total:
 * wall-time:     0 d,  0 h,  0 min,  0.322 sec
 *  cpu-time:     0 d,  0 h,  0 min,  0.321 sec
 * ratio c/w:     0.997 speedup
 SCF:
 * wall-time:     0 d,  0 h,  0 min,  0.005 sec
 *  cpu-time:     0 d,  0 h,  0 min,  0.005 sec
 * ratio c/w:     1.000 speedup
 ANC optimizer:
 * wall-time:     0 d,  0 h,  0 min,  0.224 sec
 *  cpu-time:     0 d,  0 h,  0 min,  0.223 sec
 * ratio c/w:     0.998 speedup
 numerical hessian:
 * wall-time:     0 d,  0 h,  0 min,  0.077 sec
 *  cpu-time:     0 d,  0 h,  0 min,  0.077 sec
 * ratio c/w:     0.995 speedup

