[Molden Format]
[Title]
[Atoms] AU
C      1     6  0.36805376236436E+01  0.40972529262758E-01 -0.97194248833654E-01
C      2     6  0.12793044963405E+01  0.52663170385791E-01 -0.13167311263174E+00
C      3     6 -0.29088470311571E+01 -0.21043358073419E+00  0.59313610326649E+00
C      4     6 -0.10171755493068E+01 -0.14572818873317E+01 -0.68559695347433E+00
C      5     6 -0.10338195395168E+01  0.15740816581400E+01  0.32132632194399E+00
[GTO]
           1 0
 s           4   1.0000000000000000     
   51.049363095579913      -0.16312063210127389     
   8.7911227406887544      -0.19911024581000730     
  0.70640422258929825       0.31882047753655751     
  0.26922813413411617       0.12706504184240380     
 p           4   1.0000000000000000     
   5.8263656140800002       0.73716451545209605     
   1.5106896018720002       0.68216371614850257     
  0.53256483288000001       0.35783053929253711     
  0.21202323690600003        5.3983030275847881E-002

           2 0
 s           4   1.0000000000000000     
   51.049363095579913      -0.16312063210127389     
   8.7911227406887544      -0.19911024581000730     
  0.70640422258929825       0.31882047753655751     
  0.26922813413411617       0.12706504184240380     
 p           4   1.0000000000000000     
   5.8263656140800002       0.73716451545209605     
   1.5106896018720002       0.68216371614850257     
  0.53256483288000001       0.35783053929253711     
  0.21202323690600003        5.3983030275847881E-002

           3 0
 s           4   1.0000000000000000     
   51.049363095579913      -0.16312063210127389     
   8.7911227406887544      -0.19911024581000730     
  0.70640422258929825       0.31882047753655751     
  0.26922813413411617       0.12706504184240380     
 p           4   1.0000000000000000     
   5.8263656140800002       0.73716451545209605     
   1.5106896018720002       0.68216371614850257     
  0.53256483288000001       0.35783053929253711     
  0.21202323690600003        5.3983030275847881E-002

           4 0
 s           4   1.0000000000000000     
   51.049363095579913      -0.16312063210127389     
   8.7911227406887544      -0.19911024581000730     
  0.70640422258929825       0.31882047753655751     
  0.26922813413411617       0.12706504184240380     
 p           4   1.0000000000000000     
   5.8263656140800002       0.73716451545209605     
   1.5106896018720002       0.68216371614850257     
  0.53256483288000001       0.35783053929253711     
  0.21202323690600003        5.3983030275847881E-002

           5 0
 s           4   1.0000000000000000     
   51.049363095579913      -0.16312063210127389     
   8.7911227406887544      -0.19911024581000730     
  0.70640422258929825       0.31882047753655751     
  0.26922813413411617       0.12706504184240380     
 p           4   1.0000000000000000     
   5.8263656140800002       0.73716451545209605     
   1.5106896018720002       0.68216371614850257     
  0.53256483288000001       0.35783053929253711     
  0.21202323690600003        5.3983030275847881E-002

[MO]
Sym=     1a
Ene=  -0.73810212469324721     
Spin= Alpha
Occup=     2.00000000
           1  -4.5215268102430047E-002
           2   3.9776034294217895E-002
           3   6.1322117969513722E-005
           4   1.2345187630317830E-004
           5 -0.25204755322641231     
           6  0.12973995952317283     
           7   2.3539865282076584E-003
           8  -4.5684706798159898E-003
           9 -0.29493055860486928     
          10 -0.14738308519891619     
          11  -1.8027763793720186E-002
          12   5.1822201285222795E-002
          13 -0.34709131916884123     
          14   2.7553981789213314E-003
          15 -0.13903932501579636     
          16  -7.2587637270093347E-002
          17 -0.34682020040995643     
          18   1.1703808725332932E-003
          19  0.15475848344346435     
          20   2.5050024710337945E-002
Sym=     2a
Ene=  -0.67898659966184671     
Spin= Alpha
Occup=     2.00000000
           1 -0.45943239202069230     
           2  0.16876595359821911     
           3  -1.8569322612799638E-003
           4   5.9685438241662905E-003
           5 -0.46077609047809032     
           6 -0.19339448964260056     
           7  -1.9803167458080548E-003
           8   7.3283099156388762E-003
           9  0.21862974752961009     
          10   3.2445923084455423E-002
          11   9.9346693102061925E-003
          12  -2.8936511764443628E-002
          13   4.1151669971018427E-002
          14 -0.16393148510153996     
          15   6.5552505839164728E-003
          16   2.4588265810086645E-002
          17   4.2412635210323242E-002
          18 -0.16290220978689376     
          19  -2.1320117324124602E-002
          20   1.5337791253014457E-002
Sym=     3a
Ene=  -0.61910328344385612     
Spin= Alpha
Occup=     2.00000000
           1 -0.39927127589994454     
           2   2.2788908433254030E-002
           3   3.8110610763078911E-003
           4  -7.5865719761317859E-003
           5  0.12064496530162705     
           6 -0.35251595227848243     
           7   1.8933242351532042E-002
           8  -4.1045026334823154E-002
           9 -0.43483510839295825     
          10   2.7070926499429413E-002
          11   1.6034234211274696E-005
          12   2.0779357387246834E-002
          13   5.2401025305667079E-002
          14  0.29202858791351000     
          15   4.1207000592787792E-002
          16  -6.8449212414875393E-002
          17   7.2855612039889869E-002
          18  0.29206164284887942     
          19   1.5206574382399616E-002
          20  -7.5363652795625985E-002
Sym=     4a
Ene=  -0.61606731914383939     
Spin= Alpha
Occup=     2.00000000
           1  -8.8608162903312734E-003
           2   6.2883902488286298E-004
           3  -7.5654229821487978E-002
           4  -2.5303239148340453E-002
           5   1.3301433600149219E-003
           6  -6.6126577439841348E-003
           7 -0.27793895225140341     
           8  -9.3279937754068482E-002
           9  -8.6225504604466405E-003
          10   2.3323725005212296E-003
          11 -0.30889584821471999     
          12 -0.10225105071212741     
          13  0.50738790525457889     
          14   2.4220338310354587E-004
          15 -0.13401682168363341     
          16  -5.1636922598125943E-003
          17 -0.50496860853530456     
          18   1.2464819483842775E-002
          19 -0.10946281095920592     
          20  -7.8991619197050458E-002
Sym=     5a
Ene=  -0.55527543123975387     
Spin= Alpha
Occup=     2.00000000
           1   7.3112991380608353E-002
           2   1.8468597692160200E-002
           3   5.1765362206432783E-002
           4 -0.15632955069573243     
           5  -3.9891146774474993E-002
           6   4.5714083980225646E-002
           7  0.12227529720724394     
           8 -0.36959919816511527     
           9  -5.7284091908488551E-002
          10  -9.8193501784471587E-002
          11  0.11118929654045769     
          12 -0.33474614582227252     
          13   7.5880257539057749E-002
          14  -9.8561541923012766E-002
          15  0.15011572937965389     
          16 -0.38180114694407924     
          17   7.5869794541328431E-002
          18  -9.9145642738756520E-002
          19  0.10692242505479076     
          20 -0.39528927612951720     
Sym=     6a
Ene=  -0.54574542619299793     
Spin= Alpha
Occup=     2.00000000
           1   2.5756613952439749E-004
           2  -3.4689935660201291E-004
           3  0.21156077970622003     
           4   7.0036157516138300E-002
           5   1.5643278650889498E-003
           6  -8.2213383511190688E-004
           7  0.43249753553608405     
           8  0.14311946737189399     
           9   1.3456405869955083E-004
          10   1.8038259275006670E-003
          11 -0.36581226481763612     
          12 -0.12208234823041114     
          13   2.0215819543448130E-002
          14 -0.36979610064253909     
          15  -2.4366198261995698E-002
          16   6.2266036360640910E-002
          17  -2.0565334986780925E-002
          18  0.36972686633534746     
          19   2.1227926745445175E-002
          20  -6.4480825102795847E-002
Sym=     7a
Ene=  -0.47403015929056003     
Spin= Alpha
Occup=     2.00000000
           1 -0.37038954810693830     
           2 -0.31998681834044490     
           3   7.0326549736033125E-002
           4 -0.21012627612280024     
           5  0.21518062726448128     
           6   8.9034320630353991E-003
           7   7.5940336053728144E-002
           8 -0.22780736360881859     
           9  0.37423102112055601     
          10 -0.27538785231633128     
          11  -5.8883322597744939E-002
          12  0.17536314601752895     
          13 -0.32849277100474755     
          14   3.0967276312802668E-002
          15  0.24496914534994410     
          16  0.10940796844227665     
          17 -0.32994714306349510     
          18   3.2392042836484801E-002
          19 -0.26248500710030781     
          20  -5.8223339136901524E-002
Sym=     8a
Ene=  -0.46288136820877229     
Spin= Alpha
Occup=     2.00000000
           1 -0.21587002586517415     
           2 -0.21735887271782089     
           3   6.6383831253490899E-002
           4 -0.20098823694075940     
           5   7.9300496081141147E-002
           6   5.3958797152546825E-002
           7   6.3545077478433104E-002
           8 -0.19073525360506133     
           9  0.19928125970215696     
          10 -0.18025138082198475     
          11  -6.6040787048353061E-002
          12  0.19496147368475894     
          13  0.31355405141057530     
          14   1.7046692744154279E-002
          15 -0.46627035507778741     
          16  -9.2549920810987091E-002
          17  0.31438772450135316     
          18   1.2381185160026736E-002
          19  0.42939942182982838     
          20  0.20492534645799562     
Sym=     9a
Ene=  -0.45597330365168631     
Spin= Alpha
Occup=     1.99999999
           1 -0.36640077856726838     
           2 -0.39872722836268365     
           3 -0.14140415227525879     
           4  0.42755216179826272     
           5  0.14972509177463048     
           6   9.2578451576379645E-002
           7 -0.12827789272988724     
           8  0.38767184916303304     
           9   2.9097034263615623E-002
          10 -0.19683210559302561     
          11  0.10421783658467698     
          12 -0.31548725233237396     
          13   1.9656194648278086E-002
          14  -7.5517058726170663E-002
          15  -1.3355210155182484E-002
          16 -0.15763979063611408     
          17   1.9108277665365041E-002
          18  -7.7179505996068806E-002
          19  0.10383910531945545     
          20 -0.11868089228749183     
Sym=    10a
Ene=  -0.42053913350609923     
Spin= Alpha
Occup=     1.00000001
           1  0.28048362125605369     
           2  0.39097430995244348     
           3  -7.6768241963339229E-002
           4  0.21536136016493246     
           5   4.4790630506707667E-002
           6 -0.24858096764209567     
           7  -3.4679458072969752E-002
           8   9.7870335588903429E-002
           9  0.41078469910545296     
          10 -0.61549406891483460     
          11  -3.5242628548611793E-002
          12   8.9654147273579246E-002
          13   6.9986739877618952E-003
          14  0.17858035650781187     
          15   1.3830263645621756E-002
          16 -0.12025566052934857     
          17   1.0505480336587006E-002
          18  0.18067252658193869     
          19   6.6649712907285052E-002
          20 -0.10672758264634244     
Sym=    11a
Ene=  -0.40557584719904616     
Spin= Alpha
Occup=     1.00000000
           1   2.2882664439599198E-003
           2   4.0527233785679516E-003
           3  0.55724061222500643     
           4  0.18684120569009396     
           5   4.3158750497502792E-004
           6  -2.4012756874807703E-003
           7  0.18207192684970894     
           8   6.1200862416494889E-002
           9   2.2689498851693008E-003
          10  -5.2168907269809026E-003
          11  0.27062894317995995     
          12   9.0906108821417073E-002
          13  0.25867915404993574     
          14  0.10366380390389449     
          15 -0.11473624263037280     
          16 -0.43716156347458429     
          17 -0.25683694943343383     
          18  -9.8337506596141266E-002
          19 -0.35249168667049929     
          20  0.28081469027994344     
Sym=    12a
Ene=  -0.36376336836727302     
Spin= Alpha
Occup=     0.00000000
           1  -1.4649514784005686E-004
           2  -1.1041121092490744E-003
           3 -0.53449273761282134     
           4 -0.17791310508176822     
           5   1.6802716790664872E-004
           6   3.2725548401779013E-004
           7   2.4520861679577052E-002
           8   8.4682652230954510E-003
           9  -4.5038276360832624E-004
          10   7.0572094842625340E-004
          11  -2.6117252979885080E-002
          12  -9.9631384200696751E-003
          13  -1.5034653765804498E-002
          14 -0.26043928943867134     
          15  0.19000850264137625     
          16 -0.53265600339719710     
          17   1.4220068783988352E-002
          18  0.25960840045328015     
          19 -0.16449181280253483     
          20  0.54271793508476440     
Sym=    13a
Ene=  -0.30371679783510852     
Spin= Alpha
Occup=     0.00000000
           1  -1.5412303514700977E-002
           2  -8.5067483710094052E-002
           3 -0.18092048744093586     
           4  0.54323987336052093     
           5  -8.0385865465718853E-002
           6   8.7198764527983016E-002
           7   9.4286920557100806E-002
           8 -0.28355243585476270     
           9   3.9355611558436254E-002
          10  0.28437624373396436     
          11 -0.21905307901777663     
          12  0.66340664977992925     
          13   3.8097887339634741E-002
          14  -6.0396426166328732E-002
          15  0.13180597924690549     
          16 -0.28459534023787836     
          17   3.8306943096298465E-002
          18  -5.9234441750425200E-002
          19   6.4090378368553927E-002
          20 -0.30541731065628142     
Sym=    14a
Ene=  -0.26288766444750655     
Spin= Alpha
Occup=     0.00000000
           1  -2.2296300518346486E-004
           2  -3.3954591724355272E-004
           3  0.43512963334261445     
           4  0.14446352525391065     
           5  -9.9401116029335644E-004
           6   9.2026630332242337E-004
           7 -0.37510299633062449     
           8 -0.12438725622418897     
           9   1.1544516557389111E-004
          10   1.1768955557225748E-003
          11 -0.35051470676854629     
          12 -0.11669543813342799     
          13  -4.3383564301856643E-002
          14   5.1587231527803680E-002
          15  0.63385143861804938     
          16  -5.7041564633559659E-002
          17   4.3420561927994129E-002
          18  -5.6675972323363071E-002
          19  0.47243879982807380     
          20  0.42504860595820448     
Sym=    15a
Ene=  -0.18341035740250933     
Spin= Alpha
Occup=     0.00000000
           1   6.3869250201121306E-003
           2  -3.1394179265971704E-002
           3  0.18879182817513146     
           4 -0.56849420348367008     
           5  -4.8343405393993316E-002
           6   2.1036715884752664E-002
           7 -0.24248324262425924     
           8  0.72972377336626904     
           9   4.7498953866684920E-003
          10   5.4680967189642334E-002
          11 -0.13435166685634187     
          12  0.40537843655119177     
          13   5.8578495277838948E-002
          14  -5.8975832238663026E-002
          15  0.17624813920843277     
          16 -0.37295896710008275     
          17   5.8659226823419293E-002
          18  -5.7915189294948710E-002
          19   8.0970489159383208E-002
          20 -0.40372946203184457     
Sym=    16a
Ene=    7.9851762718531283E-002
Spin= Alpha
Occup=     0.00000000
           1  -4.6975159290315082E-003
           2   1.1839952307761791E-002
           3 -0.34410321272219146     
           4 -0.11421886960848336     
           5   2.5439525149617084E-002
           6  -9.8831414762918755E-003
           7  0.81743381816964766     
           8  0.27161052510331479     
           9  -2.0482845412629963E-003
          10   3.2284333020898047E-003
          11   7.1213552737926927E-002
          12   2.5548482312859874E-002
          13  0.51454197487286635     
          14  0.38232133322601553     
          15  0.43802200963227444     
          16  0.17260369025855710     
          17 -0.52763190710762975     
          18 -0.41066235623117026     
          19  0.46148695337417805     
          20  0.12409732193017378     
Sym=    17a
Ene=   0.13886237824201550     
Spin= Alpha
Occup=     0.00000000
           1 -0.17563420398686222     
           2  0.42931111657182874     
           3   4.9797930338973976E-003
           4   9.7101393602600072E-003
           5   1.0690638645359796     
           6 -0.40967528005899567     
           7  -1.6322791640714509E-002
           8  -1.5056475866188133E-002
           9 -0.13952869712579921     
          10  0.10535262735425448     
          11  -3.9624796350345180E-002
          12   8.1018445890822258E-002
          13 -0.31188244050018438     
          14 -0.54912046541690562     
          15 -0.22408583202692595     
          16 -0.10275899395439939     
          17 -0.27723928943041398     
          18 -0.54638772057668150     
          19  0.20629442983931770     
          20   4.6622083116748002E-002
Sym=    18a
Ene=   0.18339325555250055     
Spin= Alpha
Occup=     0.00000000
           1   1.9288338318940845E-003
           2  -4.5621605759295462E-003
           3  -8.2976556428098050E-002
           4  -2.7596619462979317E-002
           5  -1.2345568087876907E-002
           6   4.3760023483169330E-003
           7  0.27562970279812016     
           8   9.1641144518871509E-002
           9   6.0888444982044000E-005
          10   2.2306123903460501E-003
          11 -0.89222790661952811     
          12 -0.29674049696608645     
          13 -0.41388234502713378     
          14  0.61204213914963645     
          15 -0.25083114378648758     
          16 -0.29509551468674922     
          17  0.42279587396370405     
          18 -0.59747309188986997     
          19 -0.39086940127021735     
          20   8.3339349444560729E-002
Sym=    19a
Ene=   0.42354984961338760     
Spin= Alpha
Occup=     0.00000000
           1 -0.23138721015956223     
           2  0.28960800489341826     
           3   5.7170359520788208E-003
           4  -1.5381273307853488E-002
           5  0.18555541196813088     
           6  0.24250122848024408     
           7  -2.4413041775899501E-002
           8   7.0616520908376890E-002
           9  0.91634903568901538     
          10  0.82788225713997166     
          11  0.11414076610281526     
          12 -0.33616524581029084     
          13 -0.42852304094042742     
          14  0.49062885314762633     
          15 -0.24659703864055035     
          16 -0.31375696493625638     
          17 -0.42422912318463346     
          18  0.48587013941352170     
          19  0.38712737898631233     
          20 -0.10202834513476541     
Sym=    20a
Ene=   0.83502768465456867     
Spin= Alpha
Occup=     0.00000000
           1 -0.83539186605736304     
           2  0.90296929598093068     
           3  -5.3398258193715215E-003
           4   1.5293082007339661E-002
           5  0.44431375262786610     
           6   1.2736626767196810     
           7  -2.0581494183463354E-003
           8   7.7666536748285473E-003
           9 -0.23197810578653907     
          10 -0.25901722582338527     
          11  -3.0855861674922998E-002
          12   9.0787909415826970E-002
          13  0.36538573994648954     
          14   8.8014624619440623E-002
          15  0.23686032407156066     
          16  0.14226927266469330     
          17  0.36674703048985491     
          18   9.4064093579429922E-002
          19 -0.27445475600963709     
          20  -2.7854571827160845E-002
