5
 energy: -10.072181016518 gnorm: 0.203593405993 xtb: 6.2.2 (9d81278992624c895f80dd42a50cac0aa55982e2)
C         1.65618900000000   -0.15111500000000    0.46556000000000
C         0.47149600000000    0.14577700000000   -0.42910000000000
C        -0.47082800000000   -0.25095300000000    0.74324400000000
C        -0.82588400000000   -0.60857200000000   -0.63722700000000
C        -0.83097300000000    0.86486400000000   -0.14247800000000
5
 energy: -10.110819702587 gnorm: 0.091801737207 xtb: 6.2.2 (9d81278992624c895f80dd42a50cac0aa55982e2)
C         1.55182313351998   -0.13056153531400    0.40343732842622
C         0.51515152468058    0.13857841478405   -0.40744972654211
C        -0.49496910505041   -0.25835732719425    0.76523106395583
C        -0.78345520899011   -0.61149499906679   -0.62802074741476
C        -0.78855034416004    0.86183644679100   -0.13319891842517
5
 energy: -10.111798698514 gnorm: 0.158792877126 xtb: 6.2.2 (9d81278992624c895f80dd42a50cac0aa55982e2)
C         1.49165307036475   -0.10979912915289    0.34090581973618
C         0.55518481040766    0.13235764562014   -0.38894123432851
C        -0.55589814982003   -0.26688629098612    0.79088979399324
C        -0.74280216799506   -0.61843740005203   -0.62034939958644
C        -0.74813756295731    0.86276617457090   -0.12250597981447
5
 energy: -10.119031124219 gnorm: 0.029630748578 xtb: 6.2.2 (9d81278992624c895f80dd42a50cac0aa55982e2)
C         1.53638369732307   -0.11757964552376    0.36451422617041
C         0.54008095871087    0.13777953567812   -0.40544757628021
C        -0.55872127247917   -0.26533627685992    0.78653468034077
C        -0.75617923404007   -0.61700768921658   -0.62146060524160
C        -0.76156414951469    0.86214507592213   -0.12414172498937
5
 energy: -10.121247777478 gnorm: 0.026161029794 xtb: 6.2.2 (9d81278992624c895f80dd42a50cac0aa55982e2)
C         1.55120321844180   -0.11304083783203    0.35082347038601
C         0.54421348590372    0.13816970591818   -0.40728632320073
C        -0.59888397760137   -0.26800392353937    0.79577455109030
C        -0.74534542271249   -0.61953517189921   -0.61916249241991
C        -0.75118730403166    0.86241122735243   -0.12015020585567
5
 energy: -10.135598551865 gnorm: 0.109285685426 xtb: 6.2.2 (9d81278992624c895f80dd42a50cac0aa55982e2)
C         1.68749496805103   -0.07464170726707    0.23552499911358
C         0.56943016019101    0.13314529822990   -0.40092620825881
C        -0.92577684003959   -0.28369394511617    0.85841710437513
C        -0.66055966980823   -0.63650234905065   -0.60329211140255
C        -0.67058861839421    0.86169370320398   -0.08972478382735
5
 energy: -10.138847343698 gnorm: 0.159357033672 xtb: 6.2.2 (9d81278992624c895f80dd42a50cac0aa55982e2)
C         1.77667908511398   -0.04841192733792    0.15771576739304
C         0.59892318481813    0.13532177755597   -0.41099020777303
C        -1.17033459559808   -0.28358302354047    0.87059790132276
C        -0.59739230831920   -0.66029102833420   -0.57240827979583
C        -0.60787536601484    0.85696520165663   -0.04491618114694
5
 energy: -10.158199307016 gnorm: 0.106202460226 xtb: 6.2.2 (9d81278992624c895f80dd42a50cac0aa55982e2)
C         1.73908984412600   -0.05814980568897    0.18300141471084
C         0.61686204647815    0.14766369684642   -0.44025573713356
C        -1.13816375262061   -0.26212192034745    0.81220724128704
C        -0.60427074798773   -0.67128550708094   -0.54151555476132
C        -0.61351738999581    0.84389453627094   -0.01343836410300
5
 energy: -10.170708010565 gnorm: 0.063160393216 xtb: 6.2.2 (9d81278992624c895f80dd42a50cac0aa55982e2)
C         1.72817991146610   -0.05684142186668    0.19382792071737
C         0.64500532011279    0.16181713993683   -0.48504095592324
C        -1.19404323784079   -0.22663385895565    0.70259361037363
C        -0.59145151061847   -0.70266245135579   -0.47377010042837
C        -0.58769048311964    0.82432159224130    0.06238852526060
5
 energy: -10.174161273681 gnorm: 0.060603604658 xtb: 6.2.2 (9d81278992624c895f80dd42a50cac0aa55982e2)
C         1.76064164373330   -0.03521925407970    0.17104160494221
C         0.64594569981528    0.14946370522062   -0.47849978745939
C        -1.27138648747868   -0.23046587762018    0.68467051947970
C        -0.58032047530894   -0.71531610068067   -0.46094871172644
C        -0.55488038076095    0.83153852715994    0.08373537476391
5
 energy: -10.178929393056 gnorm: 0.049278379652 xtb: 6.2.2 (9d81278992624c895f80dd42a50cac0aa55982e2)
C         1.79200712421887   -0.01796698371225    0.16165620334578
C         0.62454160014323    0.12637756626435   -0.44091025873132
C        -1.28832380258111   -0.23169605196306    0.65113892364200
C        -0.58706705826809   -0.72176671090534   -0.46046583877602
C        -0.54115786351290    0.84505318031630    0.08857997051957
5
 energy: -10.184832830164 gnorm: 0.079632360524 xtb: 6.2.2 (9d81278992624c895f80dd42a50cac0aa55982e2)
C         1.85433196432620   -0.01475825014702    0.12273808555036
C         0.58888130828141    0.09907703601508   -0.33815677559224
C        -1.32372197729827   -0.20629549822321    0.57579915756411
C        -0.57323648709633   -0.74709213142047   -0.45713134173596
C        -0.54625480821301    0.86906984377562    0.09674987421373
5
 energy: -10.188037142439 gnorm: 0.074794076477 xtb: 6.2.2 (9d81278992624c895f80dd42a50cac0aa55982e2)
C         1.87080795872389   -0.02039320694855    0.09739824420083
C         0.59314916095601    0.09689863638978   -0.29733036130467
C        -1.35162563277228   -0.18706356338199    0.53890318021843
C        -0.55875772473995   -0.76287421102441   -0.44660103273682
C        -0.55357376216767    0.87343334496517    0.10762896962223
5
 energy: -10.195678259093 gnorm: 0.022192244525 xtb: 6.2.2 (9d81278992624c895f80dd42a50cac0aa55982e2)
C         1.89390306993274   -0.00925929002668    0.03322434239804
C         0.62939027892054    0.07043601223187   -0.19190796198280
C        -1.41663732719673   -0.15128347618436    0.43475691272175
C        -0.54718134302889   -0.79268271338366   -0.41619178285251
C        -0.55947467862765    0.88279046736283    0.14011748971551
5
 energy: -10.196179263067 gnorm: 0.058592505355 xtb: 6.2.2 (9d81278992624c895f80dd42a50cac0aa55982e2)
C         1.93681065421980    0.00622337018131   -0.02371224578047
C         0.65496787354519    0.04870176412140   -0.11767883481230
C        -1.51070362946228   -0.12602765934771    0.35767351846053
C        -0.53104827522583   -0.81065086809932   -0.38661654463473
C        -0.55002662307689    0.88175439314433    0.17033310676696
5
 energy: -10.197873850169 gnorm: 0.025042433107 xtb: 6.2.2 (9d81278992624c895f80dd42a50cac0aa55982e2)
C         1.92318889968959    0.00627164678487   -0.01677373443784
C         0.65802390146261    0.04656565805389   -0.11670602681329
C        -1.48198755943703   -0.13045165606093    0.36662180128504
C        -0.54205556037450   -0.79612184711146   -0.39154958596027
C        -0.55716968134068    0.87373719833363    0.15840654592637
5
 energy: -10.198426574227 gnorm: 0.016577304268 xtb: 6.2.2 (9d81278992624c895f80dd42a50cac0aa55982e2)
C         1.93284765851314    0.01000306025055   -0.02683237874089
C         0.66129960920689    0.04017828343339   -0.09802809689461
C        -1.49377074127439   -0.12691925253308    0.35439758875262
C        -0.54293411216433   -0.78820287567408   -0.38671878818074
C        -0.55744241428131    0.86494178452321    0.15718067506363
5
 energy: -10.199107356946 gnorm: 0.006929394317 xtb: 6.2.2 (9d81278992624c895f80dd42a50cac0aa55982e2)
C         1.94501185332256    0.01907362592395   -0.05372526629779
C         0.67786245789514    0.03054772991797   -0.06918224120483
C        -1.53735249721291   -0.11623914280047    0.32598668809301
C        -0.53588843934628   -0.76533717231939   -0.36509661136825
C        -0.54963337465851    0.83195595927793    0.16201643077786
5
 energy: -10.199138119732 gnorm: 0.003599952380 xtb: 6.2.2 (9d81278992624c895f80dd42a50cac0aa55982e2)
C         1.94768676399401    0.02162468352066   -0.05291155383901
C         0.67631877895472    0.02751235925577   -0.06683712012019
C        -1.53748895816859   -0.11632868845847    0.32084301200989
C        -0.53846814784974   -0.76798615649314   -0.36538578125423
C        -0.54804843693040    0.83517880217518    0.16429044320354
5
 energy: -10.199150036890 gnorm: 0.001916942152 xtb: 6.2.2 (9d81278992624c895f80dd42a50cac0aa55982e2)
C         1.94687711150000    0.01983958115377   -0.05199421787177
C         0.67585227982863    0.02908667676970   -0.06823645042635
C        -1.53620015768418   -0.11483361596905    0.32026902298906
C        -0.53739652840524   -0.76957559181354   -0.36529024480942
C        -0.54913270523920    0.83548394985912    0.16525089011848
5
 energy: -10.199161056005 gnorm: 0.001463912074 xtb: 6.2.2 (9d81278992624c895f80dd42a50cac0aa55982e2)
C         1.94620421837459    0.02053756879150   -0.05106339030328
C         0.67663701384662    0.02869352328522   -0.07014748500130
C        -1.53813494263989   -0.11212175736526    0.31411900881664
C        -0.53733942274539   -0.77085732817896   -0.36276715648771
C        -0.54736686683593    0.83374899346749    0.16985802297565
5
 energy: -10.199164099699 gnorm: 0.000736221710 xtb: 6.2.2 (9d81278992624c895f80dd42a50cac0aa55982e2)
C         1.94765688097777    0.02169201843307   -0.05142614982117
C         0.67697894537198    0.02787181846786   -0.06967600521085
C        -1.53929621424168   -0.11136527320099    0.31386857040954
C        -0.53826086590489   -0.77116262131636   -0.36280554212421
C        -0.54707874620318    0.83296505761643    0.17003812674670
