$hessian                                                                        
        0.6657427360  -0.0043722789   0.0134507433  -0.5511410060   0.0095615487
       -0.0271873907  -0.0068661814   0.0040707188  -0.0121621489  -0.0540313000
        0.0017612551   0.0150473395  -0.0537042486  -0.0110212438   0.0108514567
       -0.0043722789   0.0144460552   0.0011063327   0.0029754366  -0.0166284746
        0.0018129487   0.0022750267   0.0019070705  -0.0005358746  -0.0092171096
       -0.0004472185  -0.0019639675   0.0083389252   0.0007225674  -0.0004194393
        0.0134507433   0.0011063327   0.0115624255  -0.0088315953   0.0017076187
       -0.0213640726  -0.0065297910  -0.0007407906   0.0034816745  -0.0020120161
        0.0007314718   0.0035424972   0.0039226590  -0.0028046327   0.0027774753
       -0.5511410060   0.0029754366  -0.0088315953   0.7894208038  -0.0096609511
        0.0342532053  -0.0523834519  -0.0151705720   0.0449161462  -0.0926499994
       -0.1123968216  -0.0761735748  -0.0932463466   0.1342529082   0.0058358186
        0.0095615487  -0.0166284746   0.0017076187  -0.0096609511   0.0722366938
        0.0047114890  -0.0096971121   0.0043555351   0.0001599519  -0.0206800401
       -0.0300589271  -0.0051985307   0.0304765545  -0.0299048272  -0.0013805289
       -0.0271873907   0.0018129487  -0.0213640726   0.0342532053   0.0047114890
        0.0596058796   0.0269323999   0.0004707419   0.0042853660  -0.0254024105
       -0.0031273778  -0.0217602594  -0.0085958040  -0.0038678018  -0.0207669137
       -0.0068661814   0.0022750267  -0.0065297910  -0.0523834519  -0.0096971121
        0.0269323999   0.5006366771   0.0636418008  -0.1881939747  -0.2226477741
        0.1677352940   0.1494469096  -0.2187392698  -0.2239550094   0.0183444562
        0.0040707188   0.0019070705  -0.0007407906  -0.0151705720   0.0043555351
        0.0004707419   0.0636418008   0.1646806684   0.0206941757   0.0639190038
       -0.0466409977  -0.0413886596  -0.1164609513  -0.1243022762   0.0209645326
       -0.0121621489  -0.0005358746   0.0034816745   0.0449161462   0.0001599519
        0.0042853660  -0.1881939747   0.0206941757   0.1067965114   0.1083383246
       -0.0786903670  -0.0948251431   0.0471016528   0.0583721140  -0.0197384088
       -0.0540313000  -0.0092171096  -0.0020120161  -0.0926499994  -0.0206800401
       -0.0254024105  -0.2226477741   0.0639190038   0.1083383246   0.2748197283
       -0.0496710853  -0.0766036238   0.0945093452   0.0156492313  -0.0043202741
        0.0017612551  -0.0004472185   0.0007314718  -0.1123968216  -0.0300589271
       -0.0031273778   0.1677352940  -0.0466409977  -0.0786903670  -0.0496710853
        0.2242585440   0.1216434643  -0.0074286421  -0.1471114006  -0.0405571914
        0.0150473395  -0.0019639675   0.0035424972  -0.0761735748  -0.0051985307
       -0.0217602594   0.1494469096  -0.0413886596  -0.0948251431  -0.0766036238
        0.1216434643   0.1080210010  -0.0117170505  -0.0730923064   0.0050219042
       -0.0537042486   0.0083389252   0.0039226590  -0.0932463466   0.0304765545
       -0.0085958040  -0.2187392698  -0.1164609513   0.0471016528   0.0945093452
       -0.0074286421  -0.0117170505   0.2711805198   0.0850741137  -0.0307114574
       -0.0110212438   0.0007225674  -0.0028046327   0.1342529082  -0.0299048272
       -0.0038678018  -0.2239550094  -0.1243022762   0.0583721140   0.0156492313
       -0.1471114006  -0.0730923064   0.0850741137   0.3005959365   0.0213926269
        0.0108514567  -0.0004194393   0.0027774753   0.0058358186  -0.0013805289
       -0.0207669137   0.0183444562   0.0209645326  -0.0197384088  -0.0043202741
       -0.0405571914   0.0050219042  -0.0307114574   0.0213926269   0.0327059431
