      -----------------------------------------------------------      
     |                   =====================                   |     
     |                           x T B                           |     
     |                   =====================                   |     
     |                         S. Grimme                         |     
     |          Mulliken Center for Theoretical Chemistry        |     
     |                    University of Bonn                     |     
      -----------------------------------------------------------      

   * xtb version 6.2.2 (9d81278992624c895f80dd42a50cac0aa55982e2) compiled by '@Darwin' on 04/03/2020

   xtb is free software: you can redistribute it and/or modify it under
   the terms of the GNU Lesser General Public License as published by
   the Free Software Foundation, either version 3 of the License, or
   (at your option) any later version.
   
   xtb is distributed in the hope that it will be useful,
   but WITHOUT ANY WARRANTY; without even the implied warranty of
   MERCHANTABILITY or FITNESS FOR A PARTICULAR PURPOSE.  See the
   GNU Lesser General Public License for more details.
   
   Cite this work as:
   * S. Grimme, C. Bannwarth, P. Shushkov, J. Chem. Theory Comput., 2017,
     13, 1989-2009. DOI: 10.1021/acs.jctc.7b00118
   * C. Bannwarth, S. Ehlert and S. Grimme., J. Chem. Theory Comput., 2019,
     15, 1652-1671. DOI: 10.1021/acs.jctc.8b01176
   * P. Pracht, E. Caldeweyher, S. Ehlert, S. Grimme, ChemRxiv, 2019, preprint.
     DOI: 10.26434/chemrxiv.8326202.v1
   
   for DFT-D4:
   * E. Caldeweyher, C. Bannwarth and S. Grimme, J. Chem. Phys., 2017,
     147, 034112. DOI: 10.1063/1.4993215
   * E. Caldeweyher, S. Ehlert, A. Hansen, H. Neugebauer, S. Spicher,
     C. Bannwarth and S. Grimme, J. Chem. Phys., 2019, 150, 154122.
     DOI: 10.1063/1.5090222
   
   for sTDA-xTB:
   * S. Grimme and C. Bannwarth, J. Chem. Phys., 2016, 145, 054103.
     DOI: 10.1063/1.4959605
   
   in the mass-spec context:
   * V. Asgeirsson, C. Bauer and S. Grimme, Chem. Sci., 2017, 8, 4879.
     DOI: 10.1039/c7sc00601b
   
   for metadynamics refer to:
   * S. Grimme, J. Chem. Theory Comput., 2019, 155, 2847-2862
     DOI: 10.1021/acs.jctc.9b00143
   
   with help from (in alphabetical order)
   C. Bannwarth, F. Bohle, G. Brandenburg, E. Caldeweyher, M. Checinski,
   S. Dohm, S. Ehlert, S. Ehrlich, F. März, H. Neugebauer, J. Pisarek,
   P. Pracht, P. Shushkov, and S. Spicher.
   
 * started run on 2020/05/12 at 11:44:37.642     

           -------------------------------------------------
          |                Calculation Setup                |
           -------------------------------------------------

          program call               : xtb --input C5_14_S_2.input C5_14_S_2.xyz --ohess --molden --namespace C5_14_S_2 output.out
          calculation namespace      : C5_14_S_2
          coordinate file            : C5_14_S_2.xyz
          number of atoms            :                     5
          number of electrons        :                    20
          charge                     :                     0
          spin                       :                   1.0
          first test random number   :      0.49802743572488

   ID    Z sym.   atoms
    1    6 C      1-5

           -------------------------------------------------
          |                 G F N 2 - x T B                 |
           -------------------------------------------------

        Reference                      10.1021/acs.jctc.8b01176
      * Hamiltonian:
        H0-scaling (s, p, d)           1.850000    2.230000    2.230000
        zeta-weighting                 0.500000
      * Dispersion:
        s8                             2.700000
        a1                             0.520000
        a2                             5.000000
        s9                             5.000000
      * Repulsion:
        kExp                           1.500000    1.000000
        rExp                           1.000000
      * Coulomb:
        alpha                          2.000000
        third order                    shell-resolved
        anisotropic                    true
        a3                             3.000000
        a5                             4.000000
        cn-shift                       1.200000
        cn-exp                         4.000000
        max-rad                        5.000000


          ...................................................
          :                      SETUP                      :
          :.................................................:
          :  # basis functions                  20          :
          :  # atomic orbitals                  20          :
          :  # shells                           10          :
          :  # electrons                        20          :
          :  max. iterations                   250          :
          :  Hamiltonian                  GFN2-xTB          :
          :  restarted?                      false          :
          :  GBSA solvation                  false          :
          :  PC potential                    false          :
          :  electronic temp.          300.0000000     K    :
          :  accuracy                    1.0000000          :
          :  -> integral cutoff          0.2500000E+02      :
          :  -> integral neglect         0.1000000E-07      :
          :  -> SCF convergence          0.1000000E-05 Eh   :
          :  -> wf. convergence          0.1000000E-03 e    :
          :  Broyden damping             0.4000000          :
          ...................................................

 iter      E             dE          RMSdq      gap      omega  full diag
   1     -9.7396772 -0.973968E+01  0.107E+01    2.13       0.0  T
   2     -6.6152137  0.312446E+01  0.183E+01    0.08       1.0  T
   3     -9.3144528 -0.269924E+01  0.972E+00    2.20       1.0  T
   4    -10.0845669 -0.770114E+00  0.566E+00    1.49       1.0  T
   5    -10.1757911 -0.912243E-01  0.331E+00    1.40       1.0  T
   6    -10.1765317 -0.740571E-03  0.310E+00    1.58       1.0  T
   7    -10.1693938  0.713791E-02  0.253E+00    1.36       1.0  T
   8    -10.1746434 -0.524957E-02  0.158E+00    1.48       1.0  T
   9    -10.1645570  0.100864E-01  0.185E+00    1.48       1.0  T
  10    -10.1773587 -0.128018E-01  0.907E-01    1.48       1.0  T
  11    -10.1775302 -0.171424E-03  0.839E-01    1.47       1.0  T
  12    -10.1794849 -0.195472E-02  0.302E-01    1.51       1.0  T
  13    -10.1796882 -0.203311E-03  0.132E-01    1.52       1.0  T
  14    -10.1797308 -0.426288E-04  0.686E-02    1.52       1.0  T
  15    -10.1797381 -0.726871E-05  0.334E-02    1.53       1.3  T
  16    -10.1797381 -0.250948E-08  0.224E-02    1.53       2.0  T
  17    -10.1797381 -0.418093E-07  0.109E-02    1.53       4.1  T
  18    -10.1797382 -0.228712E-07  0.383E-03    1.53      11.7  T
  19    -10.1797382 -0.142802E-07  0.491E-04    1.53      91.1  T
  20    -10.1797382 -0.277115E-09  0.214E-04    1.53     208.5  T

   *** convergence criteria satisfied after 20 iterations ***

         #    Occupation            Energy/Eh            Energy/eV
      -------------------------------------------------------------
         1        2.0000           -0.7541105             -20.5204
       ...           ...                  ...                  ...
         5        2.0000           -0.5713510             -15.5473
         6        2.0000           -0.5060110             -13.7693
         7        2.0000           -0.4758107             -12.9475
         8        2.0000           -0.4643401             -12.6353
         9        1.9011           -0.4529712             -12.3260
        10        1.0538           -0.4481486             -12.1947
        11        1.0450           -0.4479703             -12.1899 (HOMO)
        12                         -0.3918755             -10.6635 (LUMO)
        13                         -0.3518439              -9.5742
        14                         -0.2107260              -5.7341
        15                         -0.1356736              -3.6919
        16                         -0.1104902              -3.0066
       ...                                ...                  ...
        20                          0.2822962               7.6817
      -------------------------------------------------------------
                  HL-Gap            0.0560948 Eh            1.5264 eV
             Fermi-level           -0.4352592 Eh          -11.8440 eV

 transition dipole moment (au) for excitation:          10          11
     X       Y       Z   
   0.1937  -0.1020   0.3031  total (au/Debye):    0.374   0.950
 dE (eV)             :    0.005
 oscillator strength :  0.23512E-04

 SCC (total)                   0 d,  0 h,  0 min,  0.006 sec
 SCC setup                      ...        0 min,  0.000 sec (  1.342%)
 Dispersion                     ...        0 min,  0.000 sec (  0.312%)
 integral evaluation            ...        0 min,  0.001 sec ( 21.950%)
 zeroth order Hamiltonian       ...        0 min,  0.000 sec (  0.361%)
 iterations                     ...        0 min,  0.002 sec ( 35.229%)
 molecular gradient             ...        0 min,  0.001 sec ( 22.961%)
 printout                       ...        0 min,  0.001 sec ( 17.661%)

         :::::::::::::::::::::::::::::::::::::::::::::::::::::
         ::                     SUMMARY                     ::
         :::::::::::::::::::::::::::::::::::::::::::::::::::::
         :: total energy             -10.072181016838 Eh    ::
         :: gradient norm              0.203592130507 Eh/a0 ::
         :: HOMO-LUMO gap              1.526416364006 eV    ::
         ::.................................................::
         :: SCC energy               -10.179738176776 Eh    ::
         :: -> isotropic ES           -0.020848410177 Eh    ::
         :: -> anisotropic ES          0.001063881039 Eh    ::
         :: -> anisotropic XC          0.005484641154 Eh    ::
         :: -> dispersion             -0.002804816956 Eh    ::
         :: repulsion energy           0.107557117438 Eh    ::
         :: add. restraining           0.000000000000 Eh    ::
         :::::::::::::::::::::::::::::::::::::::::::::::::::::

      ----------------------------------------------------------- 
     |                   =====================                   |
     |                        A N C O P T                        |
     |                   =====================                   |
     |               Approximate Normal Coordinate               |
     |                Rational Function Optimizer                |
      ----------------------------------------------------------- 

          ...................................................
          :                      SETUP                      :
          :.................................................:
          :   optimization level            normal          :
          :   max. optcycles                   200          :
          :   ANC micro-cycles                  20          :
          :   degrees of freedom                 9          :
          :.................................................:
          :   RF solver                   davidson          :
          :   write xtbopt.log                true          :
          :   linear?                        false          :
          :   energy convergence         0.5000000E-05 Eh   :
          :   grad. convergence          0.1000000E-02 Eh/α :
          :   maximium RF displ.         1.0000000          :
          :   Hlow (freq-cutoff)         0.1000000E-01      :
          :   Hmax (freq-cutoff)         5.0000000          :
          :   S6 in model hess.         20.0000000          :
          ...................................................

generating ANC from model Hessian ...
Using Lindh-Hessian (1995)
 Shifting diagonal of input Hessian by    0.0000000000000000     
 Lowest  eigenvalues of input Hessian
   -0.000000   -0.000000   -0.000000    0.000000    0.000000    0.000000
    0.067886    0.154504    0.361485    0.601125    0.730029    0.899214
    1.007353    1.213566    1.693781
 Highest eigenvalues
    0.601125    0.730029    0.899214    1.007353    1.213566    1.693781


........................................................................
.............................. CYCLE    1 ..............................
........................................................................
   1    -10.1797382 -0.101797E+02  0.643E-05    1.53       0.0  T
   2    -10.1797382  0.463363E-10  0.965E-05    1.53     463.4  T
   3    -10.1797382 -0.425953E-10  0.516E-05    1.53     866.1  T
     SCC iter.                  ...        0 min,  0.000 sec
     gradient                   ...        0 min,  0.001 sec
 * total energy  :   -10.0721810 Eh     change        0.3198934E-09 Eh
   gradient norm :     0.2035934 Eh/α   predicted     0.0000000E+00 (-100.00%)
   displ. norm   :     0.2835204 α      lambda       -0.4987460E-01
   maximum displ.:     0.2283610 α      in ANC's #3, #5, #8, ...

........................................................................
.............................. CYCLE    2 ..............................
........................................................................
   1    -10.2284130 -0.102284E+02  0.222E+00    1.84       0.0  T
   2     -9.8532317  0.375181E+00  0.555E+00    2.41       1.0  T
   3    -10.2000011 -0.346769E+00  0.273E+00    1.65       1.0  T
   4    -10.2184583 -0.184573E-01  0.192E+00    1.69       1.0  T
   5    -10.2340740 -0.156157E-01  0.139E+00    1.88       1.0  T
   6    -10.2369892 -0.291514E-02  0.123E+00    1.87       1.0  T
   7    -10.2432851 -0.629593E-02  0.693E-01    1.88       1.0  T
   8    -10.2442397 -0.954640E-03  0.615E-01    1.90       1.0  T
   9    -10.2468082 -0.256844E-02  0.236E-01    1.96       1.0  T
  10    -10.2468653 -0.571346E-04  0.163E-01    1.96       1.0  T
  11    -10.2468808 -0.154849E-04  0.116E-01    1.96       1.0  T
  12    -10.2469439 -0.630587E-04  0.362E-02    1.95       1.2  T
  13    -10.2469455 -0.166412E-05  0.323E-02    1.95       1.4  T
  14    -10.2469460 -0.437859E-06  0.108E-02    1.95       4.2  T
  15    -10.2469459  0.132004E-07  0.834E-03    1.95       5.4  T
  16    -10.2469460 -0.532977E-07  0.116E-03    1.95      38.6  T
  17    -10.2469460 -0.428608E-08  0.215E-04    1.95     207.8  T
  18    -10.2469460 -0.174204E-09  0.884E-05    1.95     505.7  T
     SCC iter.                  ...        0 min,  0.002 sec
     gradient                   ...        0 min,  0.001 sec
 * total energy  :   -10.1108197 Eh     change       -0.3863869E-01 Eh
   gradient norm :     0.0918011 Eh/α   predicted    -0.2694185E-01 ( -30.27%)
   displ. norm   :     0.2528084 α      lambda       -0.1984987E-01
   maximum displ.:     0.2188489 α      in ANC's #3, #8, #5, ...

........................................................................
.............................. CYCLE    3 ..............................
........................................................................
   1    -10.2981075 -0.102981E+02  0.191E+00    2.12       0.0  T
   2    -10.1941726  0.103935E+00  0.337E+00    2.21       1.0  T
   3    -10.2654710 -0.712984E-01  0.229E+00    2.02       1.0  T
   4    -10.2872181 -0.217471E-01  0.138E+00    2.04       1.0  T
   5    -10.2896412 -0.242310E-02  0.150E+00    2.14       1.0  T
   6    -10.2960397 -0.639853E-02  0.952E-01    2.09       1.0  T
   7    -10.2966702 -0.630558E-03  0.891E-01    2.08       1.0  T
   8    -10.2969856 -0.315381E-03  0.869E-01    2.09       1.0  T
   9    -10.3018046 -0.481893E-02  0.216E-01    2.10       1.0  T
  10    -10.3018848 -0.802731E-04  0.154E-01    2.11       1.0  T
  11    -10.3019664 -0.815419E-04  0.411E-02    2.10       1.1  T
  12    -10.3019703 -0.392684E-05  0.295E-02    2.10       1.5  T
  13    -10.3019720 -0.167968E-05  0.185E-02    2.10       2.4  T
  14    -10.3019738 -0.177105E-05  0.266E-03    2.10      16.8  T
  15    -10.3019738 -0.382031E-07  0.451E-04    2.10      99.1  T
  16    -10.3019738 -0.537263E-09  0.309E-04    2.10     144.6  T
     SCC iter.                  ...        0 min,  0.002 sec
     gradient                   ...        0 min,  0.002 sec
 * total energy  :   -10.1117987 Eh     change       -0.9789959E-03 Eh
   gradient norm :     0.1587910 Eh/α   predicted    -0.1055926E-01 ( 978.58%)
   displ. norm   :     0.1124919 α      lambda       -0.1559468E-01
   maximum displ.:     0.0759084 α      in ANC's #3, #5, #8, ...

........................................................................
.............................. CYCLE    4 ..............................
........................................................................
   1    -10.2710045 -0.102710E+02  0.868E-01    1.93       0.0  T
   2    -10.2662495  0.475508E-02  0.931E-01    1.85       1.0  T
   3    -10.2622050  0.404444E-02  0.124E+00    2.01       1.0  T
   4    -10.2677491 -0.554412E-02  0.942E-01    1.93       1.0  T
   5    -10.2666590  0.109015E-02  0.105E+00    1.92       1.0  T
   6    -10.2693968 -0.273783E-02  0.540E-01    1.96       1.0  T
   7    -10.2721347 -0.273792E-02  0.859E-02    1.94       1.0  T
   8    -10.2721452 -0.105106E-04  0.623E-02    1.94       1.0  T
   9    -10.2721531 -0.789535E-05  0.216E-02    1.94       2.1  T
  10    -10.2721554 -0.228954E-05  0.104E-02    1.94       4.3  T
  11    -10.2721561 -0.664581E-06  0.218E-03    1.94      20.5  T
  12    -10.2721561 -0.192552E-07  0.632E-04    1.94      70.7  T
  13    -10.2721561 -0.156094E-08  0.176E-04    1.94     254.4  T
     SCC iter.                  ...        0 min,  0.002 sec
     gradient                   ...        0 min,  0.001 sec
 * total energy  :   -10.1190311 Eh     change       -0.7232426E-02 Eh
   gradient norm :     0.0296305 Eh/α   predicted    -0.7896008E-02 (   9.18%)
   displ. norm   :     0.0927030 α      lambda       -0.2312589E-02
   maximum displ.:     0.0661875 α      in ANC's #2, #3, #6, ...

........................................................................
.............................. CYCLE    5 ..............................
........................................................................
   1    -10.2734223 -0.102734E+02  0.608E-01    1.85       0.0  T
   2    -10.2679637  0.545865E-02  0.105E+00    1.89       1.0  T
   3    -10.2710262 -0.306250E-02  0.814E-01    1.86       1.0  T
   4    -10.2603411  0.106851E-01  0.131E+00    1.78       1.0  T
   5    -10.2735387 -0.131977E-01  0.116E-01    1.86       1.0  T
   6    -10.2735607 -0.219767E-04  0.860E-02    1.85       1.0  T
   7    -10.2735824 -0.216773E-04  0.603E-02    1.86       1.0  T
   8    -10.2735909 -0.852719E-05  0.311E-02    1.86       1.4  T
   9    -10.2735950 -0.409758E-05  0.773E-03    1.86       5.8  T
  10    -10.2735953 -0.324280E-06  0.407E-03    1.86      11.0  T
  11    -10.2735954 -0.690472E-07  0.598E-04    1.86      74.8  T
  12    -10.2735954 -0.125873E-08  0.152E-04    1.86     294.4  T
     SCC iter.                  ...        0 min,  0.001 sec
     gradient                   ...        0 min,  0.001 sec
 * total energy  :   -10.1212478 Eh     change       -0.2216653E-02 Eh
   gradient norm :     0.0261525 Eh/α   predicted    -0.1166233E-02 ( -47.39%)
   displ. norm   :     0.7564222 α      lambda       -0.1699141E-01
   maximum displ.:     0.5772098 α      in ANC's #2, #3, #6, ...

........................................................................
.............................. CYCLE    6 ..............................
........................................................................
   1    -10.2664427 -0.102664E+02  0.364E+00    1.55       0.0  T
   2    -10.2209241  0.455186E-01  0.293E+00    1.42       1.0  T
   3    -10.1012248  0.119699E+00  0.445E+00    1.29       1.0  T
   4    -10.2447750 -0.143550E+00  0.211E+00    1.56       1.0  T
   5    -10.2733682 -0.285932E-01  0.584E-01    1.61       1.0  T
   6    -10.2728834  0.484812E-03  0.482E-01    1.60       1.0  T
   7    -10.2730364 -0.153083E-03  0.453E-01    1.61       1.0  T
   8    -10.2733093 -0.272894E-03  0.328E-01    1.61       1.0  T
   9    -10.2735523 -0.243001E-03  0.125E-01    1.61       1.0  T
  10    -10.2735675 -0.151342E-04  0.105E-01    1.61       1.0  T
  11    -10.2736098 -0.423600E-04  0.523E-03    1.61       8.6  T
  12    -10.2736099 -0.659933E-07  0.165E-03    1.61      27.1  T
  13    -10.2736099 -0.793479E-08  0.178E-04    1.61     250.8  T
  14    -10.2736099  0.360600E-10  0.172E-04    1.61     259.7  T
     SCC iter.                  ...        0 min,  0.002 sec
     gradient                   ...        0 min,  0.002 sec
 * total energy  :   -10.1355986 Eh     change       -0.1435077E-01 Eh
   gradient norm :     0.1070518 Eh/α   predicted    -0.1335670E-01 (  -6.93%)
   displ. norm   :     0.5577150 α      lambda       -0.1329578E-01
   maximum displ.:     0.3870160 α      in ANC's #2, #3, #5, ...

........................................................................
.............................. CYCLE    7 ..............................
........................................................................
   1    -10.2636937 -0.102637E+02  0.147E+00    1.77       0.0  T
   2    -10.2605722  0.312146E-02  0.104E+00    1.71       1.0  T
   3    -10.2201749  0.403973E-01  0.202E+00    1.66       1.0  T
   4    -10.2637686 -0.435937E-01  0.217E-01    1.75       1.0  T
   5    -10.2640120 -0.243445E-03  0.148E-01    1.77       1.0  T
   6    -10.2641119 -0.998288E-04  0.707E-02    1.76       1.0  T
   7    -10.2641065  0.536656E-05  0.579E-02    1.76       1.0  T
   8    -10.2641251 -0.186416E-04  0.162E-02    1.77       2.8  T
   9    -10.2641268 -0.170086E-05  0.530E-03    1.77       8.4  T
  10    -10.2641269 -0.102383E-06  0.935E-04    1.77      47.8  T
  11    -10.2641269 -0.245956E-08  0.261E-04    1.77     171.4  T
     SCC iter.                  ...        0 min,  0.001 sec
     gradient                   ...        0 min,  0.001 sec
 * total energy  :   -10.1388473 Eh     change       -0.3248792E-02 Eh
   gradient norm :     0.1536890 Eh/α   predicted    -0.8715685E-02 ( 168.27%)
   displ. norm   :     0.1954641 α      lambda       -0.2424053E-01
   maximum displ.:     0.1379594 α      in ANC's #2, #8, #5, ...

........................................................................
.............................. CYCLE    8 ..............................
........................................................................
   1    -10.2967707 -0.102968E+02  0.120E+00    1.88       0.0  T
   2    -10.2886102  0.816051E-02  0.123E+00    1.90       1.0  T
   3    -10.2910846 -0.247439E-02  0.978E-01    1.84       1.0  T
   4    -10.2892498  0.183473E-02  0.110E+00    1.97       1.0  T
   5    -10.2988693 -0.961952E-02  0.181E-01    1.89       1.0  T
   6    -10.2990030 -0.133607E-03  0.912E-02    1.90       1.0  T
   7    -10.2990284 -0.254458E-04  0.665E-02    1.89       1.0  T
   8    -10.2990484 -0.199695E-04  0.204E-02    1.89       2.2  T
   9    -10.2990501 -0.175499E-05  0.267E-03    1.89      16.8  T
  10    -10.2990501 -0.679897E-08  0.104E-03    1.89      42.9  T
  11    -10.2990501 -0.947226E-09  0.131E-04    1.89     341.2  T
  12    -10.2990501 -0.569553E-10  0.213E-05    1.89    2102.3  T
     SCC iter.                  ...        0 min,  0.001 sec
     gradient                   ...        0 min,  0.001 sec
 * total energy  :   -10.1581993 Eh     change       -0.1935196E-01 Eh
   gradient norm :     0.1017081 Eh/α   predicted    -0.1258334E-01 ( -34.98%)
   displ. norm   :     0.3389477 α      lambda       -0.2608113E-01
   maximum displ.:     0.2309472 α      in ANC's #5, #8, #9, ...

........................................................................
.............................. CYCLE    9 ..............................
........................................................................
   1    -10.3321606 -0.103322E+02  0.199E+00    1.90       0.0  T
   2    -10.2480522  0.841084E-01  0.334E+00    2.11       1.0  T
   3    -10.3191148 -0.710627E-01  0.170E+00    1.86       1.0  T
   4    -10.3327136 -0.135988E-01  0.114E+00    1.94       1.0  T
   5    -10.3383033 -0.558967E-02  0.461E-01    1.93       1.0  T
   6    -10.3386787 -0.375405E-03  0.314E-01    1.91       1.0  T
   7    -10.3384823  0.196354E-03  0.287E-01    1.91       1.0  T
   8    -10.3389993 -0.516976E-03  0.860E-02    1.92       1.0  T
   9    -10.3390449 -0.456145E-04  0.370E-02    1.92       1.2  T
  10    -10.3390459 -0.990982E-06  0.380E-02    1.92       1.2  T
  11    -10.3390486 -0.266019E-05  0.238E-03    1.92      18.8  T
  12    -10.3390486 -0.141318E-08  0.186E-03    1.92      24.0  T
  13    -10.3390486 -0.133276E-08  0.106E-04    1.92     420.0  T
  14    -10.3390486  0.179199E-10  0.113E-04    1.92     394.5  T
     SCC iter.                  ...        0 min,  0.002 sec
     gradient                   ...        0 min,  0.001 sec
 * total energy  :   -10.1707080 Eh     change       -0.1250870E-01 Eh
   gradient norm :     0.0630947 Eh/α   predicted    -0.1453874E-01 (  16.23%)
   displ. norm   :     0.1944431 α      lambda       -0.6014020E-02
   maximum displ.:     0.1358402 α      in ANC's #2, #3, #5, ...

........................................................................
.............................. CYCLE   10 ..............................
........................................................................
   1    -10.3267095 -0.103267E+02  0.840E-01    1.81       0.0  T
   2    -10.2911649  0.355445E-01  0.202E+00    1.75       1.0  T
   3    -10.3254107 -0.342458E-01  0.697E-01    1.82       1.0  T
   4    -10.3267796 -0.136884E-02  0.505E-01    1.80       1.0  T
   5    -10.3285248 -0.174526E-02  0.124E-01    1.80       1.0  T
   6    -10.3285424 -0.175663E-04  0.113E-01    1.80       1.0  T
   7    -10.3285436 -0.118276E-05  0.117E-01    1.80       1.0  T
   8    -10.3285741 -0.304594E-04  0.415E-02    1.80       1.1  T
   9    -10.3285767 -0.262607E-05  0.285E-02    1.80       1.6  T
  10    -10.3285787 -0.198486E-05  0.138E-02    1.80       3.2  T
  11    -10.3285796 -0.945004E-06  0.260E-03    1.80      17.2  T
  12    -10.3285796 -0.144965E-07  0.186E-04    1.80     240.9  T
  13    -10.3285796 -0.208177E-09  0.205E-05    1.80    2176.5  T
     SCC iter.                  ...        0 min,  0.002 sec
     gradient                   ...        0 min,  0.001 sec
 * total energy  :   -10.1741613 Eh     change       -0.3453263E-02 Eh
   gradient norm :     0.0590866 Eh/α   predicted    -0.3120698E-02 (  -9.63%)
   displ. norm   :     0.1422718 α      lambda       -0.5848090E-02
   maximum displ.:     0.0934642 α      in ANC's #2, #6, #9, ...

........................................................................
.............................. CYCLE   11 ..............................
........................................................................
   1    -10.3329268 -0.103329E+02  0.874E-01    1.67       0.0  T
   2    -10.3288262  0.410061E-02  0.772E-01    1.70       1.0  T
   3    -10.3140891  0.147371E-01  0.145E+00    1.64       1.0  T
   4    -10.3316416 -0.175525E-01  0.468E-01    1.69       1.0  T
   5    -10.3331734 -0.153179E-02  0.130E-01    1.68       1.0  T
   6    -10.3332262 -0.527752E-04  0.666E-02    1.68       1.0  T
   7    -10.3332217  0.448007E-05  0.658E-02    1.68       1.0  T
   8    -10.3332242 -0.247600E-05  0.421E-02    1.68       1.1  T
   9    -10.3332300 -0.584410E-05  0.489E-03    1.68       9.1  T
  10    -10.3332300 -0.840082E-08  0.336E-03    1.68      13.3  T
  11    -10.3332301 -0.585162E-07  0.161E-04    1.68     278.3  T
  12    -10.3332301 -0.658087E-10  0.278E-05    1.68    1611.2  T
     SCC iter.                  ...        0 min,  0.001 sec
     gradient                   ...        0 min,  0.001 sec
 * total energy  :   -10.1789294 Eh     change       -0.4768119E-02 Eh
   gradient norm :     0.0477608 Eh/α   predicted    -0.2983231E-02 ( -37.43%)
   displ. norm   :     0.3109283 α      lambda       -0.1011556E-01
   maximum displ.:     0.2065085 α      in ANC's #2, #6, #9, ...

........................................................................
.............................. CYCLE   12 ..............................
........................................................................
   1    -10.3440494 -0.103440E+02  0.151E+00    1.45       0.0  T
   2    -10.3435814  0.468017E-03  0.964E-01    1.47       1.0  T
   3    -10.3035248  0.400567E-01  0.197E+00    1.38       1.0  T
   4    -10.3425637 -0.390389E-01  0.440E-01    1.48       1.0  T
   5    -10.3440653 -0.150161E-02  0.141E-01    1.45       1.0  T
   6    -10.3442211 -0.155775E-03  0.370E-02    1.46       1.2  T
   7    -10.3442210  0.294508E-07  0.268E-02    1.46       1.7  T
   8    -10.3442203  0.780210E-06  0.190E-02    1.46       2.4  T
   9    -10.3442235 -0.319654E-05  0.209E-03    1.46      21.4  T
  10    -10.3442235 -0.893846E-08  0.447E-04    1.46     100.1  T
  11    -10.3442235 -0.686088E-09  0.192E-04    1.46     232.4  T
     SCC iter.                  ...        0 min,  0.001 sec
     gradient                   ...        0 min,  0.001 sec
 * total energy  :   -10.1848328 Eh     change       -0.5903437E-02 Eh
   gradient norm :     0.0796169 Eh/α   predicted    -0.5546746E-02 (  -6.04%)
   displ. norm   :     0.1452193 α      lambda       -0.3657458E-02
   maximum displ.:     0.0841909 α      in ANC's #2, #8, #6, ...

........................................................................
.............................. CYCLE   13 ..............................
........................................................................
   1    -10.3503309 -0.103503E+02  0.672E-01    1.40       0.0  T
   2    -10.3440556  0.627531E-02  0.875E-01    1.49       1.0  T
   3    -10.3478254 -0.376981E-02  0.625E-01    1.39       1.0  T
   4    -10.3505629 -0.273754E-02  0.206E-01    1.42       1.0  T
   5    -10.3507943 -0.231399E-03  0.942E-02    1.42       1.0  T
   6    -10.3508604 -0.660657E-04  0.269E-02    1.42       1.7  T
   7    -10.3508613 -0.943983E-06  0.171E-02    1.42       2.6  T
   8    -10.3508621 -0.775486E-06  0.104E-02    1.42       4.3  T
   9    -10.3508631 -0.100476E-05  0.128E-03    1.42      34.9  T
  10    -10.3508631 -0.636899E-08  0.152E-04    1.42     294.8  T
  11    -10.3508631 -0.107214E-09  0.499E-05    1.42     895.4  T
     SCC iter.                  ...        0 min,  0.001 sec
     gradient                   ...        0 min,  0.001 sec
 * total energy  :   -10.1880371 Eh     change       -0.3204312E-02 Eh
   gradient norm :     0.0746940 Eh/α   predicted    -0.1867292E-02 ( -41.73%)
   displ. norm   :     0.3653655 α      lambda       -0.1177876E-01
   maximum displ.:     0.2583156 α      in ANC's #8, #2, #6, ...

........................................................................
.............................. CYCLE   14 ..............................
........................................................................
   1    -10.3722858 -0.103723E+02  0.155E+00    1.34       0.0  T
   2    -10.3355269  0.367589E-01  0.208E+00    1.51       1.0  T
   3    -10.3653646 -0.298377E-01  0.122E+00    1.29       1.0  T
   4    -10.3745947 -0.923011E-02  0.433E-01    1.35       1.0  T
   5    -10.3752686 -0.673875E-03  0.169E-01    1.35       1.0  T
   6    -10.3755196 -0.251019E-03  0.750E-02    1.35       1.0  T
   7    -10.3755366 -0.169947E-04  0.437E-02    1.35       1.0  T
   8    -10.3755286  0.805234E-05  0.430E-02    1.35       1.0  T
   9    -10.3755447 -0.160823E-04  0.324E-03    1.35      13.8  T
  10    -10.3755447 -0.364770E-07  0.844E-04    1.35      53.0  T
  11    -10.3755447 -0.305255E-08  0.141E-04    1.35     316.3  T
     SCC iter.                  ...        0 min,  0.001 sec
     gradient                   ...        0 min,  0.001 sec
 * total energy  :   -10.1956783 Eh     change       -0.7641117E-02 Eh
   gradient norm :     0.0217363 Eh/α   predicted    -0.6675562E-02 ( -12.64%)
   displ. norm   :     0.3264822 α      lambda       -0.3665166E-02
   maximum displ.:     0.2248451 α      in ANC's #2, #8, #3, ...

........................................................................
.............................. CYCLE   15 ..............................
........................................................................
   1    -10.3586318 -0.103586E+02  0.102E+00    1.16       0.0  T
   2    -10.3507162  0.791566E-02  0.108E+00    1.14       1.0  T
   3    -10.3418228  0.889333E-02  0.124E+00    1.18       1.0  T
   4    -10.3584730 -0.166501E-01  0.326E-01    1.15       1.0  T
   5    -10.3591042 -0.631208E-03  0.977E-02    1.15       1.0  T
   6    -10.3591794 -0.751827E-04  0.303E-02    1.15       1.5  T
   7    -10.3591805 -0.112002E-05  0.196E-02    1.15       2.3  T
   8    -10.3591785  0.192928E-05  0.165E-02    1.15       2.7  T
   9    -10.3591809 -0.236907E-05  0.126E-03    1.15      35.4  T
  10    -10.3591809 -0.269349E-09  0.234E-04    1.15     191.5  T
  11    -10.3591809 -0.934754E-10  0.854E-05    1.15     523.4  T
     SCC iter.                  ...        0 min,  0.001 sec
     gradient                   ...        0 min,  0.001 sec
 * total energy  :   -10.1961793 Eh     change       -0.5010040E-03 Eh
   gradient norm :     0.0572711 Eh/α   predicted    -0.2027920E-02 ( 304.77%)
   displ. norm   :     0.0798827 α      lambda       -0.3172902E-02
   maximum displ.:     0.0519986 α      in ANC's #5, #2, #3, ...

........................................................................
.............................. CYCLE   16 ..............................
........................................................................
   1    -10.3785797 -0.103786E+02  0.398E-01    1.23       0.0  T
   2    -10.3717517  0.682798E-02  0.817E-01    1.26       1.0  T
   3    -10.3788796 -0.712790E-02  0.214E-01    1.23       1.0  T
   4    -10.3789684 -0.888575E-04  0.555E-02    1.23       1.0  T
   5    -10.3789873 -0.189155E-04  0.283E-02    1.23       1.6  T
   6    -10.3789901 -0.276127E-05  0.166E-02    1.23       2.7  T
   7    -10.3789913 -0.123340E-05  0.909E-03    1.23       4.9  T
   8    -10.3789917 -0.391850E-06  0.254E-03    1.23      17.6  T
   9    -10.3789918 -0.355932E-07  0.830E-04    1.23      53.9  T
  10    -10.3789918 -0.490080E-08  0.625E-05    1.23     715.2  T
     SCC iter.                  ...        0 min,  0.001 sec
     gradient                   ...        0 min,  0.001 sec
 * total energy  :   -10.1978739 Eh     change       -0.1694587E-02 Eh
   gradient norm :     0.0247994 Eh/α   predicted    -0.1596575E-02 (  -5.78%)
   displ. norm   :     0.0619672 α      lambda       -0.6909625E-03
   maximum displ.:     0.0434789 α      in ANC's #2, #8, #9, ...

........................................................................
.............................. CYCLE   17 ..............................
........................................................................
   1    -10.3800689 -0.103801E+02  0.254E-01    1.22       0.0  T
   2    -10.3800655  0.339313E-05  0.163E-01    1.22       1.0  T
   3    -10.3799393  0.126246E-03  0.150E-01    1.21       1.0  T
   4    -10.3800528 -0.113499E-03  0.428E-02    1.22       1.0  T
   5    -10.3800697 -0.169153E-04  0.229E-02    1.22       2.0  T
   6    -10.3800737 -0.406499E-05  0.109E-02    1.22       4.1  T
   7    -10.3800739 -0.126252E-06  0.817E-03    1.22       5.5  T
   8    -10.3800743 -0.443081E-06  0.608E-04    1.22      73.6  T
   9    -10.3800743 -0.139406E-08  0.286E-04    1.22     156.4  T
     SCC iter.                  ...        0 min,  0.001 sec
     gradient                   ...        0 min,  0.001 sec
 * total energy  :   -10.1984266 Eh     change       -0.5527241E-03 Eh
   gradient norm :     0.0165449 Eh/α   predicted    -0.3468080E-03 ( -37.25%)
   displ. norm   :     0.1601890 α      lambda       -0.1535085E-02
   maximum displ.:     0.0970397 α      in ANC's #8, #2, #9, ...

........................................................................
.............................. CYCLE   18 ..............................
........................................................................
   1    -10.3861295 -0.103861E+02  0.916E-01    1.19       0.0  T
   2    -10.3841472  0.198227E-02  0.640E-01    1.19       1.0  T
   3    -10.3510895  0.330577E-01  0.179E+00    1.24       1.0  T
   4    -10.3859383 -0.348488E-01  0.193E-01    1.18       1.0  T
   5    -10.3862416 -0.303303E-03  0.736E-02    1.18       1.0  T
   6    -10.3862762 -0.346014E-04  0.255E-02    1.18       1.8  T
   7    -10.3862753  0.966004E-06  0.256E-02    1.18       1.7  T
   8    -10.3862785 -0.327029E-05  0.141E-02    1.18       3.2  T
   9    -10.3862796 -0.109522E-05  0.880E-04    1.18      50.8  T
  10    -10.3862796 -0.459277E-10  0.377E-04    1.18     118.7  T
  11    -10.3862796 -0.250756E-09  0.317E-05    1.18    1410.7  T
     SCC iter.                  ...        0 min,  0.001 sec
     gradient                   ...        0 min,  0.001 sec
 * total energy  :   -10.1991074 Eh     change       -0.6807827E-03 Eh
   gradient norm :     0.0061366 Eh/α   predicted    -0.7872381E-03 (  15.64%)
   displ. norm   :     0.0179007 α      lambda       -0.6822005E-04
   maximum displ.:     0.0117033 α      in ANC's #6, #1, #5, ...

........................................................................
.............................. CYCLE   19 ..............................
........................................................................
   1    -10.3840641 -0.103841E+02  0.113E-01    1.16       0.0  T
   2    -10.3839953  0.687977E-04  0.966E-02    1.16       1.0  T
   3    -10.3835987  0.396606E-03  0.207E-01    1.16       1.0  T
   4    -10.3840407 -0.442040E-03  0.555E-02    1.16       1.0  T
   5    -10.3840673 -0.265793E-04  0.216E-02    1.16       2.1  T
   6    -10.3840704 -0.308814E-05  0.532E-03    1.16       8.4  T
   7    -10.3840703  0.743946E-07  0.501E-03    1.16       8.9  T
   8    -10.3840704 -0.122138E-06  0.397E-04    1.16     112.6  T
   9    -10.3840704 -0.747814E-09  0.199E-04    1.16     224.6  T
     SCC iter.                  ...        0 min,  0.001 sec
     gradient                   ...        0 min,  0.001 sec
 * total energy  :   -10.1991381 Eh     change       -0.3076279E-04 Eh
   gradient norm :     0.0032903 Eh/α   predicted    -0.3412144E-04 (  10.92%)
   displ. norm   :     0.0083317 α      lambda       -0.1781970E-04
   maximum displ.:     0.0049555 α      in ANC's #2, #1, #5, ...

........................................................................
.............................. CYCLE   20 ..............................
........................................................................
   1    -10.3844994 -0.103845E+02  0.498E-02    1.16       0.0  T
   2    -10.3844704  0.290251E-04  0.638E-02    1.16       1.0  T
   3    -10.3844814 -0.110049E-04  0.460E-02    1.16       1.0  T
   4    -10.3844836 -0.222795E-05  0.425E-02    1.16       1.1  T
   5    -10.3845011 -0.174408E-04  0.101E-02    1.16       4.4  T
   6    -10.3845017 -0.654900E-06  0.352E-03    1.16      12.7  T
   7    -10.3845018 -0.828774E-07  0.206E-03    1.16      21.7  T
   8    -10.3845018 -0.123319E-07  0.162E-04    1.16     276.4  T
   9    -10.3845018 -0.853966E-10  0.830E-05    1.16     538.6  T
     SCC iter.                  ...        0 min,  0.001 sec
     gradient                   ...        0 min,  0.001 sec
 * total energy  :   -10.1991500 Eh     change       -0.1191716E-04 Eh
   gradient norm :     0.0017636 Eh/α   predicted    -0.8909324E-05 ( -25.24%)
   displ. norm   :     0.0179787 α      lambda       -0.1565032E-04
   maximum displ.:     0.0108200 α      in ANC's #5, #8, #9, ...
 * RMSD in coord.:     1.2737244 α      energy gain  -0.1269690E+00 Eh

generating ANC from model Hessian ...
Using Lindh-Hessian (1995)
 Shifting diagonal of input Hessian by    0.0000000000000000     
 Lowest  eigenvalues of input Hessian
   -0.000000   -0.000000   -0.000000   -0.000000    0.000000    0.000000
    0.052825    0.111832    0.229248    0.372285    0.889658    1.017529
    1.212594    1.537513    2.156996
 Highest eigenvalues
    0.372285    0.889658    1.017529    1.212594    1.537513    2.156996


........................................................................
.............................. CYCLE   21 ..............................
........................................................................
   1    -10.3857500 -0.103857E+02  0.969E-02    1.14       0.0  T
   2    -10.3854059  0.344063E-03  0.182E-01    1.14       1.0  T
   3    -10.3856497 -0.243768E-03  0.106E-01    1.14       1.0  T
   4    -10.3857551 -0.105403E-03  0.567E-02    1.14       1.0  T
   5    -10.3857715 -0.164006E-04  0.110E-02    1.14       4.1  T
   6    -10.3857724 -0.924739E-06  0.581E-03    1.14       7.7  T
   7    -10.3857726 -0.187287E-06  0.329E-03    1.14      13.6  T
   8    -10.3857726 -0.406784E-07  0.643E-04    1.14      69.6  T
   9    -10.3857727 -0.164277E-08  0.191E-04    1.14     233.6  T
     SCC iter.                  ...        0 min,  0.001 sec
     gradient                   ...        0 min,  0.001 sec
 * total energy  :   -10.1991611 Eh     change       -0.1101912E-04 Eh
   gradient norm :     0.0014639 Eh/α   predicted     0.0000000E+00 (-100.00%)
   displ. norm   :     0.0054266 α      lambda       -0.3676827E-05
   maximum displ.:     0.0033090 α      in ANC's #3, #4, #1, ...

........................................................................
.............................. CYCLE   22 ..............................
........................................................................
   1    -10.3850678 -0.103851E+02  0.204E-02    1.14       0.0  T
   2    -10.3850658  0.202498E-05  0.208E-02    1.14       2.1  T
   3    -10.3850626  0.318643E-05  0.231E-02    1.14       1.9  T
   4    -10.3850617  0.850482E-06  0.229E-02    1.14       2.0  T
   5    -10.3850680 -0.629031E-05  0.374E-03    1.14      12.0  T
   6    -10.3850681 -0.766931E-07  0.145E-03    1.14      30.8  T
   7    -10.3850681 -0.493911E-08  0.122E-03    1.14      36.6  T
   8    -10.3850681 -0.802288E-08  0.654E-05    1.14     684.2  T
   9    -10.3850681 -0.831690E-11  0.313E-05    1.14    1426.6  T
     SCC iter.                  ...        0 min,  0.001 sec
     gradient                   ...        0 min,  0.002 sec
 * total energy  :   -10.1991641 Eh     change       -0.3043693E-05 Eh
   gradient norm :     0.0007362 Eh/α   predicted    -0.1838308E-05 ( -39.60%)
   displ. norm   :     0.0043242 α      lambda       -0.1139458E-05
   maximum displ.:     0.0034910 α      in ANC's #3, #1, #2, ...

   *** GEOMETRY OPTIMIZATION CONVERGED AFTER 22 ITERATIONS ***

------------------------------------------------------------------------
 total energy gain   :        -0.1269831 Eh      -79.6831 kcal/mol
 total RMSD          :         1.2751440 a0        0.6748 Å
 total power (kW/mol):       -15.1542745 (step)-3588.4448 (real)
------------------------------------------------------------------------

 ANCopt (total)                0 d,  0 h,  0 min,  0.093 sec
 optimizer setup                ...        0 min,  0.000 sec (  0.069%)
 model hessian                  ...        0 min,  0.000 sec (  0.145%)
 ANC generation                 ...        0 min,  0.000 sec (  0.125%)
 coordinate transformation      ...        0 min,  0.000 sec (  0.051%)
 single point calculation       ...        0 min,  0.091 sec ( 97.809%)
 optimization log               ...        0 min,  0.001 sec (  0.587%)
 hessian update                 ...        0 min,  0.000 sec (  0.054%)
 rational function              ...        0 min,  0.000 sec (  0.512%)

================
 final structure:
================
5
 xtb: 6.2.2 (9d81278992624c895f80dd42a50cac0aa55982e2)
C         1.94765688097777    0.02169201843307   -0.05142614982117
C         0.67697894537198    0.02787181846786   -0.06967600521085
C        -1.53929621424168   -0.11136527320099    0.31386857040954
C        -0.53826086590489   -0.77116262131636   -0.36280554212421
C        -0.54707874620318    0.83296505761643    0.17003812674670

 Bond Distances (Angstroems)
 ---------------------------
C1-C2=1.2708         C2-C1=1.2708         C2-C4=1.4836         C2-C5=1.4846         C3-C4=1.3767         C3-C5=1.3773         
C4-C2=1.4836         C4-C3=1.3767         C4-C5=1.6903         C5-C2=1.4846         C5-C3=1.3773         C5-C4=1.6903         
 C  C  Rav=1.4472 sigma=0.1309  Rmin=1.2708  Rmax=1.6903     6

 selected bond angles (degree)
 --------------------
C4-C2-C1=145.01                C5-C2-C1=145.56                C5-C2-C4= 69.43                C5-C3-C4= 75.73                
C3-C4-C2=103.91                C5-C4-C2= 55.31                C5-C4-C3= 52.15                C3-C5-C2=103.83                
C4-C5-C2= 55.26                C4-C5-C3= 52.12                

 selected dihedral angles (degree)
 ---------------------------------
C3-C4-C2-C1=160.71            C3-C4-C2-C5=340.07            C5-C4-C2-C1=180.64            C2-C4-C3-C5= 20.79            
C3-C5-C2-C1=199.27            C3-C5-C2-C4= 19.92            C4-C5-C2-C1=179.35            C2-C5-C3-C4=339.23            
C2-C5-C4-C3=155.22            C3-C5-C4-C2=204.78            
           -------------------------------------------------
          |                Final Singlepoint                |
           -------------------------------------------------

          ...................................................
          :                      SETUP                      :
          :.................................................:
          :  # basis functions                  20          :
          :  # atomic orbitals                  20          :
          :  # shells                           10          :
          :  # electrons                        20          :
          :  max. iterations                   250          :
          :  Hamiltonian                  GFN2-xTB          :
          :  restarted?                      false          :
          :  GBSA solvation                  false          :
          :  PC potential                    false          :
          :  electronic temp.          300.0000000     K    :
          :  accuracy                    1.0000000          :
          :  -> integral cutoff          0.2500000E+02      :
          :  -> integral neglect         0.1000000E-07      :
          :  -> SCF convergence          0.1000000E-05 Eh   :
          :  -> wf. convergence          0.1000000E-03 e    :
          :  Broyden damping             0.4000000          :
          ...................................................

 iter      E             dE          RMSdq      gap      omega  full diag
   1    -10.3850681 -0.103851E+02  0.575E-06    1.14       0.0  T
   2    -10.3850681  0.325073E-11  0.174E-05    1.14    2575.2  T
   3    -10.3850681 -0.339284E-11  0.361E-06    1.14   12373.0  T

   *** convergence criteria satisfied after 3 iterations ***

         #    Occupation            Energy/Eh            Energy/eV
      -------------------------------------------------------------
         1        2.0000           -0.7381022             -20.0848
       ...           ...                  ...                  ...
         5        2.0000           -0.5552755             -15.1098
         6        2.0000           -0.5457455             -14.8505
         7        2.0000           -0.4740302             -12.8990
         8        2.0000           -0.4628814             -12.5956
         9        2.0000           -0.4559732             -12.4077
        10        1.0000           -0.4205392             -11.4435
        11        1.0000           -0.4055758             -11.0363 (HOMO)
        12                         -0.3637634              -9.8985 (LUMO)
        13                         -0.3037168              -8.2646
        14                         -0.2628877              -7.1535
        15                         -0.1834103              -4.9908
        16                          0.0798517               2.1729
       ...                                ...                  ...
        20                          0.8350278              22.7223
      -------------------------------------------------------------
                  HL-Gap            0.0418125 Eh            1.1378 eV
             Fermi-level           -0.4114627 Eh          -11.1965 eV

 transition dipole moment (au) for excitation:          10          11
     X       Y       Z   
   0.0066   0.0838   0.0236  total (au/Debye):    0.087   0.222
 dE (eV)             :    0.407
 oscillator strength :  0.10755E-03

 SCC (total)                   0 d,  0 h,  0 min,  0.004 sec
 SCC setup                      ...        0 min,  0.000 sec (  1.019%)
 Dispersion                     ...        0 min,  0.000 sec (  0.429%)
 integral evaluation            ...        0 min,  0.001 sec ( 31.820%)
 zeroth order Hamiltonian       ...        0 min,  0.000 sec (  0.357%)
 iterations                     ...        0 min,  0.000 sec (  8.200%)
 molecular gradient             ...        0 min,  0.001 sec ( 33.452%)
 printout                       ...        0 min,  0.001 sec ( 24.483%)

         :::::::::::::::::::::::::::::::::::::::::::::::::::::
         ::                     SUMMARY                     ::
         :::::::::::::::::::::::::::::::::::::::::::::::::::::
         :: total energy             -10.199164099589 Eh    ::
         :: gradient norm              0.000736132850 Eh/a0 ::
         :: HOMO-LUMO gap              1.137774755341 eV    ::
         ::.................................................::
         :: SCC energy               -10.385068109280 Eh    ::
         :: -> isotropic ES           -0.011412990272 Eh    ::
         :: -> anisotropic ES          0.001531861272 Eh    ::
         :: -> anisotropic XC          0.007524595924 Eh    ::
         :: -> dispersion             -0.002948230999 Eh    ::
         :: repulsion energy           0.185904015990 Eh    ::
         :: add. restraining           0.000000000000 Eh    ::
         :::::::::::::::::::::::::::::::::::::::::::::::::::::

           ------------------------------------------------- 
          |                Numerical Hessian                |
           ------------------------------------------------- 
step length          :   0.00500
SCC accuracy         :   0.30000
Hessian scale factor :   1.00000
frozen atoms in %    :   0.00000    0
RMS gradient         :   0.00074
estimated CPU  time      0.00 min
estimated wall time      0.00 min

writing file <hessian>.

 projected vibrational frequencies (cm-1)
eigval :       -0.00    -0.00    -0.00    -0.00     0.00     0.00
eigval :      224.26   300.45   441.86   539.80   557.18   937.19
eigval :      977.62  1486.20  1712.47
           -------------------------------------------------
          |                Property Printout                |
           -------------------------------------------------

    * Orbital Energies and Occupations

         #    Occupation            Energy/Eh            Energy/eV
      -------------------------------------------------------------
         1        2.0000           -0.7381021             -20.0848
         2        2.0000           -0.6789866             -18.4762
         3        2.0000           -0.6191033             -16.8467
         4        2.0000           -0.6160673             -16.7640
         5        2.0000           -0.5552754             -15.1098
         6        2.0000           -0.5457454             -14.8505
         7        2.0000           -0.4740302             -12.8990
         8        2.0000           -0.4628814             -12.5956
         9        2.0000           -0.4559733             -12.4077
        10        1.0000           -0.4205391             -11.4435
        11        1.0000           -0.4055758             -11.0363 (HOMO)
        12                         -0.3637634              -9.8985 (LUMO)
        13                         -0.3037168              -8.2646
        14                         -0.2628877              -7.1535
        15                         -0.1834104              -4.9908
        16                          0.0798518               2.1729
        17                          0.1388624               3.7786
        18                          0.1833933               4.9904
        19                          0.4235498              11.5254
        20                          0.8350277              22.7223
      -------------------------------------------------------------
                  HL-Gap            0.0418125 Eh            1.1378 eV
             Fermi-level           -0.4114627 Eh          -11.1965 eV

     #   Z        covCN         q      C6AA      α(0)
     1   6 C      0.982    -0.107    39.334    10.534
     2   6 C      3.024     0.105    25.661     8.309
     3   6 C      2.048    -0.006    31.140     9.013
     4   6 C      2.890     0.004    27.924     8.664
     5   6 C      2.890     0.004    27.935     8.665

 Mol. C6AA /au·bohr⁶  :        755.388200
 Mol. C8AA /au·bohr⁸  :      21847.139431
 Mol. α(0) /au        :         45.186150
Molecule has the following symmetry elements: (sigma) 
It seems to be the Cs point group


Wiberg/Mayer (AO) data.
largest (>0.10) Wiberg bond orders for each atom
          total WBO             WBO to atom ...
     1  C   2.464        C    2 2.027    C    3 0.254
     2  C   3.814        C    1 2.027    C    4 0.858    C    5 0.857
     3  C   2.959        C    4 1.317    C    5 1.316    C    1 0.254
     4  C   3.048        C    3 1.317    C    2 0.858    C    5 0.780
     5  C   3.045        C    3 1.316    C    2 0.857    C    4 0.780

MOs/occ written to file <molden.input>


molecular dipole:
                 x           y           z       tot (Debye)
 q only:       -0.251       0.002      -0.009
   full:       -0.421       0.009      -0.032       1.073
molecular quadrupole (traceless):
                xx          xy          yy          xz          yz          zz
 q only:       -1.330      -0.019       0.678       0.049       0.010       0.652
  q+dip:       -1.820      -0.146       0.236       0.453      -0.503       1.584
   full:       -4.217      -0.415       0.797       1.266      -0.974       3.421

           -------------------------------------------------
          |                Geometry Summary                 |
           -------------------------------------------------

      molecular mass/u    :       60.0536795
   center of mass at/Å    :        0.0000000       0.0000002      -0.0000002
  moments of inertia/u·Å² :        0.1830824E+02   0.8828163E+02   0.1042909E+03
rotational constants/cm⁻¹ :        0.9207674E+00   0.1909529E+00   0.1616404E+00

 * 3 selected distances

     #   Z        #   Z                                     value/Å
     1   6 C      2   6 C                                 1.2708240 (min)
     3   6 C      4   6 C                                 1.3766961
     3   6 C      5   6 C                                 1.3772953 (max)

 * 1 distinct bonds (by element types)

   Z      Z             #   av. dist./Å        max./Å        min./Å
   6 C    6 C           3     1.3416052     1.3772953     1.2708240

           -------------------------------------------------
          |               Frequency Printout                |
           -------------------------------------------------
 projected vibrational frequencies (cm-1)
eigval :       -0.00    -0.00    -0.00    -0.00     0.00     0.00
eigval :      224.26   300.45   441.86   539.80   557.18   937.19
eigval :      977.62  1486.20  1712.47
 reduced masses (amu)
   1: 12.01   2: 12.01   3: 12.01   4: 12.01   5: 12.01   6: 12.01   7: 12.01   8: 12.01
   9: 12.01  10: 12.01  11: 12.01  12: 12.01  13: 12.01  14: 12.01  15: 12.01
 IR intensities (amu)
   1:  0.05   2:  0.05   3:  0.02   4:  0.07   5:  0.06   6:  0.03   7:  0.30   8:  0.19
   9:  0.14  10:  0.30  11:  1.01  12:  1.29  13:  0.55  14:  0.53  15:  1.28
 Raman intensities (amu)
   1:  0.00   2:  0.00   3:  0.00   4:  0.00   5:  0.00   6:  0.00   7:  0.00   8:  0.00
   9:  0.00  10:  0.00  11:  0.00  12:  0.00  13:  0.00  14:  0.00  15:  0.00
 output can be read by thermo (or use thermo option).
 writing <g98.out> molden fake output.
 recommended (thermochemical) frequency scaling factor: 1.0
           -------------------------------------------------
          |             Thermodynamic Functions             |
           -------------------------------------------------

cs  symmetry found (for desy threshold:  0.10E+00) used in thermo

          ...................................................
          :                      SETUP                      :
          :.................................................:
          :  # frequencies                           9      :
          :  # imaginary freq.                       0      :
          :  linear?                             false      :
          :  only rotor calc.                    false      :
          :  symmetry                               cs      :
          :  rotational number                       1      :
          :  scaling factor                  1.0000000      :
          :  rotor cutoff                   50.0000000 cm⁻¹ :
          :  imag. cutoff                  -20.0000000 cm⁻¹ :
          :.................................................:

    mode    ω/cm⁻¹     T·S(HO)/kcal·mol⁻¹    T·S(FR)/kcal·mol⁻¹   T·S(vib)
   ------------------------------------------------------------------------
       1    224.26    -0.00000 ( 99.75%)     0.01322 (  0.25%)     0.00003
   ------------------------------------------------------------------------

   temp. (K)  partition function   enthalpy   heat capacity  entropy
                                   cal/mol     cal/K/mol   cal/K/mol   J/K/mol
 298.15  VIB   2.65                 1060.369      8.109      5.496
         ROT  0.314E+05              888.752      2.981     23.556
         INT  0.832E+05             1949.122     11.090     29.051
         TR   0.450E+27             1481.254      4.968     38.181
         TOT                        3430.3755    16.0582    67.2321   281.2992

   temp. (K)  partition function   enthalpy   heat capacity  entropy
                                   cal/mol     cal/K/mol   cal/K/mol   J/K/mol
 120.00  VIB   1.11                   81.629      2.395      0.893
         ROT  0.801E+04              357.707      2.981     20.843
         INT  0.890E+04              439.336      5.376     21.736
         TR   0.115E+27              596.178      4.968     33.661
         TOT                        1035.5136    10.3440    55.3969   231.7806

   temp. (K)  partition function   enthalpy   heat capacity  entropy
                                   cal/mol     cal/K/mol   cal/K/mol   J/K/mol
 100.00  VIB   1.06                   41.429      1.630      0.528
         ROT  0.609E+04              298.089      2.981     20.299
         INT  0.645E+04              339.518      4.611     20.828
         TR   0.875E+26              496.815      4.968     32.756
         TOT                         836.3330     9.5789    53.5836   224.1938

   temp. (K)  partition function   enthalpy   heat capacity  entropy
                                   cal/mol     cal/K/mol   cal/K/mol   J/K/mol
  80.00  VIB   1.02                   16.060      0.922      0.248
         ROT  0.436E+04              238.471      2.981     19.634
         INT  0.446E+04              254.532      3.903     19.882
         TR   0.626E+26              397.452      4.968     31.648
         TOT                         651.9837     8.8709    51.5300   215.6014

   temp. (K)  partition function   enthalpy   heat capacity  entropy
                                   cal/mol     cal/K/mol   cal/K/mol   J/K/mol
  60.00  VIB   1.01                    3.652      0.352      0.073
         ROT  0.283E+04              178.853      2.981     18.777
         INT  0.285E+04              182.505      3.332     18.849
         TR   0.406E+26              298.089      4.968     30.219
         TOT                         480.5941     8.3006    49.0686   205.3031

   temp. (K)  partition function   enthalpy   heat capacity  entropy
                                   cal/mol     cal/K/mol   cal/K/mol   J/K/mol
  40.00  VIB   1.00                    0.219      0.045      0.006
         ROT  0.154E+04              119.236      2.981     17.568
         INT  0.154E+04              119.454      3.026     17.574
         TR   0.221E+26              198.726      4.968     28.206
         TOT                         318.1805     7.9944    45.7798   191.5427

   temp. (K)  partition function   enthalpy   heat capacity  entropy
                                   cal/mol     cal/K/mol   cal/K/mol   J/K/mol
  20.00  VIB   1.00                    0.000      0.000     -0.003
         ROT   545.                   59.618      2.981     15.502
         INT   545.                   59.618      2.981     15.499
         TR   0.782E+25               99.363      4.968     24.764
         TOT                         158.9809     7.9491    40.2631   168.4607

   temp. (K)  partition function   enthalpy   heat capacity  entropy
                                   cal/mol     cal/K/mol   cal/K/mol   J/K/mol
  10.00  VIB   1.00                    0.000      0.000     -0.005
         ROT   193.                   29.809      2.981     13.436
         INT   193.                   29.809      2.981     13.430
         TR   0.277E+25               49.681      4.968     21.322
         TOT                          79.4904     7.9490    34.7524   145.4042

       T/K    H(0)-H(T)+PV         H(T)/Eh          T*S/Eh         G(T)/Eh
   ------------------------------------------------------------------------
    298.15    0.546665E-02    0.218172E-01    0.319441E-01   -0.101270E-01
    120.00    0.165020E-02    0.180007E-01    0.105937E-01    0.740703E-02
    100.00    0.133278E-02    0.176833E-01    0.853909E-02    0.914419E-02
     80.00    0.103900E-02    0.173895E-01    0.656946E-02    0.108200E-01
     60.00    0.765875E-03    0.171164E-01    0.469175E-02    0.124246E-01
     40.00    0.507053E-03    0.168576E-01    0.291819E-02    0.139394E-01
     20.00    0.253352E-03    0.166039E-01    0.128327E-02    0.153206E-01
     10.00    0.126676E-03    0.164772E-01    0.553815E-03    0.159234E-01 (used)
   ------------------------------------------------------------------------

         :::::::::::::::::::::::::::::::::::::::::::::::::::::
         ::                  THERMODYNAMIC                  ::
         :::::::::::::::::::::::::::::::::::::::::::::::::::::
         :: total free energy         -10.183240734643 Eh   ::
         ::.................................................::
         :: total energy              -10.199164099130 Eh   ::
         :: zero point energy           0.016350503874 Eh   ::
         :: G(RRHO) w/o ZPVE           -0.000427139387 Eh   ::
         :: G(RRHO) contrib.            0.015923364487 Eh   ::
         :::::::::::::::::::::::::::::::::::::::::::::::::::::

optimized geometry written to: xtbopt.xyz


           -------------------------------------------------
          | TOTAL ENERGY              -10.199164099130 Eh   |
          | TOTAL ENTHALPY            -10.182686919241 Eh   |
          | TOTAL FREE ENERGY         -10.183240734643 Eh   |
          | GRADIENT NORM               0.000736107192 Eh/α |
          | HOMO-LUMO GAP               1.137775461386 eV   |
           -------------------------------------------------

------------------------------------------------------------------------
 * finished run on 2020/05/12 at 11:44:37.875     
------------------------------------------------------------------------
 total:
 * wall-time:     0 d,  0 h,  0 min,  0.232 sec
 *  cpu-time:     0 d,  0 h,  0 min,  0.232 sec
 * ratio c/w:     0.998 speedup
 SCF:
 * wall-time:     0 d,  0 h,  0 min,  0.007 sec
 *  cpu-time:     0 d,  0 h,  0 min,  0.006 sec
 * ratio c/w:     0.999 speedup
 ANC optimizer:
 * wall-time:     0 d,  0 h,  0 min,  0.098 sec
 *  cpu-time:     0 d,  0 h,  0 min,  0.098 sec
 * ratio c/w:     0.999 speedup
 numerical hessian:
 * wall-time:     0 d,  0 h,  0 min,  0.112 sec
 *  cpu-time:     0 d,  0 h,  0 min,  0.111 sec
 * ratio c/w:     0.997 speedup

