3
 energy: -4.477142626115 gnorm: 0.286661819089 xtb: 6.2.2 (9d81278992624c895f80dd42a50cac0aa55982e2)
C        -0.19183300000000    0.47982400000000    0.00000000000000
C         1.17151000000000   -0.17857700000000    0.00000000000000
H        -0.97967700000000   -0.30124700000000    0.00000000000000
3
 energy: -4.554330437445 gnorm: 0.142044088730 xtb: 6.2.2 (9d81278992624c895f80dd42a50cac0aa55982e2)
C        -0.10199391775814    0.39485488075328    0.00000000000000
C         1.07219667669824   -0.12050192460204    0.00000000000000
H        -0.97020275894010   -0.27435295615124    0.00000000000000
3
 energy: -4.535234557030 gnorm: 0.498821149859 xtb: 6.2.2 (9d81278992624c895f80dd42a50cac0aa55982e2)
C        -0.01382885149450    0.26229805926021    0.00000000000000
C         1.02830233570954   -0.04244606328691    0.00000000000000
H        -1.01447348421503   -0.21985199597330    0.00000000000000
3
 energy: -4.571491764196 gnorm: 0.050528609180 xtb: 6.2.2 (9d81278992624c895f80dd42a50cac0aa55982e2)
C        -0.05873348591833    0.24698511117080    0.00000000000000
C         1.12522340766232   -0.04761538866078    0.00000000000000
H        -1.06648992174400   -0.19936972251002    0.00000000000000
3
 energy: -4.573952482136 gnorm: 0.035674001343 xtb: 6.2.2 (9d81278992624c895f80dd42a50cac0aa55982e2)
C        -0.05565793916704    0.20464226654947    0.00000000000000
C         1.13283364158996   -0.03055721387155    0.00000000000000
H        -1.07717570242292   -0.17408505267792    0.00000000000000
3
 energy: -4.576612096794 gnorm: 0.014810360920 xtb: 6.2.2 (9d81278992624c895f80dd42a50cac0aa55982e2)
C        -0.05618342560801    0.13035544748749    0.00000000000000
C         1.13522417195081   -0.00340512118203    0.00000000000000
H        -1.07904074634280   -0.12695032630547    0.00000000000000
3
 energy: -4.576634548689 gnorm: 0.039974279023 xtb: 6.2.2 (9d81278992624c895f80dd42a50cac0aa55982e2)
C        -0.03921121517886    0.03383374746381    0.00000000000000
C         1.16739551190032    0.03994164591780    0.00000000000000
H        -1.12818429672146   -0.07377539338161    0.00000000000000
3
 energy: -4.577651227823 gnorm: 0.005245210089 xtb: 6.2.2 (9d81278992624c895f80dd42a50cac0aa55982e2)
C        -0.04699081278871    0.05915466696495    0.00000000000000
C         1.14665564405892    0.02666083296370    0.00000000000000
H        -1.09966483127021   -0.08581549992865    0.00000000000000
3
 energy: -4.577806304314 gnorm: 0.002834756161 xtb: 6.2.2 (9d81278992624c895f80dd42a50cac0aa55982e2)
C        -0.04621049909596    0.03684727861472    0.00000000000000
C         1.14671750889468    0.03511747175108    0.00000000000000
H        -1.10050700979872   -0.07196475036580    0.00000000000000
3
 energy: -4.577897219517 gnorm: 0.003041520962 xtb: 6.2.2 (9d81278992624c895f80dd42a50cac0aa55982e2)
C        -0.04420397552547    0.00364559442433    0.00000000000000
C         1.14797878523262    0.04807762157506    0.00000000000000
H        -1.10377480970715   -0.05172321599939    0.00000000000000
3
 energy: -4.577904177940 gnorm: 0.000265771532 xtb: 6.2.2 (9d81278992624c895f80dd42a50cac0aa55982e2)
C        -0.04435970429128   -0.00024918935973    0.00000000000000
C         1.14661670965752    0.04936982025511    0.00000000000000
H        -1.10225700536623   -0.04912063089538    0.00000000000000
3
 energy: -4.577904319725 gnorm: 0.000084712040 xtb: 6.2.2 (9d81278992624c895f80dd42a50cac0aa55982e2)
C        -0.04421300576594   -0.00283884296471    0.00000000000000
C         1.14650614880587    0.05036520676450    0.00000000000000
H        -1.10229314303993   -0.04752636379978    0.00000000000000
