      -----------------------------------------------------------      
     |                   =====================                   |     
     |                           x T B                           |     
     |                   =====================                   |     
     |                         S. Grimme                         |     
     |          Mulliken Center for Theoretical Chemistry        |     
     |                    University of Bonn                     |     
      -----------------------------------------------------------      

   * xtb version 6.2.2 (9d81278992624c895f80dd42a50cac0aa55982e2) compiled by '@Darwin' on 04/03/2020

   xtb is free software: you can redistribute it and/or modify it under
   the terms of the GNU Lesser General Public License as published by
   the Free Software Foundation, either version 3 of the License, or
   (at your option) any later version.
   
   xtb is distributed in the hope that it will be useful,
   but WITHOUT ANY WARRANTY; without even the implied warranty of
   MERCHANTABILITY or FITNESS FOR A PARTICULAR PURPOSE.  See the
   GNU Lesser General Public License for more details.
   
   Cite this work as:
   * S. Grimme, C. Bannwarth, P. Shushkov, J. Chem. Theory Comput., 2017,
     13, 1989-2009. DOI: 10.1021/acs.jctc.7b00118
   * C. Bannwarth, S. Ehlert and S. Grimme., J. Chem. Theory Comput., 2019,
     15, 1652-1671. DOI: 10.1021/acs.jctc.8b01176
   * P. Pracht, E. Caldeweyher, S. Ehlert, S. Grimme, ChemRxiv, 2019, preprint.
     DOI: 10.26434/chemrxiv.8326202.v1
   
   for DFT-D4:
   * E. Caldeweyher, C. Bannwarth and S. Grimme, J. Chem. Phys., 2017,
     147, 034112. DOI: 10.1063/1.4993215
   * E. Caldeweyher, S. Ehlert, A. Hansen, H. Neugebauer, S. Spicher,
     C. Bannwarth and S. Grimme, J. Chem. Phys., 2019, 150, 154122.
     DOI: 10.1063/1.5090222
   
   for sTDA-xTB:
   * S. Grimme and C. Bannwarth, J. Chem. Phys., 2016, 145, 054103.
     DOI: 10.1063/1.4959605
   
   in the mass-spec context:
   * V. Asgeirsson, C. Bauer and S. Grimme, Chem. Sci., 2017, 8, 4879.
     DOI: 10.1039/c7sc00601b
   
   for metadynamics refer to:
   * S. Grimme, J. Chem. Theory Comput., 2019, 155, 2847-2862
     DOI: 10.1021/acs.jctc.9b00143
   
   with help from (in alphabetical order)
   C. Bannwarth, F. Bohle, G. Brandenburg, E. Caldeweyher, M. Checinski,
   S. Dohm, S. Ehlert, S. Ehrlich, F. März, H. Neugebauer, J. Pisarek,
   P. Pracht, P. Shushkov, and S. Spicher.
   
 * started run on 2020/05/12 at 11:44:43.746     

           -------------------------------------------------
          |                Calculation Setup                |
           -------------------------------------------------

          program call               : xtb --input H1C2_0_S_1.input H1C2_0_S_1.xyz --ohess --molden --namespace H1C2_0_S_1 output.out
          calculation namespace      : H1C2_0_S_1
          coordinate file            : H1C2_0_S_1.xyz
          number of atoms            :                     3
          number of electrons        :                     9
          charge                     :                     0
          spin                       :                   0.5
          first test random number   :      0.49564026402175

   ID    Z sym.   atoms
    1    6 C      1, 2
    2    1 H      3

           -------------------------------------------------
          |                 G F N 2 - x T B                 |
           -------------------------------------------------

        Reference                      10.1021/acs.jctc.8b01176
      * Hamiltonian:
        H0-scaling (s, p, d)           1.850000    2.230000    2.230000
        zeta-weighting                 0.500000
      * Dispersion:
        s8                             2.700000
        a1                             0.520000
        a2                             5.000000
        s9                             5.000000
      * Repulsion:
        kExp                           1.500000    1.000000
        rExp                           1.000000
      * Coulomb:
        alpha                          2.000000
        third order                    shell-resolved
        anisotropic                    true
        a3                             3.000000
        a5                             4.000000
        cn-shift                       1.200000
        cn-exp                         4.000000
        max-rad                        5.000000


          ...................................................
          :                      SETUP                      :
          :.................................................:
          :  # basis functions                   9          :
          :  # atomic orbitals                   9          :
          :  # shells                            5          :
          :  # electrons                         9          :
          :  max. iterations                   250          :
          :  Hamiltonian                  GFN2-xTB          :
          :  restarted?                      false          :
          :  GBSA solvation                  false          :
          :  PC potential                    false          :
          :  electronic temp.          300.0000000     K    :
          :  accuracy                    1.0000000          :
          :  -> integral cutoff          0.2500000E+02      :
          :  -> integral neglect         0.1000000E-07      :
          :  -> SCF convergence          0.1000000E-05 Eh   :
          :  -> wf. convergence          0.1000000E-03 e    :
          :  Broyden damping             0.4000000          :
          ...................................................

 iter      E             dE          RMSdq      gap      omega  full diag
   1     -4.4512126 -0.445121E+01  0.107E+01    2.35       0.0  T
   2     -3.9866089  0.464604E+00  0.118E+01    2.48       1.0  T
   3     -4.0506574 -0.640484E-01  0.102E+01    2.58       1.0  T
   4     -4.5042653 -0.453608E+00  0.182E+00    2.28       1.0  T
   5     -4.5062595 -0.199425E-02  0.101E+00    2.30       1.0  T
   6     -4.5049104  0.134907E-02  0.627E-01    2.33       1.0  T
   7     -4.5057364 -0.825990E-03  0.381E-01    2.31       1.0  T
   8     -4.5064511 -0.714702E-03  0.298E-02    2.33       1.9  T
   9     -4.5064508  0.372692E-06  0.265E-02    2.33       2.2  T
  10     -4.5064515 -0.766301E-06  0.836E-03    2.33       6.9  T
  11     -4.5064519 -0.327597E-06  0.162E-03    2.33      35.6  T
  12     -4.5064519 -0.100709E-07  0.150E-04    2.33     384.3  T
  13     -4.5064519 -0.408367E-10  0.994E-05    2.33     580.8  T

   *** convergence criteria satisfied after 13 iterations ***

         #    Occupation            Energy/Eh            Energy/eV
      -------------------------------------------------------------
         1        2.0000           -0.6403643             -17.4252
         2        2.0000           -0.5588881             -15.2081
         3        2.0000           -0.4748714             -12.9219
         4        1.9926           -0.4328518             -11.7785
         5        1.0074           -0.4235486             -11.5253 (HOMO)
         6                         -0.3380912              -9.1999 (LUMO)
         7                         -0.2979644              -8.1080
         8                          0.0959750               2.6116
         9                          0.1359211               3.6986
      -------------------------------------------------------------
                  HL-Gap            0.0854574 Eh            2.3254 eV
             Fermi-level           -0.4045100 Eh          -11.0073 eV

 SCC (total)                   0 d,  0 h,  0 min,  0.001 sec
 SCC setup                      ...        0 min,  0.000 sec (  5.571%)
 Dispersion                     ...        0 min,  0.000 sec (  0.694%)
 integral evaluation            ...        0 min,  0.000 sec ( 22.665%)
 zeroth order Hamiltonian       ...        0 min,  0.000 sec (  0.628%)
 iterations                     ...        0 min,  0.001 sec ( 47.495%)
 molecular gradient             ...        0 min,  0.000 sec ( 18.912%)
 printout                       ...        0 min,  0.000 sec (  3.306%)

         :::::::::::::::::::::::::::::::::::::::::::::::::::::
         ::                     SUMMARY                     ::
         :::::::::::::::::::::::::::::::::::::::::::::::::::::
         :: total energy              -4.477142626016 Eh    ::
         :: gradient norm              0.286662183270 Eh/a0 ::
         :: HOMO-LUMO gap              2.325414996112 eV    ::
         ::.................................................::
         :: SCC energy                -4.506451865196 Eh    ::
         :: -> isotropic ES           -0.013720853812 Eh    ::
         :: -> anisotropic ES          0.000667014591 Eh    ::
         :: -> anisotropic XC          0.007033451474 Eh    ::
         :: -> dispersion             -0.000554863125 Eh    ::
         :: repulsion energy           0.029309238787 Eh    ::
         :: add. restraining           0.000000000000 Eh    ::
         :::::::::::::::::::::::::::::::::::::::::::::::::::::

      ----------------------------------------------------------- 
     |                   =====================                   |
     |                        A N C O P T                        |
     |                   =====================                   |
     |               Approximate Normal Coordinate               |
     |                Rational Function Optimizer                |
      ----------------------------------------------------------- 

          ...................................................
          :                      SETUP                      :
          :.................................................:
          :   optimization level            normal          :
          :   max. optcycles                   200          :
          :   ANC micro-cycles                  20          :
          :   degrees of freedom                 3          :
          :.................................................:
          :   RF solver                   davidson          :
          :   write xtbopt.log                true          :
          :   linear?                        false          :
          :   energy convergence         0.5000000E-05 Eh   :
          :   grad. convergence          0.1000000E-02 Eh/α :
          :   maximium RF displ.         1.0000000          :
          :   Hlow (freq-cutoff)         0.1000000E-01      :
          :   Hmax (freq-cutoff)         5.0000000          :
          :   S6 in model hess.         20.0000000          :
          ...................................................

generating ANC from model Hessian ...
Using Lindh-Hessian (1995)
 Shifting diagonal of input Hessian by    0.0000000000000000     
 Lowest  eigenvalues of input Hessian
   -0.000000   -0.000000   -0.000000    0.000000    0.000000    0.000000
    0.082551    0.702103    0.943868
 Highest eigenvalues
    0.000000    0.000000    0.000000    0.082551    0.702103    0.943868


........................................................................
.............................. CYCLE    1 ..............................
........................................................................
   1     -4.5064519 -0.450645E+01  0.973E-06    2.33       0.0  T
   2     -4.5064519  0.575628E-11  0.343E-05    2.33    1685.5  T
   3     -4.5064519 -0.606892E-11  0.398E-06    2.33   14497.3  T
     SCC iter.                  ...        0 min,  0.000 sec
     gradient                   ...        0 min,  0.000 sec
 * total energy  :    -4.4771426 Eh     change       -0.9915002E-10 Eh
   gradient norm :     0.2866618 Eh/α   predicted     0.0000000E+00 (-100.00%)
   displ. norm   :     0.3236881 α      lambda       -0.9189192E-01
   maximum displ.:     0.2596999 α      in ANC's #2, #3, #1, ...

........................................................................
.............................. CYCLE    2 ..............................
........................................................................
   1     -4.6337640 -0.463376E+01  0.279E+00    3.54       0.0  T
   2     -4.6212825  0.124814E-01  0.254E+00    3.47       1.0  T
   3     -4.6209102  0.372323E-03  0.233E+00    3.52       1.0  T
   4     -4.6364594 -0.155492E-01  0.493E-01    3.45       1.0  T
   5     -4.6369831 -0.523708E-03  0.157E-01    3.44       1.0  T
   6     -4.6370128 -0.297174E-04  0.482E-02    3.44       1.2  T
   7     -4.6370190 -0.618814E-05  0.390E-03    3.43      14.8  T
   8     -4.6370190 -0.381583E-08  0.145E-03    3.43      39.8  T
   9     -4.6370190 -0.185311E-08  0.201E-04    3.43     287.3  T
  10     -4.6370190 -0.573017E-10  0.190E-05    3.43    3033.1  T
     SCC iter.                  ...        0 min,  0.001 sec
     gradient                   ...        0 min,  0.000 sec
 * total energy  :    -4.5543304 Eh     change       -0.7718781E-01 Eh
   gradient norm :     0.1420441 Eh/α   predicted    -0.5075990E-01 ( -34.24%)
   displ. norm   :     0.3697980 α      lambda       -0.4654715E-01
   maximum displ.:     0.2669080 α      in ANC's #2, #1, #3, ...

........................................................................
.............................. CYCLE    3 ..............................
........................................................................
   1     -4.7719308 -0.477193E+01  0.269E+00    5.63       0.0  T
   2     -4.7718419  0.888770E-04  0.170E+00    5.56       1.0  T
   3     -4.7660167  0.582522E-02  0.144E+00    5.69       1.0  T
   4     -4.7723682 -0.635151E-02  0.202E-01    5.57       1.0  T
   5     -4.7724280 -0.598351E-04  0.350E-02    5.56       1.6  T
   6     -4.7724283 -0.311255E-06  0.143E-02    5.56       4.0  T
   7     -4.7724289 -0.620142E-06  0.136E-03    5.56      42.6  T
   8     -4.7724289  0.270879E-08  0.854E-04    5.56      67.6  T
   9     -4.7724289 -0.306113E-08  0.385E-05    5.56    1497.8  T
     SCC iter.                  ...        0 min,  0.000 sec
     gradient                   ...        0 min,  0.000 sec
 * total energy  :    -4.5352346 Eh     change        0.1909588E-01 Eh
   gradient norm :     0.4949535 Eh/α   predicted    -0.2645625E-01 (-238.54%)
   displ. norm   :     0.2298684 α      lambda       -0.9121273E-01
   maximum displ.:     0.1681097 α      in ANC's #1, #3, #2, ...

........................................................................
.............................. CYCLE    4 ..............................
........................................................................
   1     -4.6846006 -0.468460E+01  0.118E+00    4.74       0.0  T
   2     -4.6834190  0.118161E-02  0.981E-01    4.82       1.0  T
   3     -4.6835550 -0.136038E-03  0.801E-01    4.74       1.0  T
   4     -4.6851315 -0.157648E-02  0.758E-02    4.80       1.0  T
   5     -4.6851363 -0.474989E-05  0.244E-02    4.80       2.4  T
   6     -4.6851374 -0.114508E-05  0.338E-03    4.80      17.1  T
   7     -4.6851374 -0.192036E-07  0.102E-03    4.80      56.7  T
   8     -4.6851374 -0.116562E-08  0.585E-05    4.80     987.3  T
   9     -4.6851374  0.696065E-11  0.647E-05    4.80     892.0  T
     SCC iter.                  ...        0 min,  0.000 sec
     gradient                   ...        0 min,  0.000 sec
 * total energy  :    -4.5714918 Eh     change       -0.3625721E-01 Eh
   gradient norm :     0.0505174 Eh/α   predicted    -0.4801618E-01 (  32.43%)
   displ. norm   :     0.1018486 α      lambda       -0.2964637E-02
   maximum displ.:     0.0754132 α      in ANC's #1, #2, #3, ...

........................................................................
.............................. CYCLE    5 ..............................
........................................................................
   1     -4.6944557 -0.469446E+01  0.515E-01    5.16       0.0  T
   2     -4.6944165  0.391813E-04  0.335E-01    5.17       1.0  T
   3     -4.6939303  0.486252E-03  0.405E-01    5.14       1.0  T
   4     -4.6944819 -0.551599E-03  0.346E-02    5.17       1.7  T
   5     -4.6944836 -0.175545E-05  0.113E-02    5.17       5.1  T
   6     -4.6944837 -0.927908E-07  0.104E-03    5.16      55.3  T
   7     -4.6944837  0.419614E-09  0.579E-04    5.16      99.7  T
   8     -4.6944837 -0.548257E-09  0.102E-05    5.16    5686.0  T
     SCC iter.                  ...        0 min,  0.000 sec
     gradient                   ...        0 min,  0.000 sec
 * total energy  :    -4.5739525 Eh     change       -0.2460718E-02 Eh
   gradient norm :     0.0356661 Eh/α   predicted    -0.1497694E-02 ( -39.14%)
   displ. norm   :     0.1740900 α      lambda       -0.4287642E-02
   maximum displ.:     0.1387356 α      in ANC's #2, #1, #3, ...

........................................................................
.............................. CYCLE    6 ..............................
........................................................................
   1     -4.7105739 -0.471057E+01  0.880E-01    5.72       0.0  T
   2     -4.7104886  0.852817E-04  0.569E-01    5.75       1.0  T
   3     -4.7093482  0.114041E-02  0.638E-01    5.68       1.0  T
   4     -4.7106500 -0.130176E-02  0.535E-02    5.74       1.1  T
   5     -4.7106539 -0.388762E-05  0.173E-02    5.73       3.3  T
   6     -4.7106542 -0.301375E-06  0.252E-03    5.73      22.9  T
   7     -4.7106542 -0.319544E-09  0.881E-04    5.73      65.5  T
   8     -4.7106542 -0.121176E-08  0.380E-05    5.73    1521.0  T
     SCC iter.                  ...        0 min,  0.000 sec
     gradient                   ...        0 min,  0.000 sec
 * total energy  :    -4.5766121 Eh     change       -0.2659615E-02 Eh
   gradient norm :     0.0146096 Eh/α   predicted    -0.2208796E-02 ( -16.95%)
   displ. norm   :     0.2518452 α      lambda       -0.2241128E-02
   maximum displ.:     0.2185791 α      in ANC's #1, #2, #3, ...

........................................................................
.............................. CYCLE    7 ..............................
........................................................................
   1     -4.6997362 -0.469974E+01  0.104E+00    6.03       0.0  T
   2     -4.6997259  0.102272E-04  0.657E-01    6.04       1.0  T
   3     -4.6989989  0.727075E-03  0.448E-01    6.00       1.0  T
   4     -4.6997555 -0.756666E-03  0.281E-02    6.03       2.1  T
   5     -4.6997561 -0.527128E-06  0.415E-03    6.03      13.9  T
   6     -4.6997561 -0.145589E-07  0.154E-03    6.03      37.5  T
   7     -4.6997561 -0.142655E-08  0.728E-04    6.03      79.3  T
   8     -4.6997561 -0.876169E-09  0.294E-05    6.03    1966.7  T
     SCC iter.                  ...        0 min,  0.000 sec
     gradient                   ...        0 min,  0.000 sec
 * total energy  :    -4.5766345 Eh     change       -0.2245189E-04 Eh
   gradient norm :     0.0398258 Eh/α   predicted    -0.1191635E-02 (5207.50%)
   displ. norm   :     0.0899660 α      lambda       -0.2049368E-02
   maximum displ.:     0.0890352 α      in ANC's #1, #2, #3, ...

........................................................................
.............................. CYCLE    8 ..............................
........................................................................
   1     -4.7137857 -0.471379E+01  0.292E-01    6.08       0.0  T
   2     -4.7137866 -0.976495E-06  0.180E-01    6.08       1.0  T
   3     -4.7137860  0.649468E-06  0.183E-02    6.08       3.2  T
   4     -4.7137864 -0.436762E-06  0.149E-02    6.08       3.9  T
   5     -4.7137870 -0.598966E-06  0.187E-03    6.08      30.9  T
   6     -4.7137870 -0.421789E-09  0.268E-04    6.08     215.2  T
   7     -4.7137870 -0.884537E-10  0.616E-05    6.08     936.9  T
     SCC iter.                  ...        0 min,  0.000 sec
     gradient                   ...        0 min,  0.000 sec
 * total energy  :    -4.5776512 Eh     change       -0.1016679E-02 Eh
   gradient norm :     0.0052438 Eh/α   predicted    -0.1032979E-02 (   1.60%)
   displ. norm   :     0.0521749 α      lambda       -0.1982959E-03
   maximum displ.:     0.0420922 α      in ANC's #2, #1, #3, ...

........................................................................
.............................. CYCLE    9 ..............................
........................................................................
   1     -4.7151971 -0.471520E+01  0.240E-01    6.14       0.0  T
   2     -4.7151966  0.487316E-06  0.149E-01    6.14       1.0  T
   3     -4.7151607  0.359043E-04  0.102E-01    6.13       1.0  T
   4     -4.7151983 -0.375645E-04  0.632E-03    6.14       9.1  T
   5     -4.7151983 -0.480544E-07  0.153E-03    6.14      37.8  T
   6     -4.7151983 -0.742602E-09  0.323E-04    6.14     178.6  T
   7     -4.7151983 -0.163949E-10  0.120E-04    6.14     479.7  T
     SCC iter.                  ...        0 min,  0.000 sec
     gradient                   ...        0 min,  0.000 sec
 * total energy  :    -4.5778063 Eh     change       -0.1550765E-03 Eh
   gradient norm :     0.0028309 Eh/α   predicted    -0.9941886E-04 ( -35.89%)
   displ. norm   :     0.0778313 α      lambda       -0.1679768E-03
   maximum displ.:     0.0603436 α      in ANC's #2, #1, #3, ...

........................................................................
.............................. CYCLE   10 ..............................
........................................................................
   1     -4.7150516 -0.471505E+01  0.353E-01    6.18       0.0  T
   2     -4.7150521 -0.414292E-06  0.219E-01    6.18       1.0  T
   3     -4.7150411  0.109490E-04  0.563E-02    6.17       1.0  T
   4     -4.7150528 -0.116935E-04  0.600E-03    6.18       9.6  T
   5     -4.7150528 -0.197898E-07  0.910E-04    6.18      63.4  T
   6     -4.7150528 -0.712213E-10  0.180E-04    6.18     320.2  T
     SCC iter.                  ...        0 min,  0.000 sec
     gradient                   ...        0 min,  0.000 sec
 * total energy  :    -4.5778972 Eh     change       -0.9091520E-04 Eh
   gradient norm :     0.0030152 Eh/α   predicted    -0.8449871E-04 (  -7.06%)
   displ. norm   :     0.0099630 α      lambda       -0.1273453E-04
   maximum displ.:     0.0096286 α      in ANC's #2, #3, #1, ...

........................................................................
.............................. CYCLE   11 ..............................
........................................................................
   1     -4.7160957 -0.471610E+01  0.416E-02    6.18       0.0  T
   2     -4.7160958 -0.114999E-07  0.257E-02    6.19       2.3  T
   3     -4.7160957  0.774276E-07  0.479E-03    6.18      12.1  T
   4     -4.7160958 -0.839106E-07  0.120E-03    6.18      48.1  T
   5     -4.7160958 -0.254723E-08  0.204E-04    6.18     282.9  T
   6     -4.7160958 -0.569589E-11  0.169E-05    6.18    3419.9  T
     SCC iter.                  ...        0 min,  0.000 sec
     gradient                   ...        0 min,  0.000 sec
 * total energy  :    -4.5779042 Eh     change       -0.6958423E-05 Eh
   gradient norm :     0.0002582 Eh/α   predicted    -0.6367661E-05 (  -8.49%)
   displ. norm   :     0.0060571 α      lambda       -0.3935695E-06
   maximum displ.:     0.0050324 α      in ANC's #2, #1, #3, ...

........................................................................
.............................. CYCLE   12 ..............................
........................................................................
   1     -4.7161699 -0.471617E+01  0.275E-02    6.19       0.0  T
   2     -4.7161699 -0.358139E-08  0.170E-02    6.19       3.4  T
   3     -4.7161699  0.470078E-08  0.150E-03    6.19      38.5  T
   4     -4.7161699 -0.721710E-08  0.412E-04    6.19     140.2  T
   5     -4.7161699 -0.578142E-10  0.916E-06    6.19    6304.1  T
     SCC iter.                  ...        0 min,  0.000 sec
     gradient                   ...        0 min,  0.000 sec
 * total energy  :    -4.5779043 Eh     change       -0.1417853E-06 Eh
   gradient norm :     0.0000826 Eh/α   predicted    -0.1978327E-06 (  39.53%)
   displ. norm   :     0.0021456 α      lambda       -0.7286610E-07
   maximum displ.:     0.0017382 α      in ANC's #2, #1, #3, ...

   *** GEOMETRY OPTIMIZATION CONVERGED AFTER 12 ITERATIONS ***

------------------------------------------------------------------------
 total energy gain   :        -0.1007617 Eh      -63.2289 kcal/mol
 total RMSD          :         0.6765561 a0        0.3580 Å
 total power (kW/mol):       -22.0458159 (step)********** (real)
------------------------------------------------------------------------

 ANCopt (total)                0 d,  0 h,  0 min,  0.011 sec
 optimizer setup                ...        0 min,  0.000 sec (  0.564%)
 model hessian                  ...        0 min,  0.000 sec (  0.405%)
 ANC generation                 ...        0 min,  0.000 sec (  0.306%)
 coordinate transformation      ...        0 min,  0.000 sec (  0.195%)
 single point calculation       ...        0 min,  0.010 sec ( 91.560%)
 optimization log               ...        0 min,  0.000 sec (  1.994%)
 hessian update                 ...        0 min,  0.000 sec (  0.214%)
 rational function              ...        0 min,  0.000 sec (  1.761%)

================
 final structure:
================
3
 xtb: 6.2.2 (9d81278992624c895f80dd42a50cac0aa55982e2)
C        -0.04421300576594   -0.00283884296471    0.00000000000000
C         1.14650614880587    0.05036520676450    0.00000000000000
H        -1.10229314303993   -0.04752636379978    0.00000000000000

 Bond Distances (Angstroems)
 ---------------------------
C1-C2=1.1919         C1-H3=1.0590         C2-C1=1.1919         H3-C1=1.0590         
 C  H  Rav=1.0590 sigma=0.0000  Rmin=1.0590  Rmax=1.0590     1
 C  C  Rav=1.1919 sigma=0.0000  Rmin=1.1919  Rmax=1.1919     1

 selected bond angles (degree)
 --------------------
H3-C1-C2=179.86                

 selected dihedral angles (degree)
 ---------------------------------

           -------------------------------------------------
          |                Final Singlepoint                |
           -------------------------------------------------

          ...................................................
          :                      SETUP                      :
          :.................................................:
          :  # basis functions                   9          :
          :  # atomic orbitals                   9          :
          :  # shells                            5          :
          :  # electrons                         9          :
          :  max. iterations                   250          :
          :  Hamiltonian                  GFN2-xTB          :
          :  restarted?                      false          :
          :  GBSA solvation                  false          :
          :  PC potential                    false          :
          :  electronic temp.          300.0000000     K    :
          :  accuracy                    1.0000000          :
          :  -> integral cutoff          0.2500000E+02      :
          :  -> integral neglect         0.1000000E-07      :
          :  -> SCF convergence          0.1000000E-05 Eh   :
          :  -> wf. convergence          0.1000000E-03 e    :
          :  Broyden damping             0.4000000          :
          ...................................................

 iter      E             dE          RMSdq      gap      omega  full diag
   1     -4.7161699 -0.471617E+01  0.293E-06    6.19       0.0  T
   2     -4.7161699  0.159872E-13  0.304E-06    6.19   19003.2  T
   3     -4.7161699 -0.275335E-13  0.125E-06    6.19   46297.9  T

   *** convergence criteria satisfied after 3 iterations ***

         #    Occupation            Energy/Eh            Energy/eV
      -------------------------------------------------------------
         1        2.0000           -0.6250953             -17.0097
         2        2.0000           -0.5351468             -14.5621
         3        2.0000           -0.4410123             -12.0006
         4        2.0000           -0.4410122             -12.0006
         5        1.0000           -0.3989048             -10.8548 (HOMO)
         6                         -0.1715781              -4.6689 (LUMO)
         7                         -0.1715775              -4.6689
         8                          0.1663913               4.5277
         9                          1.2418054              33.7912
      -------------------------------------------------------------
                  HL-Gap            0.2273267 Eh            6.1859 eV
             Fermi-level           -0.3524417 Eh           -9.5904 eV

 SCC (total)                   0 d,  0 h,  0 min,  0.001 sec
 SCC setup                      ...        0 min,  0.000 sec (  5.648%)
 Dispersion                     ...        0 min,  0.000 sec (  0.560%)
 integral evaluation            ...        0 min,  0.000 sec ( 39.086%)
 zeroth order Hamiltonian       ...        0 min,  0.000 sec (  0.740%)
 iterations                     ...        0 min,  0.000 sec ( 22.837%)
 molecular gradient             ...        0 min,  0.000 sec ( 23.958%)
 printout                       ...        0 min,  0.000 sec (  6.029%)

         :::::::::::::::::::::::::::::::::::::::::::::::::::::
         ::                     SUMMARY                     ::
         :::::::::::::::::::::::::::::::::::::::::::::::::::::
         :: total energy              -4.577904319799 Eh    ::
         :: gradient norm              0.000084708228 Eh/a0 ::
         :: HOMO-LUMO gap              6.185874466804 eV    ::
         ::.................................................::
         :: SCC energy                -4.716169945694 Eh    ::
         :: -> isotropic ES            0.000306089668 Eh    ::
         :: -> anisotropic ES          0.000733121908 Eh    ::
         :: -> anisotropic XC          0.006282202399 Eh    ::
         :: -> dispersion             -0.000557404737 Eh    ::
         :: repulsion energy           0.138265627012 Eh    ::
         :: add. restraining           0.000000000000 Eh    ::
         :::::::::::::::::::::::::::::::::::::::::::::::::::::

           ------------------------------------------------- 
          |                Numerical Hessian                |
           ------------------------------------------------- 
step length          :   0.00500
SCC accuracy         :   0.30000
Hessian scale factor :   1.00000
frozen atoms in %    :   0.00000    0
RMS gradient         :   0.00008
estimated CPU  time      0.00 min
estimated wall time      0.00 min

writing file <hessian>.

 vibrational frequencies (cm-1)
eigval :        0.00     0.00     0.00     0.00     0.00   397.38
eigval :      397.51  2202.85  3230.67
           -------------------------------------------------
          |                Property Printout                |
           -------------------------------------------------

    * Orbital Energies and Occupations

         #    Occupation            Energy/Eh            Energy/eV
      -------------------------------------------------------------
         1        2.0000           -0.6250953             -17.0097
         2        2.0000           -0.5351468             -14.5621
         3        2.0000           -0.4410123             -12.0006
         4        2.0000           -0.4410122             -12.0006
         5        1.0000           -0.3989048             -10.8548 (HOMO)
         6                         -0.1715781              -4.6689 (LUMO)
         7                         -0.1715775              -4.6689
         8                          0.1663913               4.5277
         9                          1.2418054              33.7912
      -------------------------------------------------------------
                  HL-Gap            0.2273267 Eh            6.1859 eV
             Fermi-level           -0.3524417 Eh           -9.5904 eV

     #   Z        covCN         q      C6AA      α(0)
     1   6 C      1.908    -0.073    33.104     9.292
     2   6 C      0.981    -0.049    37.438    10.277
     3   1 H      0.927     0.123     1.592     1.973

 Mol. C6AA /au·bohr⁶  :        172.452200
 Mol. C8AA /au·bohr⁸  :       4654.799051
 Mol. α(0) /au        :         21.542028


Wiberg/Mayer (AO) data.
largest (>0.10) Wiberg bond orders for each atom
          total WBO             WBO to atom ...
     1  C   3.882        C    2 2.992    H    3 0.890
     2  C   2.999        C    1 2.992
     3  H   0.898        C    1 0.890

MOs/occ written to file <molden.input>


molecular dipole:
                 x           y           z       tot (Debye)
 q only:       -0.356      -0.015       0.000
   full:       -0.404      -0.018       0.000       1.028
Molecule has the following symmetry elements: (Cinf) (sigma) 
It seems to be the Cinfv point group
molecular quadrupole (traceless):
                xx          xy          yy          xz          yz          zz
 q only:        0.300       0.019      -0.149      -0.000      -0.000      -0.150
  q+dip:        3.610       0.236      -1.800      -0.000      -0.000      -1.810
   full:        1.754       0.112      -0.875      -0.000      -0.000      -0.880

           -------------------------------------------------
          |                Geometry Summary                 |
           -------------------------------------------------

      molecular mass/u    :       25.0294125
   center of mass at/Å    :        0.4845622       0.0208898      -0.0000017
  moments of inertia/u·Å² :        0.4941203E-05   0.1118100E+02   0.1118100E+02
rotational constants/cm⁻¹ :        0.3411646E+07   0.1507704E+01   0.1507703E+01

 * 1 selected distances

     #   Z        #   Z                                     value/Å
     1   6 C      2   6 C                                 1.1919072 (max)

 * 1 distinct bonds (by element types)

   Z      Z             #   av. dist./Å        max./Å        min./Å
   6 C    6 C           1     1.1919072     1.1919072     1.1919072

           -------------------------------------------------
          |               Frequency Printout                |
           -------------------------------------------------
 vibrational frequencies (cm-1)
eigval :        0.00     0.00     0.00     0.00     0.00   397.38
eigval :      397.51  2202.85  3230.67
 reduced masses (amu)
   1:  9.46   2: 10.22   3: 11.57   4: 11.63   5: 10.86   6:  3.95   7:  3.94   8: 10.88
   9:  2.58
 IR intensities (amu)
   1:  0.11   2:  0.12   3:  0.07   4:  0.06   5:  0.02   6:  0.06   7:  0.06   8:  0.04
   9:  0.21
 Raman intensities (amu)
   1:  0.00   2:  0.00   3:  0.00   4:  0.00   5:  0.00   6:  0.00   7:  0.00   8:  0.00
   9:  0.00
 output can be read by thermo (or use thermo option).
 writing <g98.out> molden fake output.
 recommended (thermochemical) frequency scaling factor: 1.0
           -------------------------------------------------
          |             Thermodynamic Functions             |
           -------------------------------------------------

cin symmetry found (for desy threshold:  0.10E+00) used in thermo

          ...................................................
          :                      SETUP                      :
          :.................................................:
          :  # frequencies                           4      :
          :  # imaginary freq.                       0      :
          :  linear?                              true      :
          :  only rotor calc.                    false      :
          :  symmetry                              cin      :
          :  rotational number                       1      :
          :  scaling factor                  1.0000000      :
          :  rotor cutoff                   50.0000000 cm⁻¹ :
          :  imag. cutoff                  -20.0000000 cm⁻¹ :
          :.................................................:

    mode    ω/cm⁻¹     T·S(HO)/kcal·mol⁻¹    T·S(FR)/kcal·mol⁻¹   T·S(vib)
   ------------------------------------------------------------------------
   ------------------------------------------------------------------------

   temp. (K)  partition function   enthalpy   heat capacity  entropy
                                   cal/mol     cal/K/mol   cal/K/mol   J/K/mol
 298.15  VIB   1.37                  391.544      2.957      1.945
         ROT   137.                  592.502      1.987     11.771
         INT   189.                  984.045      4.944     13.716
         TR   0.121E+27             1481.254      4.968     35.573
         TOT                        2465.2994     9.9122    49.2891   206.2258

   temp. (K)  partition function   enthalpy   heat capacity  entropy
                                   cal/mol     cal/K/mol   cal/K/mol   J/K/mol
 120.00  VIB   1.02                   19.532      0.782      0.197
         ROT   55.3                  238.471      1.987      9.962
         INT   56.3                  258.003      2.770     10.159
         TR   0.309E+26              596.178      4.968     31.054
         TOT                         854.1809     7.7377    41.2132   172.4358

   temp. (K)  partition function   enthalpy   heat capacity  entropy
                                   cal/mol     cal/K/mol   cal/K/mol   J/K/mol
 100.00  VIB   1.01                    7.491      0.430      0.088
         ROT   46.1                  198.726      1.987      9.600
         INT   46.4                  206.217      2.417      9.688
         TR   0.235E+26              496.815      4.968     30.148
         TOT                         703.0321     7.3852    39.8366   166.6764

   temp. (K)  partition function   enthalpy   heat capacity  entropy
                                   cal/mol     cal/K/mol   cal/K/mol   J/K/mol
  80.00  VIB   1.00                    1.789      0.160      0.026
         ROT   36.9                  158.981      1.987      9.157
         INT   36.9                  160.770      2.147      9.182
         TR   0.168E+26              397.452      4.968     29.040
         TOT                         558.2218     7.1154    38.2225   159.9230

   temp. (K)  partition function   enthalpy   heat capacity  entropy
                                   cal/mol     cal/K/mol   cal/K/mol   J/K/mol
  60.00  VIB   1.00                    0.165      0.026      0.003
         ROT   27.7                  119.236      1.987      8.585
         INT   27.7                  119.401      2.013      8.588
         TR   0.109E+26              298.089      4.968     27.612
         TOT                         417.4896     6.9816    36.1997   151.4595

   temp. (K)  partition function   enthalpy   heat capacity  entropy
                                   cal/mol     cal/K/mol   cal/K/mol   J/K/mol
  40.00  VIB   1.00                    0.001      0.001     -0.000
         ROT   18.4                   79.490      1.987      7.779
         INT   18.4                   79.492      1.988      7.779
         TR   0.595E+25              198.726      4.968     25.598
         TOT                         278.2178     6.9559    33.3773   139.6506

   temp. (K)  partition function   enthalpy   heat capacity  entropy
                                   cal/mol     cal/K/mol   cal/K/mol   J/K/mol
  20.00  VIB   1.00                    0.000      0.000     -0.001
         ROT   9.22                   39.745      1.987      6.402
         INT   9.22                   39.745      1.987      6.401
         TR   0.210E+25               99.363      4.968     22.156
         TOT                         139.1082     6.9554    28.5575   119.4844

   temp. (K)  partition function   enthalpy   heat capacity  entropy
                                   cal/mol     cal/K/mol   cal/K/mol   J/K/mol
  10.00  VIB   1.00                    0.000      0.000     -0.001
         ROT   4.61                   19.873      1.987      5.024
         INT   4.61                   19.873      1.987      5.023
         TR   0.744E+24               49.681      4.968     18.714
         TOT                          69.5541     6.9554    23.7377    99.3184

       T/K    H(0)-H(T)+PV         H(T)/Eh          T*S/Eh         G(T)/Eh
   ------------------------------------------------------------------------
    298.15    0.392870E-02    0.181181E-01    0.234189E-01   -0.530079E-02
    120.00    0.136122E-02    0.155506E-01    0.788128E-02    0.766931E-02
    100.00    0.112035E-02    0.153097E-01    0.634837E-02    0.896135E-02
     80.00    0.889583E-03    0.150790E-01    0.487292E-02    0.102060E-01
     60.00    0.665312E-03    0.148547E-01    0.346127E-02    0.113934E-01
     40.00    0.443368E-03    0.146327E-01    0.212760E-02    0.125051E-01
     20.00    0.221683E-03    0.144111E-01    0.910184E-03    0.135009E-01
     10.00    0.110842E-03    0.143002E-01    0.378284E-03    0.139219E-01 (used)
   ------------------------------------------------------------------------

         :::::::::::::::::::::::::::::::::::::::::::::::::::::
         ::                  THERMODYNAMIC                  ::
         :::::::::::::::::::::::::::::::::::::::::::::::::::::
         :: total free energy          -4.563982393491 Eh   ::
         ::.................................................::
         :: total energy               -4.577904319800 Eh   ::
         :: zero point energy           0.014189368739 Eh   ::
         :: G(RRHO) w/o ZPVE           -0.000267442430 Eh   ::
         :: G(RRHO) contrib.            0.013921926309 Eh   ::
         :::::::::::::::::::::::::::::::::::::::::::::::::::::

optimized geometry written to: xtbopt.xyz


           -------------------------------------------------
          | TOTAL ENERGY               -4.577904319800 Eh   |
          | TOTAL ENTHALPY             -4.563604109547 Eh   |
          | TOTAL FREE ENERGY          -4.563982393491 Eh   |
          | GRADIENT NORM               0.000084709898 Eh/α |
          | HOMO-LUMO GAP               6.185874339050 eV   |
           -------------------------------------------------

------------------------------------------------------------------------
 * finished run on 2020/05/12 at 11:44:43.791     
------------------------------------------------------------------------
 total:
 * wall-time:     0 d,  0 h,  0 min,  0.044 sec
 *  cpu-time:     0 d,  0 h,  0 min,  0.044 sec
 * ratio c/w:     0.999 speedup
 SCF:
 * wall-time:     0 d,  0 h,  0 min,  0.002 sec
 *  cpu-time:     0 d,  0 h,  0 min,  0.002 sec
 * ratio c/w:     0.999 speedup
 ANC optimizer:
 * wall-time:     0 d,  0 h,  0 min,  0.013 sec
 *  cpu-time:     0 d,  0 h,  0 min,  0.013 sec
 * ratio c/w:     0.999 speedup
 numerical hessian:
 * wall-time:     0 d,  0 h,  0 min,  0.014 sec
 *  cpu-time:     0 d,  0 h,  0 min,  0.014 sec
 * ratio c/w:     1.000 speedup

