$hessian                                                                        
        1.4825778899   0.0644316972  -0.0000053015  -1.1458059442  -0.0507235451
        0.0000022872  -0.3367671482  -0.0137120319   0.0000004236
        0.0644316972   0.0185335388  -0.0000002327  -0.0505548494  -0.0096266826
        0.0000001013  -0.0138765610  -0.0089068909   0.0000000177
       -0.0000053015  -0.0000002327   0.0157002089   0.0000041136   0.0000001832
       -0.0073723913   0.0000011878   0.0000000495  -0.0083295948
       -1.1458059442  -0.0505548494   0.0000041136   1.1686612582   0.0518856114
       -0.0000023503  -0.0228738347  -0.0013278617   0.0000002127
       -0.0507235451  -0.0096266826   0.0000001832   0.0518856114   0.0057711925
       -0.0000001045  -0.0011627919   0.0038558319   0.0000000093
        0.0000022872   0.0000001013  -0.0073723913  -0.0000023503  -0.0000001045
        0.0034602885   0.0000000631   0.0000000032   0.0039122695
       -0.3367671482  -0.0138765610   0.0000011878  -0.0228738347  -0.0011627919
        0.0000000631   0.3596547060   0.0150403324  -0.0000006363
       -0.0137120319  -0.0089068909   0.0000000495  -0.0013278617   0.0038558319
        0.0000000032   0.0150403324   0.0050507518  -0.0000000271
        0.0000004236   0.0000000177  -0.0083295948   0.0000002127   0.0000000093
        0.0039122695  -0.0000006363  -0.0000000271   0.0044189359
