3
 energy: -4.577904319799 gnorm: 0.000084708228 xtb: 6.2.2 (9d81278992624c895f80dd42a50cac0aa55982e2)
C        -0.04421302062920   -0.00283861146591    0.00000015928722
C         1.14650641249447    0.05035920367157   -0.00000408996531
H        -1.10229339186527   -0.04752059220566    0.00000393067809
