[Molden Format]
[Title]
[Atoms] AU
C      1     6 -0.83550492379808E-01 -0.53641977471118E-02  0.30100919346303E-06
C      2     6  0.21665829187265E+01  0.95165093964115E-01 -0.77289135720266E-05
H      3     1 -0.20830324263467E+01 -0.89800896217003E-01  0.74279043786066E-05
[GTO]
           1 0
 s           4   1.0000000000000000     
   51.049363095579913      -0.16312063210127389     
   8.7911227406887544      -0.19911024581000730     
  0.70640422258929825       0.31882047753655751     
  0.26922813413411617       0.12706504184240380     
 p           4   1.0000000000000000     
   5.8263656140800002       0.73716451545209605     
   1.5106896018720002       0.68216371614850257     
  0.53256483288000001       0.35783053929253711     
  0.21202323690600003        5.3983030275847881E-002

           2 0
 s           4   1.0000000000000000     
   51.049363095579913      -0.16312063210127389     
   8.7911227406887544      -0.19911024581000730     
  0.70640422258929825       0.31882047753655751     
  0.26922813413411617       0.12706504184240380     
 p           4   1.0000000000000000     
   5.8263656140800002       0.73716451545209605     
   1.5106896018720002       0.68216371614850257     
  0.53256483288000001       0.35783053929253711     
  0.21202323690600003        5.3983030275847881E-002

           3 0
 s           3   1.0000000000000000     
   3.3702276975336001       0.27359110588908298     
  0.61389118221497996       0.26460540653860526     
  0.16614291148415999        8.2465947534082318E-002

[MO]
Sym=     1a
Ene=  -0.62509532019003056     
Spin= Alpha
Occup=     2.00000000
           1  0.51384120504534991     
           2  0.18506280654877874     
           3   8.3282129897067902E-003
           4  -6.6060926395788141E-007
           5  0.48489275817160737     
           6 -0.21108834138303495     
           7  -9.3922461229852035E-003
           8   7.5015395918667568E-007
           9  0.10818355510023386     
Sym=     2a
Ene=  -0.53514679421648226     
Spin= Alpha
Occup=     2.00000000
           1  0.32870557953105928     
           2 -0.42945531845806673     
           3  -1.8564279446140051E-002
           4   1.5373183772807388E-006
           5 -0.36050507919253172     
           6  -8.2652902143385665E-002
           7  -3.4271255832404300E-003
           8   2.9788206973984475E-007
           9  0.45966266850234117     
Sym=     3a
Ene=  -0.44101231620489889     
Spin= Alpha
Occup=     2.00000000
           1  -9.8768017605428628E-004
           2  -2.7883078254352663E-002
           3  0.63342200921862402     
           4  -1.1709448456082310E-005
           5   1.1870333307465158E-003
           6  -2.6461413272719298E-002
           7  0.61591499760404744     
           8  -1.1387601781932753E-005
           9   4.0363766826717531E-004
Sym=     4a
Ene=  -0.44101221180715255     
Spin= Alpha
Occup=     2.00000000
           1   1.7094315939943861E-008
           2  -1.7450950650759033E-006
           3  -1.1797579926520348E-005
           4 -0.63403632181213332     
           5  -2.7929130368873256E-008
           6  -1.7125926490285815E-006
           7  -1.1471677524157043E-005
           8 -0.61648384097455167     
           9  -5.4648357649281916E-009
Sym=     5a
Ene=  -0.39890480222758234     
Spin= Alpha
Occup=     1.00000000
           1  0.12185967007607883     
           2  0.21590176448029610     
           3   1.0434356145022038E-002
           4  -7.6691428453312789E-007
           5 -0.60623635802024034     
           6 -0.68922293312038230     
           7  -2.9432556147720907E-002
           8   2.4628130523645459E-006
           9 -0.28859818759673084     
Sym=     6a
Ene=  -0.17157810321231964     
Spin= Alpha
Occup=     0.00000000
           1   1.5773342941940596E-003
           2   3.5485685282910358E-002
           3 -0.82523396547188355     
           4   4.0318665417258166E-006
           5   1.9924951007428256E-004
           6  -3.6687250143488670E-002
           7  0.83837756538863528     
           8  -4.0939518721089217E-006
           9  -1.2612067288217015E-003
Sym=     7a
Ene=  -0.17157749060951866     
Spin= Alpha
Occup=     0.00000000
           1  -5.4812107688272575E-009
           2   2.7669196317395126E-006
           3   4.1545744736973953E-006
           4  0.82599882389244317     
           5  -1.7149258204491861E-009
           6  -2.8079091877604296E-006
           7  -4.2207384143880181E-006
           8 -0.83918042653111036     
           9   2.4161620440694255E-009
Sym=     8a
Ene=   0.16639128801343861     
Spin= Alpha
Occup=     0.00000000
           1  -1.0203855158558519     
           2  0.50489349418387730     
           3   1.9788872026228053E-002
           4  -1.7955613107326817E-006
           5  0.13262654000818863     
           6 -0.41154613226579184     
           7  -1.7144410172365804E-002
           8   1.4664598548052187E-006
           9   1.0686962067271559     
Sym=     9a
Ene=    1.2418053536229743     
Spin= Alpha
Occup=     0.00000000
           1  0.68961651474029662     
           2   1.3588750382422554     
           3   5.9832128061646395E-002
           4  -4.8485950994862941E-006
           5  -1.0416928071592810     
           6   1.0317843589543687     
           7   4.6335935145464642E-002
           8  -3.6828266791342243E-006
           9  0.57183629040374018     
