[Molden Format]
[Title]
[Atoms] AU
C      1     6 -0.14390872349930E+01 -0.14621514195516E+01 -0.16206328369663E+01
C      2     6 -0.41211451406485E-04  0.22558785511272E-04  0.37734551391417E-04
C      3     6  0.84068350046920E+00 -0.14738331142842E+01  0.19890835694745E+01
C      4     6 -0.14553310018614E+01  0.19649692129900E+01  0.92547877605752E+00
C      5     6  0.20537759478465E+01  0.97099465178627E+00 -0.12939672431203E+01
[GTO]
           1 0
 s           4   1.0000000000000000     
   51.049363095579913      -0.16312063210127389     
   8.7911227406887544      -0.19911024581000730     
  0.70640422258929825       0.31882047753655751     
  0.26922813413411617       0.12706504184240380     
 p           4   1.0000000000000000     
   5.8263656140800002       0.73716451545209605     
   1.5106896018720002       0.68216371614850257     
  0.53256483288000001       0.35783053929253711     
  0.21202323690600003        5.3983030275847881E-002

           2 0
 s           4   1.0000000000000000     
   51.049363095579913      -0.16312063210127389     
   8.7911227406887544      -0.19911024581000730     
  0.70640422258929825       0.31882047753655751     
  0.26922813413411617       0.12706504184240380     
 p           4   1.0000000000000000     
   5.8263656140800002       0.73716451545209605     
   1.5106896018720002       0.68216371614850257     
  0.53256483288000001       0.35783053929253711     
  0.21202323690600003        5.3983030275847881E-002

           3 0
 s           4   1.0000000000000000     
   51.049363095579913      -0.16312063210127389     
   8.7911227406887544      -0.19911024581000730     
  0.70640422258929825       0.31882047753655751     
  0.26922813413411617       0.12706504184240380     
 p           4   1.0000000000000000     
   5.8263656140800002       0.73716451545209605     
   1.5106896018720002       0.68216371614850257     
  0.53256483288000001       0.35783053929253711     
  0.21202323690600003        5.3983030275847881E-002

           4 0
 s           4   1.0000000000000000     
   51.049363095579913      -0.16312063210127389     
   8.7911227406887544      -0.19911024581000730     
  0.70640422258929825       0.31882047753655751     
  0.26922813413411617       0.12706504184240380     
 p           4   1.0000000000000000     
   5.8263656140800002       0.73716451545209605     
   1.5106896018720002       0.68216371614850257     
  0.53256483288000001       0.35783053929253711     
  0.21202323690600003        5.3983030275847881E-002

           5 0
 s           4   1.0000000000000000     
   51.049363095579913      -0.16312063210127389     
   8.7911227406887544      -0.19911024581000730     
  0.70640422258929825       0.31882047753655751     
  0.26922813413411617       0.12706504184240380     
 p           4   1.0000000000000000     
   5.8263656140800002       0.73716451545209605     
   1.5106896018720002       0.68216371614850257     
  0.53256483288000001       0.35783053929253711     
  0.21202323690600003        5.3983030275847881E-002

[MO]
Sym=     1a
Ene=  -0.78098780453487515     
Spin= Alpha
Occup=     2.00000000
           1  0.24222934691525697     
           2   6.6784186435805484E-002
           3   6.7854575908819242E-002
           4   7.5209158064063600E-002
           5  0.48224604572585161     
           6   7.0682433656594262E-006
           7  -3.5016877244745195E-006
           8  -6.5823215376978147E-006
           9  0.24222796849035630     
          10  -3.9013489405893664E-002
          11   6.8396088812880562E-002
          12  -9.2307240651855832E-002
          13  0.24222468497800503     
          14   6.7536038534801807E-002
          15  -9.1186193833038026E-002
          16  -4.2947767025454879E-002
          17  0.24223205231269862     
          18  -9.5311711024540863E-002
          19  -4.5061896014623924E-002
          20   6.0050450224578410E-002
Sym=     2a
Ene=  -0.70110434451057402     
Spin= Alpha
Occup=     2.00000000
           1 -0.18012610114163846     
           2  -9.4377554218319587E-002
           3   5.8483644672106205E-002
           4  -1.5803049253086770E-002
           5   1.5501027768700326E-005
           6 -0.22638709680171937     
           7  0.36725063219631443     
           8   9.5122483425527413E-002
           9 -0.26741186048470483     
          10  -2.7409299781269221E-002
          11   4.0393474524490020E-002
          12   9.8176521260410335E-002
          13  0.56164494666537279     
          14   5.4570448348201052E-002
          15  -5.7764581543775055E-002
          16  -4.7325955167442604E-002
          17 -0.11410389362699309     
          18  -2.6091023402498793E-002
          19  0.11025296075304150     
          20   4.1580252790945453E-003
Sym=     3a
Ene=  -0.70110077752780275     
Spin= Alpha
Occup=     2.00000000
           1 -0.43920969452234343     
           2  -4.5394657580437973E-002
           3  -9.0424191042348001E-002
           4   7.6749080543777916E-003
           5   6.6279597968906782E-006
           6  0.16268661024649367     
           7  -6.0891321381350951E-003
           8  0.41069590577961163     
           9  0.47463683563102560     
          10  -1.3156498331764650E-002
          11   9.5209483761201169E-002
          12  -2.4459616361156563E-002
          13   6.4769933587458722E-002
          14   5.5091057075948732E-002
          15  -1.9181589580819409E-002
          16   9.7861472392171370E-002
          17 -0.10019508392321590     
          18   7.0522309237460223E-002
          19   1.1886208132675732E-002
          20   8.8219224686245143E-002
Sym=     4a
Ene=  -0.70109848276185827     
Spin= Alpha
Occup=     2.00000000
           1 -0.31458504965935907     
           2   2.5955648362286074E-002
           3  -1.8390511683743255E-004
           4 -0.10468768279903608     
           5  -1.0583087659431846E-005
           6  0.34272067847413901     
           7  0.24548667874874161     
           8 -0.13212024853733023     
           9 -0.16590869869707564     
          10  0.10788499979365000     
          11   2.9624111404570833E-002
          12   1.1504932863941133E-002
          13  -6.8376125016100381E-002
          14   7.4819877495292120E-002
          15   8.2041290293658642E-002
          16  -2.5396030063116304E-002
          17  0.54886702094656770     
          18  -6.7372085844458293E-002
          19  -1.0278306124136740E-002
          20   6.4111448459934217E-002
Sym=     5a
Ene=  -0.54604426438552822     
Spin= Alpha
Occup=     2.00000000
           1  0.39440651612604855     
           2 -0.15573633956290248     
           3 -0.15827058255273227     
           4 -0.17543356731835830     
           5 -0.25059522561309572     
           6   1.8956884462873935E-005
           7  -1.0567913372610764E-005
           8  -1.8257486993462061E-005
           9  0.39442768710449266     
          10   9.1024463446047199E-002
          11 -0.15954898571786288     
          12  0.21528590523782551     
          13  0.39448726101569942     
          14 -0.15754757437425540     
          15  0.21273822672017534     
          16  0.10018060675324650     
          17  0.39437205601077968     
          18  0.22228515674981303     
          19  0.10506813012940602     
          20 -0.14005690843872387     
Sym=     6a
Ene=  -0.52722238893780504     
Spin= Alpha
Occup=     2.00000000
           1  -6.8804955096531034E-002
           2  0.19880547172207963     
           3 -0.16261016371564785     
           4   6.5471934819093039E-002
           5   1.2667351850508767E-005
           6  0.15219862154378686     
           7 -0.21970665493381950     
           8   8.7552952206587844E-003
           9 -0.36659186316538583     
          10  -9.1704670767865110E-003
          11   6.1964306962949113E-002
          12 -0.36390193696091078     
          13  0.50398438785527189     
          14 -0.22639342858897807     
          15  0.29183518470898540     
          16  0.24676553478754262     
          17  -6.8719964518112159E-002
          18   7.6155545665879065E-002
          19 -0.24806029458149975     
          20   5.3935327409810295E-002
Sym=     7a
Ene=  -0.52722229787937824     
Spin= Alpha
Occup=     2.00000000
           1 -0.33144952189470245     
           2  0.25331062431550999     
           3  0.24386829381618433     
           4   1.4108771824729430E-002
           5   1.2597979933802470E-005
           6   9.9598369970927258E-003
           7  -3.7450455953593289E-003
           8 -0.26721166489515891     
           9  0.40437688517845161     
          10  0.18333907714068179     
          11 -0.30806191243104486     
          12  0.15057646614739786     
          13  0.21025414300772391     
          14 -0.14659667174563379     
          15  0.20737828450985235     
          16 -0.16086797705081507     
          17 -0.28331380835578962     
          18 -0.28747432105627047     
          19 -0.14414880524453288     
          20  -7.3001801448752041E-002
Sym=     8a
Ene=  -0.52722221783792844     
Spin= Alpha
Occup=     2.00000000
           1  0.42873063242589610     
           2 -0.10119284890598491     
           3 -0.17174724490791038     
           4 -0.34898662686584120     
           5   5.8744135976493983E-006
           6  0.21966364028772931     
           7  0.15240915947880815     
           8   6.0485922235090162E-003
           9   2.1804858933053343E-002
          10  0.22329304449924339     
          11  0.13201540731407593     
          12   2.8049010921409896E-002
          13   1.1397365426057900E-002
          14  0.20546656129969007     
          15  0.15988100897235921     
          16   1.1283537302055854E-002
          17 -0.46199726620140741     
          18 -0.27068497154681626     
          19  -8.0683743964948915E-002
          20  0.31121723920356398     
Sym=     9a
Ene=  -0.45906525441224066     
Spin= Alpha
Occup=     2.00000000
           1  -7.0511557924307231E-008
           2   5.0781839946410598E-002
           3 -0.38206983532706051     
           4  0.29961473759020246     
           5  -3.0588290997335701E-009
           6   5.1408923188046547E-006
           7  -1.8874294178083310E-007
           8  -5.3866973650266300E-006
           9  -9.5222678053035434E-007
          10 -0.20865615868407753     
          11 -0.39219246867606039     
          12 -0.20241449070124148     
          13  -1.2132606557239597E-006
          14  0.29690626537047721     
          15  0.32167597702461415     
          16 -0.21609806562023748     
          17   2.2145575702678580E-006
          18 -0.13904781220551651     
          19  0.45258686111083613     
          20  0.11891401235727271     
Sym=    10a
Ene=  -0.45906524867222487     
Spin= Alpha
Occup=     2.00000000
           1  -2.9504688624405485E-006
           2  0.40439280606048639     
           3 -0.13339780891000955     
           4 -0.23872699574559372     
           5  -3.9000744192295954E-010
           6   5.0270109242029912E-006
           7   4.3918124951322157E-007
           8   1.1024669944060061E-005
           9   2.8907224060246091E-006
          10 -0.41250014241834193     
          11   9.3615009034347704E-002
          12  0.24371749812017071     
          13   4.4447738789896392E-007
          14  0.27627269935168292     
          15   1.5196768364265376E-002
          16  0.40218098182188888     
          17  -3.8882389326785633E-007
          18 -0.26818118502683019     
          19   2.4584810022969503E-002
          20 -0.40720492341863518     
Sym=    11a
Ene=  -0.39734355020659284     
Spin= Alpha
Occup=     0.00000000
           1   7.3328670338606147E-003
           2 -0.26684558220700472     
           3  0.42610464229137113     
           4  0.10683462215948561     
           5  -3.9622715504992714E-008
           6  0.11582765022422400     
           7 -0.18871966949722119     
           8  -4.8548729597541321E-002
           9   1.0884038506840178E-002
          10 -0.26081791373813845     
          11  0.42453147729296081     
          12  0.11722514858299291     
          13  -2.2797403018583948E-002
          14 -0.25329530472527040     
          15  0.41570914667571285     
          16  0.10387440637035748     
          17   4.5834573069521564E-003
          18 -0.26060132096416511     
          19  0.43068271837930694     
          20  0.10863155188383107     
Sym=    12a
Ene=  -0.39733618996665193     
Spin= Alpha
Occup=     0.00000000
           1   1.7920150762689584E-002
           2  0.18393108625438342     
           3  -1.3315591984602592E-002
           4  0.46984893702261044     
           5   2.2855189713190610E-008
           6  -8.4378991227023289E-002
           7   2.3362391407807117E-003
           8 -0.21039335577761528     
           9  -1.9242712676100667E-002
          10  0.18714459088730620     
          11   3.3421790090874025E-003
          12  0.46685771242074958     
          13  -2.6282779944563931E-003
          14  0.19326834939975743     
          15  -6.9150748681107328E-003
          16  0.47816527556603516     
          17   3.9520367690246208E-003
          18  0.19440518844836527     
          19  -4.1200215123486650E-003
          20  0.47701964638611760     
Sym=    13a
Ene=  -0.39733132056385095     
Spin= Alpha
Occup=     0.00000000
           1   1.2674048161673789E-002
           2  0.39395765717940268     
           3  0.28004825401251060     
           4 -0.16333106762120495     
           5   1.1538272041167913E-007
           6 -0.17565609320377218     
           7 -0.12557400197445237     
           8   6.9052927007928436E-002
           9   6.8256792829271169E-003
          10  0.40140433063510628     
          11  0.28266636991690447     
          12 -0.15291721081593959     
          13   2.8430630913305389E-003
          14  0.39855405399397936     
          15  0.28756318589977686     
          16 -0.15635965172763391     
          17  -2.2345024857680862E-002
          18  0.38559505376187475     
          19  0.27889151662813494     
          20 -0.14832133449101792     
Sym=    14a
Ene=  -0.38357331929791139     
Spin= Alpha
Occup=     0.00000000
           1  -1.0254904003472229E-005
           2 -0.33059671347745984     
           3  0.41799925283883838     
           4  -8.3705753659991639E-002
           5   2.2300090720560209E-010
           6   3.7114081315334007E-005
           7  -2.3406086489348777E-005
           8   5.3263885780163263E-005
           9   1.6687576008249125E-005
          10  0.16483801133131257     
          11 -0.44474315732589498     
          12 -0.39939851190058423     
          13  -4.9280921623764448E-006
          14  0.27187815309314600     
          15  -7.0897397427457334E-002
          16  0.57818406632441910     
          17  -1.4995678144833663E-006
          18 -0.10645743133829023     
          19   9.7854297128495443E-002
          20  -9.5565149866847721E-002
Sym=    15a
Ene=  -0.38357036402805916     
Spin= Alpha
Occup=     0.00000000
           1  -1.2203159245960192E-005
           2 -0.34201933052187478     
           3  0.18545175595617741     
           4  0.13621652080275612     
           5   5.9208176128849745E-010
           6   2.8067752453228493E-005
           7   6.9426995676420160E-005
           8  -1.0102095800151599E-005
           9  -9.6092100674059486E-006
          10 -0.33430666184332486     
          11  -1.4403447638475453E-002
          12  0.13073268144817973     
          13   8.3918965876336582E-006
          14  0.45585671735428468     
          15  0.41913445655751974     
          16 -0.17326799014430155     
          17   1.3433532830068141E-005
          18  0.22021289797088553     
          19 -0.59081426271892445     
          20  -9.3588896098775756E-002
Sym=    16a
Ene=  -0.38356587059297853     
Spin= Alpha
Occup=     0.00000000
           1  -1.1903685553664324E-005
           2 -0.25750159569678860     
           3 -0.28146335914102172     
           4  0.48242660298915468     
           5   2.8051787432414502E-010
           6   3.6172057163046105E-005
           7   1.4659922209255512E-005
           8   3.0189230006363641E-005
           9   6.6980159658201535E-006
          10  0.48699830317662951     
          11  0.29691646020196322     
          12   1.4097217562486419E-002
          13   4.0044976797505120E-007
          14   8.7763960104341829E-002
          15   4.1450400572309962E-002
          16   4.9993312459028556E-002
          17   4.8115588293912084E-006
          18 -0.31758952691109332     
          19  -5.7036903915878581E-002
          20 -0.54679111091805244     
Sym=    17a
Ene=   0.30879086618503587     
Spin= Alpha
Occup=     0.00000000
           1 -0.33999184765315144     
           2 -0.13594858332377960     
           3 -0.18358261928467121     
           4 -0.38957347779588830     
           5   8.6204716270180104E-004
           6 -0.90017647023718550     
           7 -0.65022963333737616     
           8  0.36196642698554543     
           9 -0.18888029449830471     
          10  0.24906952288593023     
          11  -5.3629539537963643E-002
          12  0.16098946422649429     
          13  -7.5408278406338014E-002
          14   8.9528223511444474E-002
          15  0.19981286561333009     
          16  -2.0754105557712378E-002
          17  0.60353814753819401     
          18 -0.58165799982523014     
          19 -0.23637255295797077     
          20  0.40173992707539169     
Sym=    18a
Ene=   0.30881255527157164     
Spin= Alpha
Occup=     0.00000000
           1 -0.48434571767802925     
           2 -0.33733152905080671     
           3 -0.42368598880108194     
           4 -0.28083735481504246     
           5  -5.5841151980282739E-004
           6 -0.44641091104305392     
           7   1.7268498950340664E-002
           8  -1.0791604991058612     
           9  0.52168604474103708     
          10 -0.18383534047809769     
          11  0.45382175611001757     
          12 -0.43096970198977280     
          13   6.4646252229800666E-002
          14  0.13263336743639967     
          15  -7.8442601589259822E-002
          16  0.14995497881662204     
          17 -0.10150545074812224     
          18  0.20056508612018725     
          19   5.5578200779801037E-002
          20  0.10745455588965296     
Sym=    19a
Ene=   0.30884705709720178     
Spin= Alpha
Occup=     0.00000000
           1 -0.20159473051431642     
           2 -0.27467422290854066     
           3  -8.3575193570933626E-003
           4 -0.14907434724058269     
           5  -1.2085464473874489E-003
           6  0.59545038458762767     
           7 -0.97010111841448554     
           8 -0.26183962524445253     
           9 -0.28833738381955404     
          10   4.1656059166878638E-002
          11  -8.5704854566623023E-002
          12  0.38569779598763299     
          13  0.61760689299138438     
          14  0.43162135646508215     
          15 -0.55422638282985681     
          16 -0.29455413852887125     
          17 -0.12663513378821076     
          18   5.2145758491862357E-002
          19  0.23977118195783667     
          20  -5.2331875312382016E-002
Sym=    20a
Ene=   0.32033914276073183     
Spin= Alpha
Occup=     0.00000000
           1 -0.29164705934302870     
           2 -0.26567662042950330     
           3 -0.26971159515456899     
           4 -0.29887643662154800     
           5   1.3362944135113903     
           6   9.4989995373401758E-004
           7  -4.5929878392419874E-004
           8  -9.3769579970010377E-004
           9 -0.29140251619744711     
          10  0.15484495134388007     
          11 -0.27165453293327441     
          12  0.36686921166308423     
          13 -0.29085016633153143     
          14 -0.26799096777728854     
          15  0.36170791342120051     
          16  0.17047495287393677     
          17 -0.29202715138112029     
          18  0.37925476939393132     
          19  0.17944795541545430     
          20 -0.23889269338134878     
