5
 energy: -9.925731044920 gnorm: 0.158635982631 xtb: 6.2.2 (9d81278992624c895f80dd42a50cac0aa55982e2)
C        -0.83337700000000   -0.84671500000000   -0.93848400000000
C         0.00000000000000    0.00000000000000    0.00000000000000
C         0.48681000000000   -0.85346700000000    1.15187000000000
C        -0.84276400000000    1.13785800000000    0.53593300000000
C         1.18933100000000    0.56232500000000   -0.74931900000000
5
 energy: -9.963725575704 gnorm: 0.070622298299 xtb: 6.2.2 (9d81278992624c895f80dd42a50cac0aa55982e2)
C        -0.78670458603945   -0.79929546275476   -0.88592476766579
C        -0.00000001419133   -0.00000001556185   -0.00000063691637
C         0.45954637252799   -0.80566867053531    1.08736028470705
C        -0.79556524781256    1.07413265056031    0.50591866666893
C         1.12272347551536    0.53083249829160   -0.70735354679382
5
 energy: -9.968909345393 gnorm: 0.034988359058 xtb: 6.2.2 (9d81278992624c895f80dd42a50cac0aa55982e2)
C        -0.75144563295709   -0.76347547608319   -0.84622539322650
C        -0.00000406557069    0.00000013878250    0.00000254104672
C         0.43895611458067   -0.76956426211946    1.03862980765137
C        -0.75991241950313    1.02600027145028    0.48324554371447
C         1.07240600345023    0.50704032796986   -0.67565249918607
5
 energy: -9.970078750437 gnorm: 0.004686271438 xtb: 6.2.2 (9d81278992624c895f80dd42a50cac0aa55982e2)
C        -0.76305063836182   -0.77526747493231   -0.85929619122059
C        -0.00000575470814    0.00000006159457    0.00000353264427
C         0.44573697352802   -0.78144994432591    1.05467059641037
C        -0.77164883766864    1.04184791573197    0.49070917248467
C         1.08896825721059    0.51487044193168   -0.68608711031872
5
 energy: -9.970102215835 gnorm: 0.000288157904 xtb: 6.2.2 (9d81278992624c895f80dd42a50cac0aa55982e2)
C        -0.76167419609863   -0.77387840600390   -0.85775049412483
C        -0.00000977169801    0.00000768765331    0.00000455231935
C         0.44493681139524   -0.78004771239215    1.05276898510716
C        -0.77026725189616    1.03998055415664    0.48983183827408
C         1.08701440829756    0.51393887658610   -0.68485488157576
5
 energy: -9.970102284756 gnorm: 0.000148013846 xtb: 6.2.2 (9d81278992624c895f80dd42a50cac0aa55982e2)
C        -0.76152519502469   -0.77373977246257   -0.85760605279347
C        -0.00002180829514    0.00001193744727    0.00001996821122
C         0.44487100075324   -0.77991847686286    1.05257798489175
C        -0.77013522593525    1.03981213696051    0.48974144944146
C         1.08681122850184    0.51383517491765   -0.68473334975097
