 Entering Gaussian System
 *********************************************
 Gaussian 98:
 frequency output generated by the xtb code
 *********************************************
                         Standard orientation:
 --------------------------------------------------------------------
  Center     Atomic     Atomic              Coordinates (Angstroms)
  Number     Number      Type              X           Y           Z
 --------------------------------------------------------------------
    1          6             0       -0.761532   -0.773737   -0.857602
    2          6             0       -0.000022    0.000012    0.000020
    3          6             0        0.444871   -0.779919    1.052578
    4          6             0       -0.770128    1.039817    0.489742
    5          6             0        1.086812    0.513828   -0.684738
 --------------------------------------------------------------------
     1 basis functions        1 primitive gaussians
     1 alpha electrons        1 beta electrons

 Harmonic frequencies (cm**-1), IR intensities (KM/Mole),
 Raman scattering activities (A**4/amu), Raman depolarization ratios,
 reduced masses (AMU), force constants (mDyne/A) and normal coordinates:
                      1                      2                      3
                        a                      a                      a 
 Frequencies --  -382.6653              -382.5259              -382.3119
 Red. masses --    12.0107                12.0107                12.0107
 Frc consts  --     0.0000                 0.0000                 0.0000
 IR Inten    --     0.5418                 0.5374                 0.5269
 Raman Activ --     0.0000                 0.0000                 0.0000
 Depolar     --     0.0000                 0.0000                 0.0000
 Atom AN      X      Y      Z        X      Y      Z        X      Y      Z
   1   6     0.20   0.13  -0.34     0.29  -0.29   0.06    -0.20  -0.26  -0.22
   2   6    -0.32  -0.22   0.43    -0.35   0.47  -0.02    -0.34  -0.27  -0.39
   3   6     0.38  -0.11   0.06     0.08  -0.03  -0.40     0.13   0.39   0.01
   4   6     0.10   0.33  -0.23    -0.16   0.23   0.28     0.36   0.03   0.20
   5   6    -0.37  -0.12   0.07     0.15  -0.38   0.08     0.05   0.10   0.39
                      4                      5                      6
                        a                      a                      a 
 Frequencies --   230.5451               230.5463              1018.8186
 Red. masses --    12.0107                12.0107                12.0107
 Frc consts  --     0.0000                 0.0000                 0.0000
 IR Inten    --     0.0223                 0.0212                 0.0065
 Raman Activ --     0.0000                 0.0000                 0.0000
 Depolar     --     0.0000                 0.0000                 0.0000
 Atom AN      X      Y      Z        X      Y      Z        X      Y      Z
   1   6    -0.35  -0.05   0.35     0.23  -0.41   0.17    -0.28  -0.28  -0.31
   2   6     0.00  -0.00   0.00     0.00   0.00  -0.00    -0.00  -0.00  -0.00
   3   6     0.29  -0.26  -0.31    -0.38  -0.32  -0.08     0.16  -0.28   0.38
   4   6    -0.12   0.13  -0.47     0.40   0.30  -0.02    -0.28   0.38   0.18
   5   6     0.18   0.18   0.43    -0.25   0.43  -0.07     0.39   0.19  -0.25
                      7                      8                      9
                        a                      a                      a 
 Frequencies --  1289.9550              1289.9773              1290.0130
 Red. masses --    12.0107                12.0107                12.0107
 Frc consts  --     0.0000                 0.0000                 0.0000
 IR Inten    --     0.4966                 0.4955                 0.4934
 Raman Activ --     0.0000                 0.0000                 0.0000
 Depolar     --     0.0000                 0.0000                 0.0000
 Atom AN      X      Y      Z        X      Y      Z        X      Y      Z
   1   6     0.19   0.21   0.28    -0.29  -0.29  -0.27     0.06  -0.02   0.04
   2   6    -0.55  -0.37   0.14     0.07   0.14   0.66     0.38  -0.55   0.07
   3   6    -0.09   0.04  -0.09    -0.14   0.27  -0.29    -0.13   0.23  -0.38
   4   6    -0.00  -0.10  -0.02     0.18  -0.22  -0.05    -0.31   0.41   0.22
   5   6     0.46   0.21  -0.31     0.18   0.09  -0.05    -0.01  -0.07   0.04
