$hessian                                                                        
        0.3742545422   0.2801851482  -0.0334768896  -0.1231531701   0.0213693031
       -0.0038486308  -0.0660543164   0.0180142111  -0.0031394579  -0.0128705966
       -0.0284778860   0.0036369900  -0.1721764590  -0.2910907764   0.0368279884
        0.2801851482   0.2926218968  -0.0336859640  -0.1188897710   0.0112908047
       -0.0041187062   0.0101834978  -0.0155931992   0.0043652855   0.0264430791
        0.0270176616  -0.0035095920  -0.1979219541  -0.3153371640   0.0369489767
       -0.0334768896  -0.0336859640   0.0202953562   0.0146946353  -0.0028275015
       -0.0112902601  -0.0021686331   0.0043575548   0.0162282364  -0.0035809167
       -0.0040202287  -0.0009498762   0.0245318041   0.0361761394  -0.0242834564
       -0.1231531701  -0.1188897710   0.0146946353   0.0992424608  -0.0054523314
        0.0014130926   0.0816029993  -0.1402947815   0.0192727016  -0.1279411104
        0.1120611280  -0.0157753846   0.0702488203   0.1525757559  -0.0196050448
        0.0213693031   0.0112908047  -0.0028275015  -0.0054523314   0.3138610302
       -0.0387893303  -0.0722599521  -0.1762445949   0.0227624635  -0.0284467392
        0.0159620091  -0.0038887335   0.0847897196  -0.1648692491   0.0227431018
       -0.0038486308  -0.0041187062  -0.0112902601   0.0014130926  -0.0387893303
        0.0239837931   0.0102643579   0.0221854135  -0.0004706357   0.0026822378
       -0.0025986976  -0.0114251725  -0.0105110575   0.0233213207  -0.0007977248
       -0.0660543164   0.0101834978  -0.0021686331   0.0816029993  -0.0722599521
        0.0102643579   0.4426945958  -0.1504511965   0.0233443378  -0.1969621672
        0.2036572869  -0.0282490280  -0.2612811115   0.0088703639  -0.0031910346
        0.0180142111  -0.0155931992   0.0043575548  -0.1402947815  -0.1762445949
        0.0221854135  -0.1504511965   0.4393907672  -0.0539836347   0.2970560257
       -0.2903822792   0.0381205102  -0.0243242588   0.0428293061  -0.0106798438
       -0.0031394579   0.0043652855   0.0162282364   0.0192727016   0.0227624635
       -0.0004706357   0.0233443378  -0.0539836347   0.0455260986  -0.0405174853
        0.0372541180  -0.0249941142   0.0010399039  -0.0103982323  -0.0362895851
       -0.0128705966   0.0264430791  -0.0035809167  -0.1279411104  -0.0284467392
        0.0026822378  -0.1969621672   0.2970560257  -0.0405174853   0.4023511333
       -0.2744506824   0.0394168896  -0.0645772591  -0.0206016832   0.0019992746
       -0.0284778860   0.0270176616  -0.0040202287   0.1120611280   0.0159620091
       -0.0025986976   0.2036572869  -0.2903822792   0.0372541180  -0.2744506824
        0.2644542477  -0.0349678533  -0.0127898466  -0.0170516392   0.0043326617
        0.0036369900  -0.0035095920  -0.0009498762  -0.0157753846  -0.0038887335
       -0.0114251725  -0.0282490280   0.0381205102  -0.0249941142   0.0394168896
       -0.0349678533   0.0211072186   0.0009705330   0.0042456687   0.0162619443
       -0.1721764590  -0.1979219541   0.0245318041   0.0702488203   0.0847897196
       -0.0105110575  -0.2612811115  -0.0243242588   0.0010399039  -0.0645772591
       -0.0127898466   0.0009705330   0.4277860092   0.1502463398  -0.0160311836
       -0.2910907764  -0.3153371640   0.0361761394   0.1525757559  -0.1648692491
        0.0233213207   0.0088703639   0.0428293061  -0.0103982323  -0.0206016832
       -0.0170516392   0.0042456687   0.1502463398   0.4544287462  -0.0533448964
        0.0368279884   0.0369489767  -0.0242834564  -0.0196050448   0.0227431018
       -0.0007977248  -0.0031910346  -0.0106798438  -0.0362895851   0.0019992746
        0.0043326617   0.0162619443  -0.0160311836  -0.0533448964   0.0451088220
