      -----------------------------------------------------------      
     |                   =====================                   |     
     |                           x T B                           |     
     |                   =====================                   |     
     |                         S. Grimme                         |     
     |          Mulliken Center for Theoretical Chemistry        |     
     |                    University of Bonn                     |     
      -----------------------------------------------------------      

   * xtb version 6.2.2 (9d81278992624c895f80dd42a50cac0aa55982e2) compiled by '@Darwin' on 04/03/2020

   xtb is free software: you can redistribute it and/or modify it under
   the terms of the GNU Lesser General Public License as published by
   the Free Software Foundation, either version 3 of the License, or
   (at your option) any later version.
   
   xtb is distributed in the hope that it will be useful,
   but WITHOUT ANY WARRANTY; without even the implied warranty of
   MERCHANTABILITY or FITNESS FOR A PARTICULAR PURPOSE.  See the
   GNU Lesser General Public License for more details.
   
   Cite this work as:
   * S. Grimme, C. Bannwarth, P. Shushkov, J. Chem. Theory Comput., 2017,
     13, 1989-2009. DOI: 10.1021/acs.jctc.7b00118
   * C. Bannwarth, S. Ehlert and S. Grimme., J. Chem. Theory Comput., 2019,
     15, 1652-1671. DOI: 10.1021/acs.jctc.8b01176
   * P. Pracht, E. Caldeweyher, S. Ehlert, S. Grimme, ChemRxiv, 2019, preprint.
     DOI: 10.26434/chemrxiv.8326202.v1
   
   for DFT-D4:
   * E. Caldeweyher, C. Bannwarth and S. Grimme, J. Chem. Phys., 2017,
     147, 034112. DOI: 10.1063/1.4993215
   * E. Caldeweyher, S. Ehlert, A. Hansen, H. Neugebauer, S. Spicher,
     C. Bannwarth and S. Grimme, J. Chem. Phys., 2019, 150, 154122.
     DOI: 10.1063/1.5090222
   
   for sTDA-xTB:
   * S. Grimme and C. Bannwarth, J. Chem. Phys., 2016, 145, 054103.
     DOI: 10.1063/1.4959605
   
   in the mass-spec context:
   * V. Asgeirsson, C. Bauer and S. Grimme, Chem. Sci., 2017, 8, 4879.
     DOI: 10.1039/c7sc00601b
   
   for metadynamics refer to:
   * S. Grimme, J. Chem. Theory Comput., 2019, 155, 2847-2862
     DOI: 10.1021/acs.jctc.9b00143
   
   with help from (in alphabetical order)
   C. Bannwarth, F. Bohle, G. Brandenburg, E. Caldeweyher, M. Checinski,
   S. Dohm, S. Ehlert, S. Ehrlich, F. März, H. Neugebauer, J. Pisarek,
   P. Pracht, P. Shushkov, and S. Spicher.
   
 * started run on 2020/05/12 at 11:44:36.922     

           -------------------------------------------------
          |                Calculation Setup                |
           -------------------------------------------------

          program call               : xtb --input C5_13_S_0.input C5_13_S_0.xyz --ohess --molden --namespace C5_13_S_0 output.out
          calculation namespace      : C5_13_S_0
          coordinate file            : C5_13_S_0.xyz
          number of atoms            :                     5
          number of electrons        :                    20
          charge                     :                     0
          spin                       :                   0.0
          first test random number   :      0.47900170604704

   ID    Z sym.   atoms
    1    6 C      1-5

           -------------------------------------------------
          |                 G F N 2 - x T B                 |
           -------------------------------------------------

        Reference                      10.1021/acs.jctc.8b01176
      * Hamiltonian:
        H0-scaling (s, p, d)           1.850000    2.230000    2.230000
        zeta-weighting                 0.500000
      * Dispersion:
        s8                             2.700000
        a1                             0.520000
        a2                             5.000000
        s9                             5.000000
      * Repulsion:
        kExp                           1.500000    1.000000
        rExp                           1.000000
      * Coulomb:
        alpha                          2.000000
        third order                    shell-resolved
        anisotropic                    true
        a3                             3.000000
        a5                             4.000000
        cn-shift                       1.200000
        cn-exp                         4.000000
        max-rad                        5.000000


          ...................................................
          :                      SETUP                      :
          :.................................................:
          :  # basis functions                  20          :
          :  # atomic orbitals                  20          :
          :  # shells                           10          :
          :  # electrons                        20          :
          :  max. iterations                   250          :
          :  Hamiltonian                  GFN2-xTB          :
          :  restarted?                      false          :
          :  GBSA solvation                  false          :
          :  PC potential                    false          :
          :  electronic temp.          300.0000000     K    :
          :  accuracy                    1.0000000          :
          :  -> integral cutoff          0.2500000E+02      :
          :  -> integral neglect         0.1000000E-07      :
          :  -> SCF convergence          0.1000000E-05 Eh   :
          :  -> wf. convergence          0.1000000E-03 e    :
          :  Broyden damping             0.4000000          :
          ...................................................

 iter      E             dE          RMSdq      gap      omega  full diag
   1    -10.2418956 -0.102419E+02  0.103E+01    0.61       0.0  T
   2    -10.2335810  0.831461E-02  0.626E+00    0.26       1.0  T
   3    -10.0318864  0.201695E+00  0.582E+00    0.86       1.0  T
   4    -10.1927250 -0.160839E+00  0.276E+00    0.68       1.0  T
   5    -10.2545029 -0.617779E-01  0.464E-01    0.41       1.0  T
   6    -10.2545850 -0.820781E-04  0.324E-01    0.40       1.0  T
   7    -10.2545161  0.688843E-04  0.131E-01    0.38       1.0  T
   8    -10.2545658 -0.496780E-04  0.968E-02    0.39       1.0  T
   9    -10.2546149 -0.491367E-04  0.314E-02    0.40       1.4  T
  10    -10.2546178 -0.294212E-05  0.242E-02    0.40       1.8  T
  11    -10.2546218 -0.395365E-05  0.732E-03    0.39       6.1  T
  12    -10.2546222 -0.408148E-06  0.948E-04    0.39      47.2  T
  13    -10.2546222 -0.113525E-09  0.463E-04    0.39      96.7  T

   *** convergence criteria satisfied after 13 iterations ***

         #    Occupation            Energy/Eh            Energy/eV
      -------------------------------------------------------------
         1        2.0000           -0.7588593             -20.6496
       ...           ...                  ...                  ...
         4        2.0000           -0.5939852             -16.1632
         5        2.0000           -0.5499257             -14.9642
         6        2.0000           -0.5314915             -14.4626
         7        2.0000           -0.5010529             -13.6343
         8        2.0000           -0.4947685             -13.4633
         9        2.0000           -0.4629473             -12.5974
        10        1.9990           -0.4195384             -11.4162 (HOMO)
        11        0.0010           -0.4050230             -11.0212 (LUMO)
        12                         -0.3728307             -10.1452
        13                         -0.3557825              -9.6813
        14                         -0.2795190              -7.6061
        15                         -0.1295339              -3.5248
       ...                                ...                  ...
        20                          0.1868025               5.0832
      -------------------------------------------------------------
                  HL-Gap            0.0145154 Eh            0.3950 eV
             Fermi-level           -0.4122807 Eh          -11.2187 eV

 SCC (total)                   0 d,  0 h,  0 min,  0.005 sec
 SCC setup                      ...        0 min,  0.000 sec (  2.038%)
 Dispersion                     ...        0 min,  0.000 sec (  0.475%)
 integral evaluation            ...        0 min,  0.001 sec ( 29.696%)
 zeroth order Hamiltonian       ...        0 min,  0.000 sec (  0.424%)
 iterations                     ...        0 min,  0.002 sec ( 34.345%)
 molecular gradient             ...        0 min,  0.001 sec ( 31.663%)
 printout                       ...        0 min,  0.000 sec (  1.134%)

         :::::::::::::::::::::::::::::::::::::::::::::::::::::
         ::                     SUMMARY                     ::
         :::::::::::::::::::::::::::::::::::::::::::::::::::::
         :: total energy             -10.150035511708 Eh    ::
         :: gradient norm              0.146969755673 Eh/a0 ::
         :: HOMO-LUMO gap              0.394982930542 eV    ::
         ::.................................................::
         :: SCC energy               -10.254622197827 Eh    ::
         :: -> isotropic ES           -0.016670868838 Eh    ::
         :: -> anisotropic ES          0.002463933408 Eh    ::
         :: -> anisotropic XC          0.006632647280 Eh    ::
         :: -> dispersion             -0.002787222904 Eh    ::
         :: repulsion energy           0.104586643504 Eh    ::
         :: add. restraining           0.000000000000 Eh    ::
         :::::::::::::::::::::::::::::::::::::::::::::::::::::

      ----------------------------------------------------------- 
     |                   =====================                   |
     |                        A N C O P T                        |
     |                   =====================                   |
     |               Approximate Normal Coordinate               |
     |                Rational Function Optimizer                |
      ----------------------------------------------------------- 

          ...................................................
          :                      SETUP                      :
          :.................................................:
          :   optimization level            normal          :
          :   max. optcycles                   200          :
          :   ANC micro-cycles                  20          :
          :   degrees of freedom                 9          :
          :.................................................:
          :   RF solver                   davidson          :
          :   write xtbopt.log                true          :
          :   linear?                        false          :
          :   energy convergence         0.5000000E-05 Eh   :
          :   grad. convergence          0.1000000E-02 Eh/α :
          :   maximium RF displ.         1.0000000          :
          :   Hlow (freq-cutoff)         0.1000000E-01      :
          :   Hmax (freq-cutoff)         5.0000000          :
          :   S6 in model hess.         20.0000000          :
          ...................................................

generating ANC from model Hessian ...
Using Lindh-Hessian (1995)
 Shifting diagonal of input Hessian by    0.0000000000000000     
 Lowest  eigenvalues of input Hessian
   -0.000000   -0.000000   -0.000000   -0.000000   -0.000000    0.000000
    0.082500    0.106681    0.547619    0.565642    0.716672    0.802925
    1.134068    1.336044    1.366531
 Highest eigenvalues
    0.565642    0.716672    0.802925    1.134068    1.336044    1.366531


........................................................................
.............................. CYCLE    1 ..............................
........................................................................
   1    -10.2546222 -0.102546E+02  0.934E-05    0.39       0.0  T
   2    -10.2546222  0.192012E-09  0.183E-04    0.39     244.7  T
   3    -10.2546222 -0.236799E-09  0.415E-05    0.39    1078.8  T
     SCC iter.                  ...        0 min,  0.000 sec
     gradient                   ...        0 min,  0.001 sec
 * total energy  :   -10.1500355 Eh     change       -0.6981784E-08 Eh
   gradient norm :     0.1469636 Eh/α   predicted     0.0000000E+00 (-100.00%)
   displ. norm   :     0.3668335 α      lambda       -0.3610300E-01
   maximum displ.:     0.3342344 α      in ANC's #2, #7, #4, ...

........................................................................
.............................. CYCLE    2 ..............................
........................................................................
   1    -10.2857699 -0.102858E+02  0.261E+00    0.76       0.0  T
   2    -10.1899084  0.958615E-01  0.389E+00    0.40       1.0  T
   3    -10.3005032 -0.110595E+00  0.142E+00    0.67       1.0  T
   4    -10.3064877 -0.598453E-02  0.428E-01    0.69       1.0  T
   5    -10.3075048 -0.101713E-02  0.108E-01    0.63       1.0  T
   6    -10.3075033  0.156001E-05  0.606E-02    0.63       1.0  T
   7    -10.3075048 -0.154325E-05  0.548E-02    0.63       1.0  T
   8    -10.3075202 -0.154416E-04  0.658E-03    0.63       6.8  T
   9    -10.3075202  0.662280E-07  0.496E-03    0.63       9.0  T
  10    -10.3075204 -0.209401E-06  0.463E-04    0.63      96.5  T
  11    -10.3075204 -0.159439E-09  0.289E-04    0.63     154.8  T
     SCC iter.                  ...        0 min,  0.001 sec
     gradient                   ...        0 min,  0.002 sec
 * total energy  :   -10.1832586 Eh     change       -0.3322303E-01 Eh
   gradient norm :     0.1189786 Eh/α   predicted    -0.2048064E-01 ( -38.35%)
   displ. norm   :     0.7244403 α      lambda       -0.6584530E-01
   maximum displ.:     0.6177773 α      in ANC's #2, #4, #7, ...

........................................................................
.............................. CYCLE    3 ..............................
........................................................................
   1    -10.3848630 -0.103849E+02  0.340E+00    1.51       0.0  T
   2    -10.3498586  0.350044E-01  0.333E+00    1.19       1.0  T
   3    -10.3974720 -0.476134E-01  0.177E+00    1.41       1.0  T
   4    -10.4044817 -0.700974E-02  0.360E-01    1.45       1.0  T
   5    -10.4050965 -0.614811E-03  0.122E-01    1.38       1.0  T
   6    -10.4051092 -0.126334E-04  0.223E-02    1.38       2.0  T
   7    -10.4051103 -0.114771E-05  0.542E-03    1.38       8.2  T
   8    -10.4051102  0.609925E-07  0.501E-03    1.38       8.9  T
   9    -10.4051104 -0.147914E-06  0.538E-04    1.38      83.1  T
  10    -10.4051104 -0.154893E-08  0.227E-04    1.38     197.2  T
     SCC iter.                  ...        0 min,  0.001 sec
     gradient                   ...        0 min,  0.002 sec
 * total energy  :   -10.2237868 Eh     change       -0.4052827E-01 Eh
   gradient norm :     0.0403604 Eh/α   predicted    -0.5020089E-01 (  23.87%)
   displ. norm   :     0.3535106 α      lambda       -0.9584062E-02
   maximum displ.:     0.3478445 α      in ANC's #2, #5, #4, ...

........................................................................
.............................. CYCLE    4 ..............................
........................................................................
   1    -10.3832244 -0.103832E+02  0.142E+00    1.44       0.0  T
   2    -10.3831993  0.250557E-04  0.887E-01    1.61       1.0  T
   3    -10.3810033  0.219607E-02  0.721E-01    1.38       1.0  T
   4    -10.3834690 -0.246570E-02  0.231E-01    1.53       1.0  T
   5    -10.3838023 -0.333343E-03  0.464E-02    1.54       1.0  T
   6    -10.3838034 -0.111089E-05  0.989E-03    1.54       4.5  T
   7    -10.3838038 -0.356402E-06  0.211E-03    1.54      21.2  T
   8    -10.3838038  0.269424E-07  0.188E-03    1.54      23.7  T
   9    -10.3838038 -0.314159E-07  0.240E-04    1.54     186.7  T
  10    -10.3838038 -0.232317E-09  0.106E-04    1.54     420.6  T
     SCC iter.                  ...        0 min,  0.001 sec
     gradient                   ...        0 min,  0.001 sec
 * total energy  :   -10.2271688 Eh     change       -0.3381968E-02 Eh
   gradient norm :     0.0581770 Eh/α   predicted    -0.5390892E-02 (  59.40%)
   displ. norm   :     0.0552750 α      lambda       -0.2805592E-02
   maximum displ.:     0.0402459 α      in ANC's #7, #5, #8, ...

........................................................................
.............................. CYCLE    5 ..............................
........................................................................
   1    -10.4016339 -0.104016E+02  0.330E-01    1.66       0.0  T
   2    -10.4014966  0.137310E-03  0.285E-01    1.58       1.0  T
   3    -10.4017881 -0.291500E-03  0.163E-01    1.62       1.0  T
   4    -10.4017850  0.311455E-05  0.109E-01    1.63       1.0  T
   5    -10.4018594 -0.744652E-04  0.193E-02    1.61       2.3  T
   6    -10.4018600 -0.613445E-06  0.180E-03    1.61      24.9  T
   7    -10.4018600 -0.313782E-08  0.677E-04    1.61      66.0  T
   8    -10.4018600  0.522823E-09  0.612E-04    1.61      73.1  T
     SCC iter.                  ...        0 min,  0.001 sec
     gradient                   ...        0 min,  0.001 sec
 * total energy  :   -10.2289685 Eh     change       -0.1799708E-02 Eh
   gradient norm :     0.0229449 Eh/α   predicted    -0.1407082E-02 ( -21.82%)
   displ. norm   :     0.0721915 α      lambda       -0.1140782E-02
   maximum displ.:     0.0472497 α      in ANC's #2, #5, #7, ...

........................................................................
.............................. CYCLE    6 ..............................
........................................................................
   1    -10.4087993 -0.104088E+02  0.303E-01    1.66       0.0  T
   2    -10.4087908  0.851014E-05  0.194E-01    1.64       1.0  T
   3    -10.4086377  0.153017E-03  0.179E-01    1.67       1.0  T
   4    -10.4088096 -0.171805E-03  0.455E-02    1.65       1.0  T
   5    -10.4088230 -0.134271E-04  0.104E-02    1.65       4.3  T
   6    -10.4088230 -0.244589E-07  0.556E-04    1.65      80.5  T
   7    -10.4088230  0.390799E-11  0.360E-04    1.65     124.2  T
     SCC iter.                  ...        0 min,  0.001 sec
     gradient                   ...        0 min,  0.002 sec
 * total energy  :   -10.2298993 Eh     change       -0.9307996E-03 Eh
   gradient norm :     0.0196066 Eh/α   predicted    -0.5733619E-03 ( -38.40%)
   displ. norm   :     0.1834710 α      lambda       -0.2541246E-02
   maximum displ.:     0.1095292 α      in ANC's #2, #4, #5, ...

........................................................................
.............................. CYCLE    7 ..............................
........................................................................
   1    -10.4150147 -0.104150E+02  0.739E-01    1.80       0.0  T
   2    -10.4150192 -0.445265E-05  0.451E-01    1.78       1.0  T
   3    -10.4148347  0.184455E-03  0.169E-01    1.81       1.0  T
   4    -10.4150275 -0.192777E-03  0.396E-02    1.79       1.1  T
   5    -10.4150307 -0.315200E-05  0.251E-02    1.78       1.8  T
   6    -10.4150322 -0.148250E-05  0.101E-03    1.79      44.3  T
   7    -10.4150322  0.324716E-08  0.951E-04    1.79      47.0  T
   8    -10.4150322 -0.578977E-08  0.396E-04    1.79     113.0  T
     SCC iter.                  ...        0 min,  0.001 sec
     gradient                   ...        0 min,  0.002 sec
 * total energy  :   -10.2317191 Eh     change       -0.1819841E-02 Eh
   gradient norm :     0.0212447 Eh/α   predicted    -0.1313390E-02 ( -27.83%)
   displ. norm   :     0.1555132 α      lambda       -0.1572162E-02
   maximum displ.:     0.1089598 α      in ANC's #4, #5, #2, ...

........................................................................
.............................. CYCLE    8 ..............................
........................................................................
   1    -10.4137214 -0.104137E+02  0.619E-01    1.87       0.0  T
   2    -10.4136753  0.461199E-04  0.402E-01    1.86       1.0  T
   3    -10.4126677  0.100761E-02  0.400E-01    1.87       1.0  T
   4    -10.4137671 -0.109938E-02  0.378E-02    1.87       1.2  T
   5    -10.4137721 -0.504606E-05  0.198E-02    1.86       2.3  T
   6    -10.4137725 -0.360532E-06  0.196E-03    1.87      22.8  T
   7    -10.4137725  0.976472E-09  0.188E-03    1.87      23.8  T
   8    -10.4137725 -0.271322E-07  0.325E-04    1.87     137.7  T
   9    -10.4137725  0.427461E-09  0.297E-04    1.87     150.7  T
     SCC iter.                  ...        0 min,  0.001 sec
     gradient                   ...        0 min,  0.001 sec
 * total energy  :   -10.2327826 Eh     change       -0.1063491E-02 Eh
   gradient norm :     0.0155732 Eh/α   predicted    -0.8050911E-03 ( -24.30%)
   displ. norm   :     0.0899261 α      lambda       -0.6044530E-03
   maximum displ.:     0.0756176 α      in ANC's #4, #5, #8, ...

........................................................................
.............................. CYCLE    9 ..............................
........................................................................
   1    -10.4112804 -0.104113E+02  0.420E-01    1.86       0.0  T
   2    -10.4112749  0.553489E-05  0.280E-01    1.81       1.0  T
   3    -10.4111402  0.134646E-03  0.217E-01    1.85       1.0  T
   4    -10.4113147 -0.174496E-03  0.997E-02    1.85       1.0  T
   5    -10.4113758 -0.610371E-04  0.119E-02    1.83       3.8  T
   6    -10.4113757  0.108101E-06  0.403E-03    1.83      11.1  T
   7    -10.4113758 -0.132758E-06  0.119E-03    1.83      37.5  T
   8    -10.4113758 -0.834057E-08  0.410E-04    1.83     109.0  T
   9    -10.4113758 -0.553914E-09  0.254E-04    1.83     176.2  T
     SCC iter.                  ...        0 min,  0.001 sec
     gradient                   ...        0 min,  0.001 sec
 * total energy  :   -10.2331356 Eh     change       -0.3529401E-03 Eh
   gradient norm :     0.0088326 Eh/α   predicted    -0.3046720E-03 ( -13.68%)
   displ. norm   :     0.0237263 α      lambda       -0.9207457E-04
   maximum displ.:     0.0148090 α      in ANC's #4, #5, #1, ...

........................................................................
.............................. CYCLE   10 ..............................
........................................................................
   1    -10.4089450 -0.104089E+02  0.131E-01    1.80       0.0  T
   2    -10.4089332  0.117275E-04  0.943E-02    1.80       1.0  T
   3    -10.4089279  0.537187E-05  0.830E-02    1.80       1.0  T
   4    -10.4089536 -0.257844E-04  0.158E-02    1.80       2.8  T
   5    -10.4089551 -0.144822E-05  0.440E-03    1.80      10.2  T
   6    -10.4089550  0.449042E-07  0.340E-03    1.80      13.2  T
   7    -10.4089551 -0.828941E-07  0.353E-04    1.80     126.6  T
   8    -10.4089551 -0.172982E-09  0.198E-04    1.80     226.0  T
     SCC iter.                  ...        0 min,  0.001 sec
     gradient                   ...        0 min,  0.001 sec
 * total energy  :   -10.2331711 Eh     change       -0.3552401E-04 Eh
   gradient norm :     0.0054239 Eh/α   predicted    -0.4606146E-04 (  29.66%)
   displ. norm   :     0.0150829 α      lambda       -0.5414352E-04
   maximum displ.:     0.0133253 α      in ANC's #1, #8, #5, ...

........................................................................
.............................. CYCLE   11 ..............................
........................................................................
   1    -10.4078123 -0.104078E+02  0.944E-02    1.78       0.0  T
   2    -10.4078002  0.121302E-04  0.775E-02    1.77       1.0  T
   3    -10.4078130 -0.127962E-04  0.536E-02    1.77       1.0  T
   4    -10.4078208 -0.780600E-05  0.126E-02    1.78       3.5  T
   5    -10.4078216 -0.859754E-06  0.375E-03    1.77      11.9  T
   6    -10.4078216  0.122905E-07  0.276E-03    1.77      16.2  T
   7    -10.4078217 -0.460110E-07  0.319E-04    1.77     140.3  T
   8    -10.4078217 -0.290576E-10  0.217E-04    1.77     206.2  T
     SCC iter.                  ...        0 min,  0.001 sec
     gradient                   ...        0 min,  0.002 sec
 * total energy  :   -10.2331877 Eh     change       -0.1660630E-04 Eh
   gradient norm :     0.0034009 Eh/α   predicted    -0.2707713E-04 (  63.05%)
   displ. norm   :     0.0125789 α      lambda       -0.1557805E-04
   maximum displ.:     0.0081603 α      in ANC's #4, #2, #5, ...

........................................................................
.............................. CYCLE   12 ..............................
........................................................................
   1    -10.4087887 -0.104088E+02  0.532E-02    1.77       0.0  T
   2    -10.4087869  0.182591E-05  0.388E-02    1.77       1.2  T
   3    -10.4087857  0.122422E-05  0.338E-02    1.77       1.3  T
   4    -10.4087901 -0.444199E-05  0.726E-03    1.77       6.2  T
   5    -10.4087904 -0.287584E-06  0.194E-03    1.77      23.0  T
   6    -10.4087904  0.824429E-08  0.118E-03    1.77      38.0  T
   7    -10.4087904 -0.120477E-07  0.142E-04    1.77     313.9  T
   8    -10.4087904  0.763478E-11  0.115E-04    1.77     387.7  T
     SCC iter.                  ...        0 min,  0.001 sec
     gradient                   ...        0 min,  0.001 sec
 * total energy  :   -10.2331957 Eh     change       -0.8030443E-05 Eh
   gradient norm :     0.0006576 Eh/α   predicted    -0.7791310E-05 (  -2.98%)
   displ. norm   :     0.0043745 α      lambda       -0.1089019E-05
   maximum displ.:     0.0035007 α      in ANC's #2, #4, #7, ...

........................................................................
.............................. CYCLE   13 ..............................
........................................................................
   1    -10.4087153 -0.104087E+02  0.194E-02    1.77       0.0  T
   2    -10.4087152  0.146468E-06  0.150E-02    1.77       3.0  T
   3    -10.4087151  0.219345E-07  0.108E-02    1.77       4.1  T
   4    -10.4087155 -0.326039E-06  0.472E-03    1.77       9.5  T
   5    -10.4087156 -0.133526E-06  0.544E-04    1.77      82.2  T
   6    -10.4087156  0.798645E-09  0.349E-04    1.77     128.2  T
     SCC iter.                  ...        0 min,  0.001 sec
     gradient                   ...        0 min,  0.001 sec
 * total energy  :   -10.2331962 Eh     change       -0.4734930E-06 Eh
   gradient norm :     0.0003964 Eh/α   predicted    -0.5441208E-06 (  14.92%)
   displ. norm   :     0.0018617 α      lambda       -0.3048221E-06
   maximum displ.:     0.0013088 α      in ANC's #2, #4, #5, ...

   *** GEOMETRY OPTIMIZATION CONVERGED AFTER 13 ITERATIONS ***

------------------------------------------------------------------------
 total energy gain   :        -0.0831607 Eh      -52.1841 kcal/mol
 total RMSD          :         0.7621819 a0        0.4033 Å
 total power (kW/mol):       -16.7952590 (step)-4191.5658 (real)
------------------------------------------------------------------------

 ANCopt (total)                0 d,  0 h,  0 min,  0.052 sec
 optimizer setup                ...        0 min,  0.000 sec (  0.119%)
 model hessian                  ...        0 min,  0.000 sec (  0.194%)
 ANC generation                 ...        0 min,  0.000 sec (  0.100%)
 coordinate transformation      ...        0 min,  0.000 sec (  0.054%)
 single point calculation       ...        0 min,  0.051 sec ( 97.400%)
 optimization log               ...        0 min,  0.000 sec (  0.637%)
 hessian update                 ...        0 min,  0.000 sec (  0.054%)
 rational function              ...        0 min,  0.000 sec (  0.574%)

================
 final structure:
================
5
 xtb: 6.2.2 (9d81278992624c895f80dd42a50cac0aa55982e2)
C        -1.50087704652502   -0.41127140931484    0.04016539086325
C         0.01598469466339   -0.63771831265193    0.08399350799986
C         0.71059015133943    0.71006886742675   -0.08646277134485
C         1.51926475720884   -0.33369031555508    0.05744281699323
C        -0.74496155668664    0.67261117009509   -0.09513794451149

 Bond Distances (Angstroems)
 ---------------------------
C1-C2=1.5343         C1-C5=1.3284         C2-C1=1.5343         C2-C3=1.5258         C2-C4=1.5339         C2-C5=1.5258         
C3-C2=1.5258         C3-C4=1.3282         C3-C5=1.4561         C4-C2=1.5339         C4-C3=1.3282         C5-C1=1.3284         
C5-C2=1.5258         C5-C3=1.4561         
 C  C  Rav=1.4618 sigma=0.0881  Rmin=1.3282  Rmax=1.5343     7

 selected bond angles (degree)
 --------------------
C5-C1-C2= 63.94                C3-C2-C1=108.45                C4-C2-C1=159.91                C4-C2-C3= 51.45                
C5-C2-C1= 51.45                C5-C2-C3= 57.00                C5-C2-C4=108.45                C4-C3-C2= 64.59                
C5-C3-C2= 61.50                C5-C3-C4=126.09                C3-C4-C2= 63.96                C2-C5-C1= 64.60                
C3-C5-C1=126.10                C3-C5-C2= 61.50                

 selected dihedral angles (degree)
 ---------------------------------
C3-C2-C1-C5=  0.00            C4-C2-C1-C5=359.94            C4-C3-C2-C1=180.03            C4-C3-C2-C5=180.03            
C5-C3-C2-C1=  0.00            C5-C3-C2-C4=179.97            C3-C4-C2-C1=  0.08            C3-C4-C2-C5=  0.03            
C2-C4-C3-C5=359.97            C3-C5-C1-C2=  0.00            C1-C5-C2-C3=180.00            C1-C5-C2-C4=179.98            
C3-C5-C2-C1=180.00            C3-C5-C2-C4=359.97            C1-C5-C3-C2=  0.00            C1-C5-C3-C4=  0.04            
C2-C5-C3-C4=  0.04            
           -------------------------------------------------
          |                Final Singlepoint                |
           -------------------------------------------------

          ...................................................
          :                      SETUP                      :
          :.................................................:
          :  # basis functions                  20          :
          :  # atomic orbitals                  20          :
          :  # shells                           10          :
          :  # electrons                        20          :
          :  max. iterations                   250          :
          :  Hamiltonian                  GFN2-xTB          :
          :  restarted?                      false          :
          :  GBSA solvation                  false          :
          :  PC potential                    false          :
          :  electronic temp.          300.0000000     K    :
          :  accuracy                    1.0000000          :
          :  -> integral cutoff          0.2500000E+02      :
          :  -> integral neglect         0.1000000E-07      :
          :  -> SCF convergence          0.1000000E-05 Eh   :
          :  -> wf. convergence          0.1000000E-03 e    :
          :  Broyden damping             0.4000000          :
          ...................................................

 iter      E             dE          RMSdq      gap      omega  full diag
   1    -10.4087156 -0.104087E+02  0.128E-04    1.77       0.0  T
   2    -10.4087156  0.289546E-11  0.947E-05    1.77     472.1  T
   3    -10.4087156  0.596412E-10  0.781E-05    1.77     572.8  T

   *** convergence criteria satisfied after 3 iterations ***

         #    Occupation            Energy/Eh            Energy/eV
      -------------------------------------------------------------
         1        2.0000           -0.7577643             -20.6198
       ...           ...                  ...                  ...
         4        2.0000           -0.5917014             -16.1010
         5        2.0000           -0.5773593             -15.7107
         6        2.0000           -0.5484819             -14.9250
         7        2.0000           -0.4920149             -13.3884
         8        2.0000           -0.4589464             -12.4886
         9        2.0000           -0.4500502             -12.2465
        10        2.0000           -0.4388123             -11.9407 (HOMO)
        11                         -0.3737974             -10.1715 (LUMO)
        12                         -0.3430617              -9.3352
        13                         -0.2862145              -7.7883
        14                         -0.2187208              -5.9517
        15                         -0.1952487              -5.3130
       ...                                ...                  ...
        20                          0.5973750              16.2554
      -------------------------------------------------------------
                  HL-Gap            0.0650150 Eh            1.7691 eV
             Fermi-level           -0.4063048 Eh          -11.0561 eV

 SCC (total)                   0 d,  0 h,  0 min,  0.004 sec
 SCC setup                      ...        0 min,  0.000 sec (  1.537%)
 Dispersion                     ...        0 min,  0.000 sec (  0.435%)
 integral evaluation            ...        0 min,  0.001 sec ( 38.943%)
 zeroth order Hamiltonian       ...        0 min,  0.000 sec (  0.429%)
 iterations                     ...        0 min,  0.001 sec ( 15.720%)
 molecular gradient             ...        0 min,  0.001 sec ( 41.392%)
 printout                       ...        0 min,  0.000 sec (  1.320%)

         :::::::::::::::::::::::::::::::::::::::::::::::::::::
         ::                     SUMMARY                     ::
         :::::::::::::::::::::::::::::::::::::::::::::::::::::
         :: total energy             -10.233196205029 Eh    ::
         :: gradient norm              0.000402549388 Eh/a0 ::
         :: HOMO-LUMO gap              1.769146855098 eV    ::
         ::.................................................::
         :: SCC energy               -10.408715605843 Eh    ::
         :: -> isotropic ES           -0.007305970649 Eh    ::
         :: -> anisotropic ES          0.003555553258 Eh    ::
         :: -> anisotropic XC          0.006170191520 Eh    ::
         :: -> dispersion             -0.002762828624 Eh    ::
         :: repulsion energy           0.175519387410 Eh    ::
         :: add. restraining           0.000000000000 Eh    ::
         :::::::::::::::::::::::::::::::::::::::::::::::::::::

           ------------------------------------------------- 
          |                Numerical Hessian                |
           ------------------------------------------------- 
step length          :   0.00500
SCC accuracy         :   0.30000
Hessian scale factor :   1.00000
frozen atoms in %    :   0.00000    0
RMS gradient         :   0.00040
estimated CPU  time      0.00 min
estimated wall time      0.00 min

writing file <hessian>.

 projected vibrational frequencies (cm-1)
eigval :       -0.00    -0.00    -0.00     0.00     0.00     0.00
eigval :     -172.69   274.29   453.58   478.43   528.89   795.08
eigval :     1220.99  1595.47  1624.70
           -------------------------------------------------
          |                Property Printout                |
           -------------------------------------------------

    * Orbital Energies and Occupations

         #    Occupation            Energy/Eh            Energy/eV
      -------------------------------------------------------------
         1        2.0000           -0.7577643             -20.6198
         2        2.0000           -0.7033530             -19.1392
         3        2.0000           -0.6388872             -17.3850
         4        2.0000           -0.5917013             -16.1010
         5        2.0000           -0.5773593             -15.7107
         6        2.0000           -0.5484818             -14.9250
         7        2.0000           -0.4920148             -13.3884
         8        2.0000           -0.4589466             -12.4886
         9        2.0000           -0.4500502             -12.2465
        10        2.0000           -0.4388124             -11.9407 (HOMO)
        11                         -0.3737973             -10.1715 (LUMO)
        12                         -0.3430616              -9.3352
        13                         -0.2862147              -7.7883
        14                         -0.2187207              -5.9517
        15                         -0.1952488              -5.3130
        16                          0.0222467               0.6054
        17                          0.1439909               3.9182
        18                          0.1806421               4.9155
        19                          0.4460316              12.1371
        20                          0.5973751              16.2554
      -------------------------------------------------------------
                  HL-Gap            0.0650151 Eh            1.7692 eV
             Fermi-level           -0.4063049 Eh          -11.0561 eV

     #   Z        covCN         q      C6AA      α(0)
     1   6 C      1.960    -0.142    35.073     9.564
     2   6 C      3.899     0.135    18.350     6.089
Molecule has the following symmetry elements: (C2) 2*(sigma) 
It seems to be the C2v point group
     3   6 C      2.940     0.074    26.339     8.417
     4   6 C      1.960    -0.142    35.073     9.564
     5   6 C      2.940     0.074    26.339     8.417

 Mol. C6AA /au·bohr⁶  :        695.430713
 Mol. C8AA /au·bohr⁸  :      20113.064710
 Mol. α(0) /au        :         42.051210


Wiberg/Mayer (AO) data.
largest (>0.10) Wiberg bond orders for each atom
          total WBO             WBO to atom ...
     1  C   2.876        C    5 1.672    C    2 0.837    C    4 0.247    C    3 0.120
     2  C   3.427        C    3 0.877    C    5 0.877    C    4 0.837    C    1 0.837
     3  C   3.717        C    4 1.672    C    5 1.049    C    2 0.877    C    1 0.120
     4  C   2.876        C    3 1.672    C    2 0.837    C    1 0.247    C    5 0.120
     5  C   3.718        C    1 1.672    C    3 1.049    C    2 0.877    C    4 0.120

MOs/occ written to file <molden.input>


molecular dipole:
                 x           y           z       tot (Debye)
 q only:       -0.006       0.231      -0.030
   full:       -0.019       0.759      -0.099       1.947
molecular quadrupole (traceless):
                xx          xy          yy          xz          yz          zz
 q only:       -2.184      -0.090       1.319      -0.016      -0.062       0.865
  q+dip:       -6.583      -0.257       3.427      -0.055      -0.038       3.156
   full:       -8.329      -0.284       2.629      -0.091       0.407       5.701

           -------------------------------------------------
          |                Geometry Summary                 |
           -------------------------------------------------

      molecular mass/u    :       60.0536795
   center of mass at/Å    :        0.0000002      -0.0000000       0.0000002
  moments of inertia/u·Å² :        0.2005065E+02   0.6754648E+02   0.8759712E+02
rotational constants/cm⁻¹ :        0.8407524E+00   0.2495709E+00   0.1924450E+00

 * 2 selected distances

     #   Z        #   Z                                     value/Å
     3   6 C      4   6 C                                 1.3281930 (min)
     1   6 C      5   6 C                                 1.3283511 (max)

 * 1 distinct bonds (by element types)

   Z      Z             #   av. dist./Å        max./Å        min./Å
   6 C    6 C           2     1.3282721     1.3283511     1.3281930

           -------------------------------------------------
          |               Frequency Printout                |
           -------------------------------------------------
 projected vibrational frequencies (cm-1)
eigval :       -0.00    -0.00    -0.00     0.00     0.00     0.00
eigval :     -172.69   274.29   453.58   478.43   528.89   795.08
eigval :     1220.99  1595.47  1624.70
 reduced masses (amu)
   1: 12.01   2: 12.01   3: 12.01   4: 12.01   5: 12.01   6: 12.01   7: 12.01   8: 12.01
   9: 12.01  10: 12.01  11: 12.01  12: 12.01  13: 12.01  14: 12.01  15: 12.01
 IR intensities (amu)
   1:  0.08   2:  0.07   3:  0.06   4:  0.20   5:  0.09   6:  0.22   7:  0.26   8:  0.55
   9:  0.05  10:  0.36  11:  0.41  12:  0.42  13:  0.05  14:  0.05  15:  0.54
 Raman intensities (amu)
   1:  0.00   2:  0.00   3:  0.00   4:  0.00   5:  0.00   6:  0.00   7:  0.00   8:  0.00
   9:  0.00  10:  0.00  11:  0.00  12:  0.00  13:  0.00  14:  0.00  15:  0.00
 output can be read by thermo (or use thermo option).
 writing <g98.out> molden fake output.
 recommended (thermochemical) frequency scaling factor: 1.0
           -------------------------------------------------
          |             Thermodynamic Functions             |
           -------------------------------------------------

c2v symmetry found (for desy threshold:  0.10E+00) used in thermo

          ...................................................
          :                      SETUP                      :
          :.................................................:
          :  # frequencies                           8      :
          :  # imaginary freq.                       1      :
          :  linear?                             false      :
          :  only rotor calc.                    false      :
          :  symmetry                              c2v      :
          :  rotational number                       2      :
          :  scaling factor                  1.0000000      :
          :  rotor cutoff                   50.0000000 cm⁻¹ :
          :  imag. cutoff                  -20.0000000 cm⁻¹ :
          :.................................................:

    mode    ω/cm⁻¹     T·S(HO)/kcal·mol⁻¹    T·S(FR)/kcal·mol⁻¹   T·S(vib)
   ------------------------------------------------------------------------
       1    274.29    -0.00000 ( 99.89%)     0.01522 (  0.11%)     0.00002
   ------------------------------------------------------------------------

   temp. (K)  partition function   enthalpy   heat capacity  entropy
                                   cal/mol     cal/K/mol   cal/K/mol   J/K/mol
 298.15  VIB   1.90                  790.480      6.510      3.923
         ROT  0.132E+05              888.752      2.981     21.829
         INT  0.249E+05             1679.232      9.491     25.752
         TR   0.450E+27             1481.254      4.968     38.181
         TOT                        3160.4859    14.4589    63.9326   267.4942

   temp. (K)  partition function   enthalpy   heat capacity  entropy
                                   cal/mol     cal/K/mol   cal/K/mol   J/K/mol
 120.00  VIB   1.05                   43.313      1.490      0.456
         ROT  0.336E+04              357.707      2.981     19.116
         INT  0.352E+04              401.020      4.471     19.572
         TR   0.115E+27              596.178      4.968     33.661
         TOT                         997.1981     9.4388    53.2338   222.7300

   temp. (K)  partition function   enthalpy   heat capacity  entropy
                                   cal/mol     cal/K/mol   cal/K/mol   J/K/mol
 100.00  VIB   1.02                   19.533      0.903      0.241
         ROT  0.256E+04              298.089      2.981     18.573
         INT  0.261E+04              317.622      3.884     18.814
         TR   0.875E+26              496.815      4.968     32.756
         TOT                         814.4368     8.8518    51.5697   215.7674

   temp. (K)  partition function   enthalpy   heat capacity  entropy
                                   cal/mol     cal/K/mol   cal/K/mol   J/K/mol
  80.00  VIB   1.01                    6.427      0.432      0.096
         ROT  0.183E+04              238.471      2.981     17.908
         INT  0.184E+04              244.898      3.413     18.004
         TR   0.626E+26              397.452      4.968     31.648
         TOT                         642.3501     8.3810    49.6519   207.7437

   temp. (K)  partition function   enthalpy   heat capacity  entropy
                                   cal/mol     cal/K/mol   cal/K/mol   J/K/mol
  60.00  VIB   1.00                    1.136      0.128      0.022
         ROT  0.119E+04              178.853      2.981     17.050
         INT  0.119E+04              179.990      3.109     17.072
         TR   0.406E+26              298.089      4.968     30.219
         TOT                         478.0786     8.0772    47.2915   197.8675

   temp. (K)  partition function   enthalpy   heat capacity  entropy
                                   cal/mol     cal/K/mol   cal/K/mol   J/K/mol
  40.00  VIB   1.00                    0.041      0.010      0.001
         ROT   646.                  119.236      2.981     15.842
         INT   647.                  119.276      2.991     15.842
         TR   0.221E+26              198.726      4.968     28.206
         TOT                         318.0025     7.9591    44.0482   184.2976

   temp. (K)  partition function   enthalpy   heat capacity  entropy
                                   cal/mol     cal/K/mol   cal/K/mol   J/K/mol
  20.00  VIB   1.00                    0.000      0.000     -0.001
         ROT   229.                   59.618      2.981     13.775
         INT   229.                   59.618      2.981     13.774
         TR   0.782E+25               99.363      4.968     24.764
         TOT                         158.9808     7.9490    38.5379   161.2425

   temp. (K)  partition function   enthalpy   heat capacity  entropy
                                   cal/mol     cal/K/mol   cal/K/mol   J/K/mol
  10.00  VIB   1.00                    0.000      0.000     -0.002
         ROT   80.8                   29.809      2.981     11.709
         INT   80.8                   29.809      2.981     11.707
         TR   0.277E+25               49.681      4.968     21.322
         TOT                          79.4904     7.9490    33.0287   138.1921

       T/K    H(0)-H(T)+PV         H(T)/Eh          T*S/Eh         G(T)/Eh
   ------------------------------------------------------------------------
    298.15    0.503655E-02    0.209187E-01    0.303765E-01   -0.945779E-02
    120.00    0.158914E-02    0.174713E-01    0.101800E-01    0.729125E-02
    100.00    0.129789E-02    0.171800E-01    0.821815E-02    0.896186E-02
     80.00    0.102365E-02    0.169058E-01    0.633003E-02    0.105757E-01
     60.00    0.761867E-03    0.166440E-01    0.452183E-02    0.121222E-01
     40.00    0.506769E-03    0.163889E-01    0.280781E-02    0.135811E-01
     20.00    0.253352E-03    0.161355E-01    0.122828E-02    0.149072E-01
     10.00    0.126676E-03    0.160088E-01    0.526346E-03    0.154824E-01 (used)
   ------------------------------------------------------------------------

         :::::::::::::::::::::::::::::::::::::::::::::::::::::
         ::                  THERMODYNAMIC                  ::
         :::::::::::::::::::::::::::::::::::::::::::::::::::::
         :: total free energy         -10.217713759076 Eh   ::
         ::.................................................::
         :: total energy              -10.233196204961 Eh   ::
         :: zero point energy           0.015882115615 Eh   ::
         :: G(RRHO) w/o ZPVE           -0.000399669730 Eh   ::
         :: G(RRHO) contrib.            0.015482445885 Eh   ::
         :::::::::::::::::::::::::::::::::::::::::::::::::::::
imag cut-off (cm-1) :    5.00
 found            1  significant imaginary frequency
 writing imag mode distorted coords to xtbhess.xyz
 for further optimization.

optimized geometry written to: xtbopt.xyz


           -------------------------------------------------
          | TOTAL ENERGY              -10.233196204961 Eh   |
          | TOTAL ENTHALPY            -10.217187413331 Eh   |
          | TOTAL FREE ENERGY         -10.217713759076 Eh   |
          | GRADIENT NORM               0.000402949410 Eh/α |
          | HOMO-LUMO GAP               1.769150103263 eV   |
           -------------------------------------------------

------------------------------------------------------------------------
 * finished run on 2020/05/12 at 11:44:37.112     
------------------------------------------------------------------------
 total:
 * wall-time:     0 d,  0 h,  0 min,  0.189 sec
 *  cpu-time:     0 d,  0 h,  0 min,  0.189 sec
 * ratio c/w:     0.998 speedup
 SCF:
 * wall-time:     0 d,  0 h,  0 min,  0.005 sec
 *  cpu-time:     0 d,  0 h,  0 min,  0.005 sec
 * ratio c/w:     1.000 speedup
 ANC optimizer:
 * wall-time:     0 d,  0 h,  0 min,  0.056 sec
 *  cpu-time:     0 d,  0 h,  0 min,  0.056 sec
 * ratio c/w:     0.998 speedup
 numerical hessian:
 * wall-time:     0 d,  0 h,  0 min,  0.109 sec
 *  cpu-time:     0 d,  0 h,  0 min,  0.109 sec
 * ratio c/w:     0.997 speedup

