 Entering Gaussian System
 *********************************************
 Gaussian 98:
 frequency output generated by the xtb code
 *********************************************
                         Standard orientation:
 --------------------------------------------------------------------
  Center     Atomic     Atomic              Coordinates (Angstroms)
  Number     Number      Type              X           Y           Z
 --------------------------------------------------------------------
    1          6             0       -1.500879   -0.411263    0.040171
    2          6             0        0.015982   -0.637718    0.083995
    3          6             0        0.710594    0.710065   -0.086466
    4          6             0        1.519263   -0.333698    0.057438
    5          6             0       -0.744958    0.672615   -0.095137
 --------------------------------------------------------------------
     1 basis functions        1 primitive gaussians
     1 alpha electrons        1 beta electrons

 Harmonic frequencies (cm**-1), IR intensities (KM/Mole),
 Raman scattering activities (A**4/amu), Raman depolarization ratios,
 reduced masses (AMU), force constants (mDyne/A) and normal coordinates:
                      1                      2                      3
                        a                      a                      a 
 Frequencies --  -172.6869               274.2925               453.5806
 Red. masses --    12.0107                12.0107                12.0107
 Frc consts  --     0.0000                 0.0000                 0.0000
 IR Inten    --     0.2633                 0.5533                 0.0524
 Raman Activ --     0.0000                 0.0000                 0.0000
 Depolar     --     0.0000                 0.0000                 0.0000
 Atom AN      X      Y      Z        X      Y      Z        X      Y      Z
   1   6    -0.23   0.27  -0.04     0.00  -0.06  -0.46    -0.01   0.04   0.30
   2   6     0.79   0.02   0.01    -0.01   0.10   0.74     0.00  -0.00  -0.00
   3   6    -0.17   0.18  -0.03    -0.00   0.01   0.09    -0.00   0.09   0.63
   4   6    -0.22  -0.28   0.04     0.00  -0.06  -0.46     0.00  -0.04  -0.30
   5   6    -0.16  -0.19   0.02    -0.00   0.01   0.09     0.01  -0.09  -0.63
                      4                      5                      6
                        a                      a                      a 
 Frequencies --   478.4311               528.8923               795.0810
 Red. masses --    12.0107                12.0107                12.0107
 Frc consts  --     0.0000                 0.0000                 0.0000
 IR Inten    --     0.3562                 0.4056                 0.4211
 Raman Activ --     0.0000                 0.0000                 0.0000
 Depolar     --     0.0000                 0.0000                 0.0000
 Atom AN      X      Y      Z        X      Y      Z        X      Y      Z
   1   6     0.45  -0.39   0.06     0.28   0.06  -0.00     0.44   0.16  -0.02
   2   6    -0.01   0.40  -0.05     0.20   0.00   0.00     0.02  -0.59   0.08
   3   6     0.15   0.20  -0.02    -0.37  -0.50   0.07    -0.28   0.14  -0.02
   4   6    -0.43  -0.41   0.05     0.29  -0.04   0.01    -0.45   0.14  -0.02
   5   6    -0.17   0.20  -0.03    -0.40   0.48  -0.07     0.27   0.15  -0.02
                      7                      8                      9
                        a                      a                      a 
 Frequencies --  1220.9900              1595.4715              1624.7038
 Red. masses --    12.0107                12.0107                12.0107
 Frc consts  --     0.0000                 0.0000                 0.0000
 IR Inten    --     0.0470                 0.0520                 0.5425
 Raman Activ --     0.0000                 0.0000                 0.0000
 Depolar     --     0.0000                 0.0000                 0.0000
 Atom AN      X      Y      Z        X      Y      Z        X      Y      Z
   1   6     0.10   0.02  -0.00     0.31   0.35  -0.04     0.37   0.33  -0.04
   2   6    -0.01   0.51  -0.07    -0.01   0.13  -0.02    -0.29  -0.01  -0.00
   3   6    -0.53  -0.28   0.03     0.34  -0.39   0.05    -0.25   0.38  -0.05
   4   6    -0.10   0.01  -0.00    -0.32   0.32  -0.05     0.40  -0.32   0.05
   5   6     0.54  -0.25   0.04    -0.33  -0.41   0.05    -0.23  -0.38   0.05
