5
 energy: -10.150035518690 gnorm: 0.146963647034 xtb: 6.2.2 (9d81278992624c895f80dd42a50cac0aa55982e2)
C        -1.22009900000000   -0.65297700000000   -0.25999600000000
C         0.00571800000000   -0.35310300000000    0.58173900000000
C         0.73673100000000    0.81719000000000   -0.03367700000000
C         1.25491900000000   -0.58944800000000   -0.24572600000000
C        -0.77726800000000    0.77833800000000   -0.04233900000000
5
 energy: -10.183258551401 gnorm: 0.119002931350 xtb: 6.2.2 (9d81278992624c895f80dd42a50cac0aa55982e2)
C        -1.29441217371589   -0.59212828495302   -0.20465761948789
C         0.00803859026159   -0.42663842283438    0.50724870953813
C         0.72997627874305    0.79105995219103   -0.05224278567880
C         1.32537519349294   -0.52489080622950   -0.18954336795908
C        -0.76897688878169    0.75259756182587   -0.06080393641235
5
 energy: -10.223786821262 gnorm: 0.040801259478 xtb: 6.2.2 (9d81278992624c895f80dd42a50cac0aa55982e2)
C        -1.42662183736511   -0.44930619828497   -0.10317653554662
C         0.01243180473963   -0.57008907079475    0.38699234346899
C         0.71039669631333    0.71613461310416   -0.09444090611963
C         1.44889342290208   -0.37551548504398   -0.08659398393430
C        -0.74509908658993    0.67877614101953   -0.10277991786844
5
 energy: -10.227168789134 gnorm: 0.058238690358 xtb: 6.2.2 (9d81278992624c895f80dd42a50cac0aa55982e2)
C        -1.51926741175485   -0.41369882620142   -0.05346757154979
C         0.01446318396208   -0.63190284151055    0.31060734922603
C         0.69825847854070    0.70876290333261   -0.10651671189459
C         1.53898411200516   -0.33519519772120   -0.03585648298292
C        -0.73243736275309    0.67203396210057   -0.11476558279872
5
 energy: -10.228968497163 gnorm: 0.024067570111 xtb: 6.2.2 (9d81278992624c895f80dd42a50cac0aa55982e2)
C        -1.50909140530911   -0.40258319551047   -0.04659294574101
C         0.01461296626201   -0.63507916217920    0.29953389044385
C         0.69835859521611    0.69950980102485   -0.10782400330723
C         1.52818755005016   -0.32463746674834   -0.02908090432250
C        -0.73206670621918    0.66279002341316   -0.11603503707311
5
 energy: -10.229899296764 gnorm: 0.021379119944 xtb: 6.2.2 (9d81278992624c895f80dd42a50cac0aa55982e2)
C        -1.51256491880339   -0.39553797114261   -0.03247376227544
C         0.01491691296864   -0.64008678821808    0.27005557010491
C         0.69845743616539    0.69488501688511   -0.10719183515379
C         1.53110954904008   -0.31741488907413   -0.01494406413941
C        -0.73191797937072    0.65815463154971   -0.11544490853627
5
 energy: -10.231719137801 gnorm: 0.022386798457 xtb: 6.2.2 (9d81278992624c895f80dd42a50cac0aa55982e2)
C        -1.52036252549644   -0.39018578451727    0.00235133756942
C         0.01551650509136   -0.64436951930743    0.18829210186184
C         0.70131613925084    0.69159738216608   -0.10131448555473
C         1.53829400022672   -0.31177189893020    0.02008121520985
C        -0.73476311907249    0.65472982058881   -0.10940916908637
5
 energy: -10.232782629204 gnorm: 0.015773510917 xtb: 6.2.2 (9d81278992624c895f80dd42a50cac0aa55982e2)
C        -1.51708849315244   -0.39773394468194    0.02910218273192
C         0.01582673614514   -0.64020167900618    0.11788011370226
C         0.70612396598883    0.69716884401915   -0.09217940204879
C         1.53473098082648   -0.31916198930793    0.04635562141460
C        -0.73959218980801    0.65992876897689   -0.10115751579998
5
 energy: -10.233135569270 gnorm: 0.008878889571 xtb: 6.2.2 (9d81278992624c895f80dd42a50cac0aa55982e2)
C        -1.50298011114163   -0.40956204494708    0.03806052135298
C         0.01585703382181   -0.63292016346861    0.08538737212930
C         0.70916225092981    0.70620043277196   -0.08699088494272
C         1.52234943980403   -0.33283566572121    0.05671178657621
C        -0.74438761341402    0.66911744136494   -0.09316779511577
5
 energy: -10.233171093283 gnorm: 0.005652814445 xtb: 6.2.2 (9d81278992624c895f80dd42a50cac0aa55982e2)
C        -1.50255757256767   -0.41319065096317    0.04295676591558
C         0.01592368870079   -0.63468081536824    0.07821175262958
C         0.71168014005986    0.70983215817142   -0.08277029029177
C         1.51905775346819   -0.33372474552164    0.05771443443006
C        -0.74410300966117    0.67176405368162   -0.09611166268345
5
 energy: -10.233187699587 gnorm: 0.003517956950 xtb: 6.2.2 (9d81278992624c895f80dd42a50cac0aa55982e2)
C        -1.50005266400945   -0.41212629018697    0.04090512638325
C         0.01598845580261   -0.63672133756671    0.07919438771121
C         0.71047689623119    0.71080996629511   -0.08701049992212
C         1.51965241049891   -0.33565865888619    0.05973471842761
C        -0.74606409852325    0.67369632034476   -0.09282273259995
5
 energy: -10.233195730029 gnorm: 0.000693596849 xtb: 6.2.2 (9d81278992624c895f80dd42a50cac0aa55982e2)
C        -1.50002310579202   -0.41197904689158    0.03942893817997
C         0.01595086391443   -0.63656983393732    0.08448446346183
C         0.71052217489992    0.71029802373124   -0.08643342570275
C         1.51870353879471   -0.33466391889035    0.05702534158820
C        -0.74515247181704    0.67291477598801   -0.09450431752725
5
 energy: -10.233196203522 gnorm: 0.000402643841 xtb: 6.2.2 (9d81278992624c895f80dd42a50cac0aa55982e2)
C        -1.50087704652502   -0.41127140931484    0.04016539086325
C         0.01598469466339   -0.63771831265193    0.08399350799986
C         0.71059015133943    0.71006886742675   -0.08646277134485
C         1.51926475720884   -0.33369031555508    0.05744281699323
C        -0.74496155668664    0.67261117009509   -0.09513794451149
