[Molden Format]
[Title]
[Atoms] AU
C      1     6 -0.28362501058735E+01 -0.77717527135167E+00  0.75912838197537E-01
C      2     6  0.30200936402858E-01 -0.12051127248799E+01  0.15872670951608E+00
C      3     6  0.13428271037575E+01  0.13418282483835E+01 -0.16339797193045E+00
C      4     6  0.28709911126872E+01 -0.63059809135806E+00  0.10854226078766E+00
C      5     6 -0.14077671572416E+01  0.12710578391996E+01 -0.17978194685147E+00
[GTO]
           1 0
 s           4   1.0000000000000000     
   51.049363095579913      -0.16312063210127389     
   8.7911227406887544      -0.19911024581000730     
  0.70640422258929825       0.31882047753655751     
  0.26922813413411617       0.12706504184240380     
 p           4   1.0000000000000000     
   5.8263656140800002       0.73716451545209605     
   1.5106896018720002       0.68216371614850257     
  0.53256483288000001       0.35783053929253711     
  0.21202323690600003        5.3983030275847881E-002

           2 0
 s           4   1.0000000000000000     
   51.049363095579913      -0.16312063210127389     
   8.7911227406887544      -0.19911024581000730     
  0.70640422258929825       0.31882047753655751     
  0.26922813413411617       0.12706504184240380     
 p           4   1.0000000000000000     
   5.8263656140800002       0.73716451545209605     
   1.5106896018720002       0.68216371614850257     
  0.53256483288000001       0.35783053929253711     
  0.21202323690600003        5.3983030275847881E-002

           3 0
 s           4   1.0000000000000000     
   51.049363095579913      -0.16312063210127389     
   8.7911227406887544      -0.19911024581000730     
  0.70640422258929825       0.31882047753655751     
  0.26922813413411617       0.12706504184240380     
 p           4   1.0000000000000000     
   5.8263656140800002       0.73716451545209605     
   1.5106896018720002       0.68216371614850257     
  0.53256483288000001       0.35783053929253711     
  0.21202323690600003        5.3983030275847881E-002

           4 0
 s           4   1.0000000000000000     
   51.049363095579913      -0.16312063210127389     
   8.7911227406887544      -0.19911024581000730     
  0.70640422258929825       0.31882047753655751     
  0.26922813413411617       0.12706504184240380     
 p           4   1.0000000000000000     
   5.8263656140800002       0.73716451545209605     
   1.5106896018720002       0.68216371614850257     
  0.53256483288000001       0.35783053929253711     
  0.21202323690600003        5.3983030275847881E-002

           5 0
 s           4   1.0000000000000000     
   51.049363095579913      -0.16312063210127389     
   8.7911227406887544      -0.19911024581000730     
  0.70640422258929825       0.31882047753655751     
  0.26922813413411617       0.12706504184240380     
 p           4   1.0000000000000000     
   5.8263656140800002       0.73716451545209605     
   1.5106896018720002       0.68216371614850257     
  0.53256483288000001       0.35783053929253711     
  0.21202323690600003        5.3983030275847881E-002

[MO]
Sym=     1a
Ene=  -0.75776428752865488     
Spin= Alpha
Occup=     2.00000000
           1  0.17795309997156528     
           2   8.8228422880224977E-002
           3   3.6950379973054268E-002
           4  -4.0331883631593421E-003
           5  0.35750037800528256     
           6  -3.7370886189898585E-003
           7  0.15191174291617635     
           8  -1.9996721616787547E-002
           9  0.30475508508254406     
          10  -9.3517828507807127E-002
          11 -0.12315400596555244     
          12   1.5270452560933338E-002
          13  0.17807483019483578     
          14  -9.0005403654896815E-002
          15   3.2403598184298346E-002
          16  -5.0480622010846471E-003
          17  0.30467034478639032     
          18   9.9563511363607762E-002
          19 -0.11814140967688924     
          20   1.6437207291920688E-002
Sym=     2a
Ene=  -0.70335302622053097     
Spin= Alpha
Occup=     2.00000000
           1 -0.34422270811831718     
           2  -8.4683905072437865E-002
           3  -6.1019683239302985E-002
           4   7.2198465931384917E-003
           5  -4.9134585330124187E-005
           6  0.30193278649975847     
           7   7.7192199991384979E-003
           8   1.7494314558610875E-003
           9  0.25532727918819337     
          10  0.13318501625619969     
          11 -0.11873187445760794     
          12   1.6761785467562129E-002
          13  0.34413279675949099     
          14  -8.7554548156782971E-002
          15   5.6588192922363369E-002
          16  -8.1767180775598903E-003
          17 -0.25549062705305481     
          18  0.12703572648882061     
          19  0.12545013041359390     
          20  -1.5310982748859090E-002
Sym=     3a
Ene=  -0.63888719373521319     
Spin= Alpha
Occup=     2.00000000
           1 -0.27815640028396282     
           2  -4.0420809915058628E-002
           3   5.4316072985911006E-002
           4  -7.4866053314030087E-003
           5 -0.29729437203323117     
           6  -5.2930035849186622E-003
           7  0.21045196833163626     
           8  -2.7597637591733566E-002
           9  0.27869181158370976     
          10 -0.26748537016688401     
          11  0.20712495124449506     
          12  -2.9615150984075213E-002
          13 -0.27810433386304406     
          14   3.7666850849757391E-002
          15   5.6403552443582868E-002
          16  -7.0794764300252770E-003
          17  0.27861025983638243     
          18  0.25686391794032731     
          19  0.22058518512153183     
          20  -2.6530607247154992E-002
Sym=     4a
Ene=  -0.59170133728240315     
Spin= Alpha
Occup=     2.00000000
           1 -0.25869091399893929     
           2  0.13709740908594051     
           3 -0.22342790289034534     
           4   3.0720070223839529E-002
           5  0.43275721456457550     
           6   3.2609914224665274E-003
           7 -0.12810674937905431     
           8   1.7095203916693624E-002
           9 -0.22637819790341437     
          10 -0.29206923536254453     
          11  -5.6690540099799777E-002
          12   5.0425449726279421E-003
          13 -0.25853929428967865     
          14 -0.12590826996069018     
          15 -0.23041722012718618     
          16   2.9183869526792392E-002
          17 -0.22612179232489826     
          18  0.29437009375172069     
          19  -4.1577106910222497E-002
          20   8.4077626585958454E-003
Sym=     5a
Ene=  -0.57735926355063161     
Spin= Alpha
Occup=     2.00000000
           1   1.8259330898349649E-004
           2  -2.2452724497575524E-003
           3   3.0670369269058157E-002
           4  0.23279304086519731     
           5  -1.5681652470766791E-004
           6  -4.3139303641269141E-003
           7   6.1691921551329049E-002
           8  0.46927301981642527     
           9   2.4319312989573531E-004
          10  -3.5058543804060214E-003
          11   5.3575258427171694E-002
          12  0.40858916979472309     
          13   6.3862462907892539E-005
          14  -1.9918601378942874E-003
          15   3.0730843062427033E-002
          16  0.23293562067660203     
          17   3.3347210574636422E-006
          18  -3.9816047127633637E-003
          19   5.3584428079031549E-002
          20  0.40848733167858903     
Sym=     6a
Ene=  -0.54848183576700293     
Spin= Alpha
Occup=     2.00000000
           1 -0.10892139922973233     
           2 -0.11831122315941123     
           3  0.31711742486278116     
           4  -4.2707552276313149E-002
           5  -1.7329080359590975E-004
           6  0.36393218515087428     
           7   9.3642696853074772E-003
           8   2.1451849885181693E-003
           9 -0.33785554137941082     
          10 -0.22420631604954042     
          11 -0.17065021389188370     
          12   2.0442286847276198E-002
          13  0.10911366210031168     
          14 -0.10225651515471140     
          15 -0.32264588549788864     
          16   4.1442281893596410E-002
          17  0.33813291964068676     
          18 -0.23256756147444649     
          19  0.15916884463372158     
          20  -2.2983499577902116E-002
Sym=     7a
Ene=  -0.49201480350607840     
Spin= Alpha
Occup=     2.00000000
           1 -0.19839758224873674     
           2   2.9976269304399422E-002
           3  0.14827084102976881     
           4  -1.9262164337512835E-002
           5 -0.25261352227917694     
           6  -1.3317731806953000E-002
           7  0.53341641750581037     
           8  -7.0147497824631616E-002
           9 -0.24231865295396873     
          10  -2.1093434477070371E-002
          11 -0.40086284282423568     
          12   5.2419797661628555E-002
          13 -0.19815074506825101     
          14  -3.7211844221910463E-002
          15  0.14648579948197443     
          16  -1.9538023214936764E-002
          17 -0.24205782885712016     
          18   4.0954771267679532E-002
          19 -0.39913538906641371     
          20   5.2675204451132419E-002
Sym=     8a
Ene=  -0.45894659260732484     
Spin= Alpha
Occup=     2.00000000
           1 -0.47209672813322284     
           2  0.45740214710560029     
           3  0.11169263630813947     
           4  -9.6494496521199510E-003
           5   2.8956578787702635E-004
           6 -0.22290923911863908     
           7  -6.0445525734048105E-003
           8  -1.1842070722993842E-003
           9 -0.16839085173810039     
          10   5.0338404748274612E-002
          11   2.5454860823872667E-002
          12  -3.5444575433373282E-003
          13  0.47135126610409467     
          14  0.46182624372978159     
          15  -8.7628876076005793E-002
          16   1.4904396902178119E-002
          17  0.16875660139928628     
          18   5.0959641270159221E-002
          19  -2.2642276926702332E-002
          20   4.1642236613684868E-003
Sym=     9a
Ene=  -0.45005015612069676     
Spin= Alpha
Occup=     2.00000000
           1   1.1793842208934449E-003
           2  -5.6725882649483273E-003
           3   6.4272715726897675E-002
           4  0.49346403464175631     
           5  -2.9971527178691495E-004
           6   3.0676224015573994E-004
           7   2.8311497717705168E-004
           8  -4.9261720649347381E-005
           9  -2.1714257473858941E-005
          10   3.6022786613734347E-003
          11  -5.8085854697555096E-002
          12 -0.44132197906991300     
          13  -1.6522848669836871E-004
          14   4.0224622951021711E-003
          15  -6.4784949576509723E-002
          16 -0.49328279506590678     
          17  -4.2093613064841874E-004
          18  -3.8645465284899445E-003
          19   5.7948557785594414E-002
          20  0.44156346413964476     
Sym=    10a
Ene=  -0.43881240555101086     
Spin= Alpha
Occup=     2.00000000
           1 -0.41876249236779495     
           2  0.32819704603886596     
           3  0.29914965632851215     
           4  -3.5618812062252321E-002
           5  0.24348870496672828     
           6   5.6887768872440842E-003
           7 -0.22087162133871796     
           8   2.9106397006116634E-002
           9  0.10465083093422328     
          10  0.27196588096611163     
          11   6.0377277022644650E-002
          12  -6.0650986994739715E-003
          13 -0.41960791139034892     
          14 -0.34364447301730466     
          15  0.28188191098033460     
          16  -4.0601657348377958E-002
          17  0.10428181339388008     
          18 -0.27474983586728718     
          19   4.6463135300209298E-002
          20  -8.2134081696537357E-003
Sym=    11a
Ene=  -0.37379733557158529     
Spin= Alpha
Occup=     0.00000000
           1  -1.0190177621643055E-004
           2   1.1693371516570022E-003
           3  -1.4209609197179281E-002
           4 -0.11097634020394595     
           5  -1.3075478257899487E-004
           6   7.2966779631658853E-003
           7 -0.10212460504072339     
           8 -0.77866516658170448     
           9   4.3070287605075362E-004
          10  -4.4056441580520413E-003
          11   6.6051291226126838E-002
          12  0.49869713159141171     
          13   3.2684435279356059E-006
          14   8.2875662392567723E-004
          15  -1.4978834491913997E-002
          16 -0.11084044957980992     
          17  -3.2399615731359862E-004
          18  -4.6311183964943062E-003
          19   6.4912315110751961E-002
          20  0.49863295134724073     
Sym=    12a
Ene=  -0.34306157018069899     
Spin= Alpha
Occup=     0.00000000
           1   1.7643173481239869E-002
           2   3.0656659449179106E-002
           3 -0.39193760216927148     
           4   5.1540150146097120E-002
           5   4.2514933999040937E-005
           6 -0.19736645580179263     
           7  -5.2937626631815553E-003
           8  -2.0088314658942906E-003
           9 -0.31521182357419741     
          10  -5.0154516763471213E-002
          11 -0.56243768751698675     
          12   7.3834453118965110E-002
          13  -1.7663885779552319E-002
          14   1.1028930740150057E-002
          15  0.39292804027852607     
          16  -5.1343039243786671E-002
          17  0.31526019639506653     
          18  -7.8178868556226300E-002
          19  0.55934588065747204     
          20  -7.3552608548697704E-002
Sym=    13a
Ene=  -0.28621470309172531     
Spin= Alpha
Occup=     0.00000000
           1   3.0386313769223433E-005
           2  -6.1819271731704565E-003
           3   8.9167485998478846E-002
           4  0.67980105432091975     
           5  -2.1103862409195073E-004
           6   4.3271304416913729E-003
           7  -6.2022614398202752E-002
           8 -0.47317039675462147     
           9  -3.2972479665590398E-005
          10   1.8107208430927035E-003
          11  -2.4837016735784982E-002
          12 -0.18999046840694500     
          13  -2.9163031997372649E-005
          14  -6.2195762029470993E-003
          15   8.8894176879121337E-002
          16  0.67938939116494867     
          17   4.3378409357075754E-005
          18   1.8536171665165168E-003
          19  -2.5075667161585567E-002
          20 -0.19065397074993479     
Sym=    14a
Ene=  -0.21872065856485085     
Spin= Alpha
Occup=     0.00000000
           1   1.6893713613244786E-005
           2  -4.6017371723389502E-003
           3   6.8499320926975082E-002
           4  0.52414701384981122     
           5  -1.4891198270905568E-004
           6  -6.8287659965134752E-005
           7   3.2772225795565582E-004
           8   3.1371545178080661E-004
           9   1.2792676824563063E-004
          10  -5.8202399660680819E-003
          11   8.5601816635434730E-002
          12  0.65289782180200062     
          13   5.9567643878475698E-005
          14   4.5130962967047297E-003
          15  -6.9027263941392400E-002
          16 -0.52477646897433472     
          17   7.6555727183833536E-005
          18   5.8125443516932433E-003
          19  -8.5448929966586748E-002
          20 -0.65276519544447931     
Sym=    15a
Ene=  -0.19524882092328624     
Spin= Alpha
Occup=     0.00000000
           1   9.7509295302039528E-002
           2  0.52249694308569117     
           3 -0.44248596059456796     
           4   6.2508719172379296E-002
           5 -0.45667781392969448     
           6  -9.5707165401872282E-003
           7  0.39991713393779765     
           8  -5.2149227915987847E-002
           9   6.0745045304943589E-002
          10  0.22731912076356545     
          11  0.15229559888195082     
          12  -1.8347263525855407E-002
          13   9.7371756346116584E-002
          14 -0.49940440254753971     
          15 -0.46837378430408905     
          16   5.7072410836568187E-002
          17   6.0741370275786674E-002
          18 -0.23475692459832576     
          19  0.14032745186480669     
          20  -2.0287474780318612E-002
Sym=    16a
Ene=    2.2246729783149368E-002
Spin= Alpha
Occup=     0.00000000
           1  0.18910269782213077     
           2  0.31115954500367426     
           3  0.12499471751675251     
           4  -1.3510774526345037E-002
           5 -0.84275181631085472     
           6   2.0980975127713190E-002
           7 -0.80684184986386942     
           8  0.10621501016173768     
           9  0.10289552056503019     
          10 -0.33210717030019282     
          11 -0.33860443245031313     
          12   4.1558755520921684E-002
          13  0.18858030998299910     
          14 -0.31595356661161406     
          15  0.10936176828932845     
          16  -1.7247798436544955E-002
          17  0.10250892111044707     
          18  0.34789724336634470     
          19 -0.32123056801110245     
          20   4.5324460372059477E-002
Sym=    17a
Ene=   0.14399091908724387     
Spin= Alpha
Occup=     0.00000000
           1  0.22081773719263187     
           2  0.50507228464260800     
           3 -0.38748636792176033     
           4   5.5619935235943344E-002
           5   1.1455374480166438E-003
           6   1.0117734252956685     
           7   2.6573407633344145E-002
           8   5.6994700201826827E-003
           9   3.9071504393814738E-003
          10 -0.35128227072019014     
          11  0.18673109537638993     
          12  -2.7746925795202861E-002
          13 -0.22133469048633361     
          14  0.48611120474811992     
          15  0.41335010309269049     
          16  -4.9863198968046495E-002
          17  -4.3325426170605242E-003
          18 -0.34181792234480474     
          19 -0.20396780549931082     
          20   2.3607740231610372E-002
Sym=    18a
Ene=   0.18064207340380417     
Spin= Alpha
Occup=     0.00000000
           1  -2.3859169271886648E-002
           2 -0.16270573852305903     
           3 -0.18977783077602545     
           4   2.3399739696515095E-002
           5  -2.0333749728693000E-004
           6  0.35822968122075860     
           7   8.9086499998355245E-003
           8   2.2052339116242908E-003
           9 -0.75986151835660776     
          10  0.66377352697993852     
          11  0.35089185849115340     
          12  -3.9737639546095972E-002
          13   2.3569251260753796E-002
          14 -0.17178288772597397     
          15  0.18098398030416801     
          16  -2.5390686000277850E-002
          17  0.76035192578416422     
          18  0.68032873703584140     
          19 -0.31681566301006631     
          20   4.7916325575642078E-002
Sym=    19a
Ene=   0.44603158721211883     
Spin= Alpha
Occup=     0.00000000
           1  0.52144020060474894     
           2  0.36649217724848304     
           3  0.53220042833727599     
           4  -6.6473055691368618E-002
           5  0.10521140272855739     
           6  -6.6619730551597681E-003
           7  0.28204659197719717     
           8  -3.7039912786314015E-002
           9 -0.64169741233854605     
          10 -0.33985735013497670     
          11  0.52633251483427501     
          12  -7.1939856201727215E-002
          13  0.52002918040055157     
          14 -0.39147303014199086     
          15  0.51169461915964087     
          16  -7.0510384353197439E-002
          17 -0.64157251646521873     
          18  0.31548875649875519     
          19  0.54427143491766261     
          20  -6.8613769326130974E-002
Sym=    20a
Ene=   0.59737509660370613     
Spin= Alpha
Occup=     0.00000000
           1  0.64017680034054414     
           2  0.45325942636470645     
           3  0.47479513217311742     
           4  -5.8143224191528613E-002
           5   1.2890540859842044E-004
           6  0.34107453716214536     
           7   8.5597980267650177E-003
           8   1.9626153704275853E-003
           9  0.21885059622564892     
          10  0.67231783651162691     
          11 -0.52421135049911727     
          12   7.4791423579931307E-002
          13 -0.64185276919080603     
          14  0.47747627378175528     
          15 -0.45237946470125301     
          16   6.3438829108733608E-002
          17 -0.21711261868630419     
          18  0.64443340127622972     
          19  0.55663127317737138     
          20  -6.7026019987963328E-002
