5
 energy: -9.391820567028 gnorm: 0.196357943141 xtb: 6.2.2 (9d81278992624c895f80dd42a50cac0aa55982e2)
C         0.91147900000000   -0.20597400000000   -0.39085200000000
N        -0.19458800000000   -0.07394400000000    0.53931800000000
C        -1.19223800000000    0.78460100000000   -0.11543900000000
C        -1.36888400000000   -0.66112600000000   -0.12169700000000
H         1.84423100000000    0.15644300000000    0.08867000000000
5
 energy: -9.438175315443 gnorm: 0.169007911367 xtb: 6.2.2 (9d81278992624c895f80dd42a50cac0aa55982e2)
C         0.95967687735720   -0.22534363830479   -0.35822512568092
N        -0.14902957716076   -0.09170172659538    0.43560007225882
C        -1.23872687833800    0.74577813528106   -0.09657107511190
C        -1.44056522135982   -0.60799435070898   -0.09002978644699
H         1.86864479950138    0.17926158032808    0.10922591498100
5
 energy: -9.417846488959 gnorm: 0.572835921035 xtb: 6.2.2 (9d81278992624c895f80dd42a50cac0aa55982e2)
C         1.01212421080873   -0.28511109116820   -0.23122516849983
N        -0.01396158990987   -0.05143338790846    0.19091525156042
C        -1.40639512285876    0.64286070463153   -0.01979014579783
C        -1.49369858145240   -0.48407671327699   -0.06944318610223
H         1.90193108341231    0.17776048772211    0.12954324883947
5
 energy: -9.480250287412 gnorm: 0.096604423314 xtb: 6.2.2 (9d81278992624c895f80dd42a50cac0aa55982e2)
C         1.07185711840198   -0.32999163774642   -0.25302338390924
N        -0.08676013039047   -0.03369849307916    0.20755542575655
C        -1.42030845459867    0.72749278483535    0.00532953459359
C        -1.50213160414876   -0.56018881395552   -0.07972392956193
H         1.93734307073592    0.19638615994575    0.11986235312103
5
 energy: -9.488416905315 gnorm: 0.066047287147 xtb: 6.2.2 (9d81278992624c895f80dd42a50cac0aa55982e2)
C         1.02158253179799   -0.35086006576588   -0.19189239315884
N        -0.10562676170203   -0.06544060861958    0.21891985808362
C        -1.34941376072877    0.74143969085462    0.00432300419854
C        -1.48131106546518   -0.56275507289726   -0.10272003689479
H         1.91476905609799    0.23761605642810    0.07136956777147
5
 energy: -9.496602074535 gnorm: 0.044543203682 xtb: 6.2.2 (9d81278992624c895f80dd42a50cac0aa55982e2)
C         1.02835668398002   -0.34762560908437   -0.10305895026489
N        -0.13151301953000   -0.06726538786216    0.14386656605296
C        -1.36174375922181    0.74100928828555    0.02803522910283
C        -1.48770448181811   -0.56243771994886   -0.09985322749783
H         1.95260457658991    0.23631942860985    0.03101038260693
5
 energy: -9.500968499591 gnorm: 0.023555588488 xtb: 6.2.2 (9d81278992624c895f80dd42a50cac0aa55982e2)
C         1.05301240665097   -0.34128926103256   -0.05059974671423
N        -0.13622956800176   -0.07071563733661    0.03547183261323
C        -1.36618607725795    0.74345057914307    0.05356608849257
C        -1.49412277829860   -0.56271676759436   -0.06679070043582
H         1.94352601690734    0.23127108682046    0.02835252604426
5
 energy: -9.498745928684 gnorm: 0.064038414379 xtb: 6.2.2 (9d81278992624c895f80dd42a50cac0aa55982e2)
C         1.06299536817088   -0.42714746541433    0.01343220500333
N        -0.14296494788300   -0.11744366350601   -0.01059709214074
C        -1.31908273034979    0.75708118835329    0.07933268414747
C        -1.50778866370538   -0.53306623231336   -0.07596481963379
H         1.90684097376729    0.32057617288041   -0.00620297737627
5
 energy: -9.501914373459 gnorm: 0.011729549663 xtb: 6.2.2 (9d81278992624c895f80dd42a50cac0aa55982e2)
C         1.04597027095722   -0.36887476695880   -0.02044287529503
N        -0.13711676615121   -0.10588603265748   -0.00448670117401
C        -1.31600054353781    0.75079821800073    0.06095404370025
C        -1.49207077578281   -0.54948280336668   -0.05477619532135
H         1.89921781451461    0.27344538498223    0.01875172809014
5
 energy: -9.502035857165 gnorm: 0.006740232624 xtb: 6.2.2 (9d81278992624c895f80dd42a50cac0aa55982e2)
C         1.05438930075152   -0.37138120159837   -0.02451177930686
N        -0.13353014133771   -0.10528228181956   -0.00980618132027
C        -1.32813945387529    0.75014293819950    0.06214090503972
C        -1.49888881615403   -0.54667396319462   -0.05180533338838
H         1.90616911061550    0.27319450841305    0.02398238897579
5
 energy: -9.502077121313 gnorm: 0.003779629541 xtb: 6.2.2 (9d81278992624c895f80dd42a50cac0aa55982e2)
C         1.05315060267711   -0.37355608505526   -0.02284058384508
N        -0.13468540206738   -0.11027945774121   -0.00997375902881
C        -1.32367191174327    0.75094764036734    0.06120433477275
C        -1.49774776292589   -0.54443781663745   -0.05096339192363
H         1.90295447405943    0.27732571906658    0.02257340002477
5
 energy: -9.502106387241 gnorm: 0.003317210852 xtb: 6.2.2 (9d81278992624c895f80dd42a50cac0aa55982e2)
C         1.05308411870270   -0.37543324618610   -0.02329426865108
N        -0.13475650308030   -0.11780814903576   -0.01182229431218
C        -1.31955281424397    0.75280778791797    0.05923417803514
C        -1.49751072491923   -0.54163114476602   -0.04751966364945
H         1.89873592354080    0.28206475206991    0.02340204857757
5
 energy: -9.502123546462 gnorm: 0.002895025659 xtb: 6.2.2 (9d81278992624c895f80dd42a50cac0aa55982e2)
C         1.05390688435117   -0.37560807978676   -0.02497463838557
N        -0.13513078387735   -0.12400643839785   -0.01218886624083
C        -1.31849493382454    0.75477192846380    0.05678234639810
C        -1.49747285658465   -0.53963476014035   -0.04423725854193
H         1.89719168993537    0.28447734986116    0.02461841677023
5
 energy: -9.502130493698 gnorm: 0.001384502911 xtb: 6.2.2 (9d81278992624c895f80dd42a50cac0aa55982e2)
C         1.05470310196324   -0.37562193158260   -0.02712261291308
N        -0.13494915695838   -0.12712200378121   -0.01125210110096
C        -1.31909956290646    0.75641005572622    0.05509528873952
C        -1.49736764590650   -0.53895408160807   -0.04255197559260
H         1.89671326380810    0.28528796124566    0.02583140086713
5
 energy: -9.502131631056 gnorm: 0.000538372598 xtb: 6.2.2 (9d81278992624c895f80dd42a50cac0aa55982e2)
C         1.05509955889453   -0.37516635499608   -0.02773838094641
N        -0.13507079867132   -0.12680123536387   -0.01009319397774
C        -1.32084026114134    0.75700961423071    0.05472055191055
C        -1.49664951685833   -0.53929744245781   -0.04274177905136
H         1.89746101777646    0.28425541858705    0.02585280206496
