[Molden Format]
[Title]
[Atoms] AU
C      1     6  0.19938451204120E+01 -0.70897212758317E+00 -0.52423660740124E-01
N      2     7 -0.25524811445898E+00 -0.23961828168628E+00 -0.19072061376429E-01
C      3     6 -0.24960182650620E+01  0.14305539614968E+01  0.10341306291468E+00
C      4     6 -0.28282630470130E+01 -0.10191097036346E+01 -0.80758597803453E-01
H      5     1  0.35856843061219E+01  0.53714615140726E+00  0.48841257005323E-01
[GTO]
           1 0
 s           4   1.0000000000000000     
   51.049363095579913      -0.16312063210127389     
   8.7911227406887544      -0.19911024581000730     
  0.70640422258929825       0.31882047753655751     
  0.26922813413411617       0.12706504184240380     
 p           4   1.0000000000000000     
   5.8263656140800002       0.73716451545209605     
   1.5106896018720002       0.68216371614850257     
  0.53256483288000001       0.35783053929253711     
  0.21202323690600003        5.3983030275847881E-002

           2 0
 s           4   1.0000000000000000     
   63.594024466941008      -0.19234388414721629     
   10.951417231523665      -0.23478107924953728     
  0.87999310257376984       0.37593753901700888     
  0.33538715296521110       0.14982889271862770     
 p           4   1.0000000000000000     
   7.2965040481495080       0.97658666315667420     
   1.8918745450712575       0.90372226730345739     
  0.66694432110824120       0.47404958461536373     
  0.26552202674130870        7.1516067715011844E-002

           3 0
 s           4   1.0000000000000000     
   51.049363095579913      -0.16312063210127389     
   8.7911227406887544      -0.19911024581000730     
  0.70640422258929825       0.31882047753655751     
  0.26922813413411617       0.12706504184240380     
 p           4   1.0000000000000000     
   5.8263656140800002       0.73716451545209605     
   1.5106896018720002       0.68216371614850257     
  0.53256483288000001       0.35783053929253711     
  0.21202323690600003        5.3983030275847881E-002

           4 0
 s           4   1.0000000000000000     
   51.049363095579913      -0.16312063210127389     
   8.7911227406887544      -0.19911024581000730     
  0.70640422258929825       0.31882047753655751     
  0.26922813413411617       0.12706504184240380     
 p           4   1.0000000000000000     
   5.8263656140800002       0.73716451545209605     
   1.5106896018720002       0.68216371614850257     
  0.53256483288000001       0.35783053929253711     
  0.21202323690600003        5.3983030275847881E-002

           5 0
 s           3   1.0000000000000000     
   3.3702276975336001       0.27359110588908298     
  0.61389118221497996       0.26460540653860526     
  0.16614291148415999        8.2465947534082318E-002

[MO]
Sym=     1a
Ene=  -0.71326655375608616     
Spin= Alpha
Occup=     2.00000000
           1   7.1149727590890527E-002
           2  -8.1177510679645765E-002
           3   1.5013140105610891E-002
           4   1.0407944357093179E-003
           5  0.46664128423836548     
           6 -0.20079396607805336     
           7   2.9682970238690588E-002
           8   1.9408540242297821E-003
           9  0.31286137688147281     
          10   8.6451331546911980E-002
          11 -0.14221382287910875     
          12  -1.0566245870225323E-002
          13  0.32303851208863449     
          14  0.13352029274818253     
          15  0.11138769758605929     
          16   8.5163419444129283E-003
          17   3.9601839571777285E-003
Sym=     2a
Ene=  -0.67294243081382565     
Spin= Alpha
Occup=     2.00000000
           1 -0.43872368262891959     
           2  0.19145983158202579     
           3  -4.8065927976898085E-002
           4  -3.4949422536236694E-003
           5 -0.36673936842183752     
           6 -0.37856272328056861     
           7   7.2402787884866093E-002
           8   5.0426023473903788E-003
           9  0.16866233595472033     
          10  -2.8709925607150515E-002
          11  -6.0519401340010937E-002
          12  -4.5638661541074054E-003
          13  0.16113600600317304     
          14  -1.8154354886241474E-002
          15   7.2250718600883224E-002
          16   5.4101334391167075E-003
          17  -8.4647273270367626E-002
Sym=     3a
Ene=  -0.58996725091384483     
Spin= Alpha
Occup=     2.00000000
           1   9.5296919780674824E-002
           2  0.13079979690892032     
           3  0.22934528723078285     
           4   1.7627821836380807E-002
           5  -7.0943745818481771E-002
           6  0.11628562000904473     
           7  0.56850332917075819     
           8   4.3123400616365333E-002
           9  0.35080563925362235     
          10  0.10460145204420052     
          11   8.5534190447660821E-002
          12   6.6448618641071888E-003
          13 -0.22245034162265426     
          14 -0.15488718803699220     
          15  0.20215407869866620     
          16   1.5079661620948820E-002
          17  0.17038656134838667     
Sym=     4a
Ene=  -0.56283350043981906     
Spin= Alpha
Occup=     2.00000000
           1   3.6213310433441939E-003
           2   2.2606995264464742E-003
           3  -2.3612721144670605E-002
           4  0.30853523809059297     
           5  -2.5543756975112998E-003
           6  -5.9654423332705859E-004
           7  -5.5516926448956609E-002
           8  0.70319430078099221     
           9   6.6575202789144927E-004
          10  -3.1534386456019202E-003
          11  -2.1258720929598310E-002
          12  0.26577271264333718     
          13   3.8747116925350379E-003
          14  -1.7408793123301627E-003
          15  -2.1335399609328076E-002
          16  0.28750186297070185     
          17   3.6064736892669853E-003
Sym=     5a
Ene=  -0.56001203042107317     
Spin= Alpha
Occup=     2.00000000
           1 -0.38291291863001253     
           2 -0.23518498331869511     
           3   3.5569087836744201E-002
           4   5.2348864274367416E-003
           5  0.27993748871501090     
           6  -5.8881448886115101E-002
           7  0.23660748969695708     
           8   2.4924037642951244E-002
           9 -0.11687126308430269     
          10  0.30295562629828476     
          11  0.12574817760048868     
          12   1.2623727915461196E-002
          13 -0.38426222270625388     
          14  0.17879222277777540     
          15  -5.2569696294344020E-002
          16  -6.7928233035672192E-004
          17 -0.31146785648596703     
Sym=     6a
Ene=  -0.52159324263153117     
Spin= Alpha
Occup=     2.00000000
           1 -0.10377625713413496     
           2 -0.36007178251269434     
           3  -8.2564664400628471E-002
           4  -6.6714196344958331E-003
           5  -4.8736772174057925E-002
           6  0.33409487487429085     
           7  -2.0773233612206357E-002
           8  -2.9509410989711466E-004
           9  0.33720679827184941     
          10 -0.30828119921600489     
          11   3.0873740141136845E-002
          12   2.4818618565541472E-003
          13   8.4536143629464905E-002
          14 -0.31605241951302532     
          15  0.19570863998922511     
          16   1.4868260915557843E-002
          17 -0.34968846302607742     
Sym=     7a
Ene=  -0.45893121194907971     
Spin= Alpha
Occup=     2.00000000
           1 -0.19448860784932118     
           2 -0.10670864315350800     
           3  0.37402390973112093     
           4   2.7925945408710084E-002
           5   4.8254410367248195E-002
           6  0.12612180657540129     
           7  0.31397792635742450     
           8   2.3723925479389178E-002
           9 -0.45622698609811035     
          10   4.3978391517622818E-002
          11 -0.34310565609544813     
          12  -2.5660276793553739E-002
          13  0.45319997807523515     
          14 -0.29125747960481330     
          15 -0.22575120649738042     
          16  -1.7255018230663596E-002
          17  -1.9138587195406512E-002
Sym=     8a
Ene=  -0.41888504096694346     
Spin= Alpha
Occup=     1.99999998
           1   1.1971895950271007E-003
           2   1.2887198999745417E-003
           3   3.8989491783805043E-002
           4 -0.52277564461030501     
           5  -2.7873835877051650E-004
           6   9.6834219527887718E-005
           7   1.9454396204528327E-002
           8 -0.25496408277477151     
           9  -2.6149555148683324E-004
          10  -2.7445759023257763E-004
          11  -4.0434172056347494E-002
          12  0.53559938486450087     
          13   1.2058285807231771E-004
          14  -5.9809188834984023E-004
          15  -3.9281044451254229E-002
          16  0.52255634865156797     
          17  -3.2090953113693139E-004
Sym=     9a
Ene=  -0.38471338212165573     
Spin= Alpha
Occup=     1.00000002
           1   5.3239912493962815E-002
           2   2.3387800721458962E-002
           3 -0.10567791516003125     
           4  -7.8414222780560303E-003
           5   1.8235246130780065E-003
           6  -3.5462429588561718E-003
           7   1.4209044625892944E-002
           8   1.2145802144057573E-003
           9 -0.39197250130351174     
          10  -8.8494617385821817E-002
          11 -0.58766543801984839     
          12  -4.4340064302865731E-002
          13 -0.39277620215231357     
          14   6.7800125934294242E-002
          15  0.59258707647404585     
          16   4.4402977691463390E-002
          17  -3.1902624680051575E-002
Sym=    10a
Ene=  -0.34944427314915710     
Spin= Alpha
Occup=     1.00000000
           1  0.37830934074092132     
           2  0.11632728074018711     
           3 -0.69631116239350732     
           4  -5.2232523276051442E-002
           5  -8.1521923025410253E-002
           6   2.3911200613233541E-002
           7  0.34270578129638912     
           8   2.6847375713899699E-002
           9  -5.8769414524943497E-002
          10  0.41164009076499242     
          11 -0.10185938794949992     
          12  -7.9027661859265522E-003
          13  0.16451062761038582     
          14 -0.28179563735698288     
          15 -0.12327982060380324     
          16  -1.0268301153996238E-002
          17 -0.22868835249161973     
Sym=    11a
Ene=  -0.24700274215428891     
Spin= Alpha
Occup=     0.00000000
           1   8.7733203813925020E-004
           2   1.4373391168236624E-003
           3   4.8232861363522200E-002
           4 -0.62567495546498686     
           5  -3.6515066420345067E-006
           6  -6.9275331782810514E-004
           7  -3.9782626212309727E-002
           8  0.52836833241175185     
           9   2.9200366610305195E-005
          10   2.4744615113800013E-004
          11   5.3910425109776047E-002
          12 -0.71702513186806194     
          13   7.7508841611545473E-006
          14   2.7499205225798738E-004
          15  -2.5503570045827404E-002
          16  0.33892026278139997     
          17  -7.8932077832156826E-004
Sym=    12a
Ene=  -0.23517173940859781     
Spin= Alpha
Occup=     0.00000000
           1  -7.8684968346288324E-004
           2  -1.2645421070290363E-003
           3  -4.1625563574260303E-002
           4  0.54035950739993999     
           5  -9.6946873536941874E-006
           6   6.3941169069901208E-004
           7   3.7547309793286521E-002
           8 -0.49944638530154739     
           9  -1.0900146219467594E-005
          10   1.1006228396018966E-003
          11   3.2309282466160015E-002
          12 -0.43193453518510966     
          13  -2.1038611437307548E-005
          14  -1.5584634937564643E-003
          15  -5.7691247920795101E-002
          16  0.77021905710475513     
          17   7.3314621008612314E-004
Sym=    13a
Ene=   -6.4814337092414659E-002
Spin= Alpha
Occup=     0.00000000
           1 -0.10756050763615459     
           2 -0.24548270398791239     
           3  0.22335213618696906     
           4   1.5583956405523002E-002
           5 -0.40948393858088339     
           6  0.10430777020202224     
           7 -0.64707826562808968     
           8  -4.7878875092892098E-002
           9  0.15518964287933226     
          10  0.87447009686904797     
          11  -5.0829711887855254E-002
          12  -2.8237883619996991E-003
          13   4.7394268902490662E-002
          14 -0.34767688183263107     
          15  0.28978223649647655     
          16   2.1165498527861946E-002
          17  0.18869758429379055     
Sym=    14a
Ene=   -3.5899891243089684E-002
Spin= Alpha
Occup=     0.00000000
           1 -0.41720771238178850     
           2  0.14784693165928617     
           3 -0.22397840572233990     
           4  -1.8090207280698854E-002
           5  0.84745613612790982     
           6 -0.35115638438518770     
           7 -0.17141325409967356     
           8  -1.2885911448389832E-002
           9 -0.19509027961253983     
          10 -0.10619558515925789     
          11  0.22708358725495867     
          12   1.6820939473908354E-002
          13 -0.24198757153573858     
          14 -0.78488774106000159     
          15   9.3544372407253870E-002
          16   5.9520859439672526E-003
          17  0.38569739559388710     
Sym=    15a
Ene=   0.23645516261244359     
Spin= Alpha
Occup=     0.00000000
           1 -0.72480870414584186     
           2 -0.56360065008129412     
           3 -0.61785939367740994     
           4  -4.9738641905581020E-002
           5 -0.20226566447742006     
           6  0.35323469409995290     
           7  0.24459539776142247     
           8   1.9621827637687082E-002
           9  0.15474691183603920     
          10  -4.1273927756054964E-002
          11 -0.21545855993001778     
          12  -1.6346595918053080E-002
          13   2.9647848845047297E-002
          14  0.28669917150395346     
          15 -0.16058787154419213     
          16  -1.1819431531035918E-002
          17   1.0470056181398049     
Sym=    16a
Ene=   0.56478079502707990     
Spin= Alpha
Occup=     0.00000000
           1  -3.1553603349106847E-002
           2 -0.13939732061729979     
           3 -0.12146944464712134     
           4  -9.5329679935772550E-003
           5  -9.5877495258206977E-002
           6   4.2327739818253073E-002
           7  0.25234528724478816     
           8   1.9075945988967398E-002
           9 -0.81556405025230605     
          10   4.2730327689380898E-002
          11  0.93828616001776610     
          12   7.0424298711441499E-002
          13  0.84324240017794128     
          14  0.25335832123617963     
          15  0.91296458688327964     
          16   6.8787474454448980E-002
          17  0.12947892242588732     
Sym=    17a
Ene=   0.75892999356574564     
Spin= Alpha
Occup=     0.00000000
           1  0.67617537462360944     
           2  -1.0793829275688938     
           3   9.4992674430611754E-002
           4   5.6920569312703161E-003
           5 -0.54764361398829620     
           6  -1.1540532274828850     
           7  0.23771640804448388     
           8   1.6883914259889544E-002
           9 -0.13507293206352380     
          10 -0.20575370373784521     
          11   6.8354112077038870E-002
          12   4.8176040821696856E-003
          13 -0.24847260056363166     
          14 -0.25577648709634965     
          15 -0.11464934308081427     
          16  -8.9788301771006277E-003
          17  0.27038974943006755     
