$hessian                                                                        
        1.0366133861  -0.0168343082   0.0004893491  -0.7689123916   0.1449340020
        0.0101308190  -0.0380045357   0.0074768288   0.0005607430  -0.0320792468
        0.0160826202   0.0011800314  -0.1976172120  -0.1516591428  -0.0123609425
       -0.0168343082   0.2070718526   0.0141228770   0.1448621551  -0.0681841993
       -0.0033716782   0.0160676551  -0.0170598564  -0.0021650425  -0.0114758944
        0.0148661369   0.0014664002  -0.1326196076  -0.1366939337  -0.0100525564
        0.0004893491   0.0141228770   0.0281291243   0.0102517540  -0.0034548684
       -0.0218914558   0.0010406263  -0.0019943913   0.0110737791  -0.0009566324
        0.0014144765  -0.0042837668  -0.0108250970  -0.0100880938  -0.0130276808
       -0.7689123916   0.1448621551   0.0102517540   1.1542193500  -0.1467191392
       -0.0098152975  -0.1086791267   0.1292299193   0.0095766062  -0.2412945640
       -0.1236395296  -0.0096164225  -0.0353332677  -0.0037334056  -0.0003966401
        0.1449340020  -0.0681841993  -0.0034548684  -0.1467191392   0.1107511911
        0.0041844022   0.0311706972  -0.0310115779  -0.0014314021  -0.0149182379
       -0.0175667807  -0.0001230047  -0.0144673221   0.0060113668   0.0008248730
        0.0101308190  -0.0033716782  -0.0218914558  -0.0098152975   0.0041844022
        0.0532663277   0.0022178530  -0.0013375344  -0.0114210974  -0.0013780802
       -0.0002644889  -0.0156261487  -0.0011552942   0.0007892994  -0.0043276259
       -0.0380045357   0.0160676551   0.0010406263  -0.1086791267   0.0311706972
        0.0022178530   0.1134825403   0.0048750583   0.0004608265   0.0316496174
       -0.0559496066  -0.0041001569   0.0015515048   0.0038361960   0.0003808511
        0.0074768288  -0.0170598564  -0.0019943913   0.1292299193  -0.0310115779
       -0.0013375344   0.0048750583   0.6495662691   0.0484421419  -0.1405317581
       -0.6107875975  -0.0460315491  -0.0010500483   0.0092927627   0.0009213329
        0.0005607430  -0.0021650425   0.0110737791   0.0095766062  -0.0014314021
       -0.0114210974   0.0004608265   0.0484421419   0.0084574312  -0.0105173296
       -0.0458856625  -0.0040344303  -0.0000808460   0.0010399652  -0.0040756827
       -0.0320792468  -0.0114758944  -0.0009566324  -0.2412945640  -0.0149182379
       -0.0013780802   0.0316496174  -0.1405317581  -0.0105173296   0.2410338439
        0.1636544180   0.0125748376   0.0006903495   0.0032714724   0.0002772047
        0.0160826202   0.0148661369   0.0014144765  -0.1236395296  -0.0175667807
       -0.0002644889  -0.0559496066  -0.6107875975  -0.0458856625   0.1636544180
        0.6216316756   0.0460437067  -0.0001479020  -0.0081434342  -0.0013080318
        0.0011800314   0.0014664002  -0.0042837668  -0.0096164225  -0.0001230047
       -0.0156261487  -0.0041001569  -0.0460315491  -0.0040344303   0.0125748376
        0.0460437067   0.0144519609  -0.0000382896  -0.0013555530   0.0094923848
       -0.1976172120  -0.1326196076  -0.0108250970  -0.0353332677  -0.0144673221
       -0.0011552942   0.0015515048  -0.0010500483  -0.0000808460   0.0006903495
       -0.0001479020  -0.0000382896   0.2307086254   0.1482848800   0.0120995268
       -0.1516591428  -0.1366939337  -0.0100880938  -0.0037334056   0.0060113668
        0.0007892994   0.0038361960   0.0092927627   0.0010399652   0.0032714724
       -0.0081434342  -0.0013555530   0.1482848800   0.1295332385   0.0096143823
       -0.0123609425  -0.0100525564  -0.0130276808  -0.0003966401   0.0008248730
       -0.0043276259   0.0003808511   0.0009213329  -0.0040756827   0.0002772047
       -0.0013080318   0.0094923848   0.0120995268   0.0096143823   0.0119386046
