      -----------------------------------------------------------      
     |                   =====================                   |     
     |                           x T B                           |     
     |                   =====================                   |     
     |                         S. Grimme                         |     
     |          Mulliken Center for Theoretical Chemistry        |     
     |                    University of Bonn                     |     
      -----------------------------------------------------------      

   * xtb version 6.2.2 (9d81278992624c895f80dd42a50cac0aa55982e2) compiled by '@Darwin' on 04/03/2020

   xtb is free software: you can redistribute it and/or modify it under
   the terms of the GNU Lesser General Public License as published by
   the Free Software Foundation, either version 3 of the License, or
   (at your option) any later version.
   
   xtb is distributed in the hope that it will be useful,
   but WITHOUT ANY WARRANTY; without even the implied warranty of
   MERCHANTABILITY or FITNESS FOR A PARTICULAR PURPOSE.  See the
   GNU Lesser General Public License for more details.
   
   Cite this work as:
   * S. Grimme, C. Bannwarth, P. Shushkov, J. Chem. Theory Comput., 2017,
     13, 1989-2009. DOI: 10.1021/acs.jctc.7b00118
   * C. Bannwarth, S. Ehlert and S. Grimme., J. Chem. Theory Comput., 2019,
     15, 1652-1671. DOI: 10.1021/acs.jctc.8b01176
   * P. Pracht, E. Caldeweyher, S. Ehlert, S. Grimme, ChemRxiv, 2019, preprint.
     DOI: 10.26434/chemrxiv.8326202.v1
   
   for DFT-D4:
   * E. Caldeweyher, C. Bannwarth and S. Grimme, J. Chem. Phys., 2017,
     147, 034112. DOI: 10.1063/1.4993215
   * E. Caldeweyher, S. Ehlert, A. Hansen, H. Neugebauer, S. Spicher,
     C. Bannwarth and S. Grimme, J. Chem. Phys., 2019, 150, 154122.
     DOI: 10.1063/1.5090222
   
   for sTDA-xTB:
   * S. Grimme and C. Bannwarth, J. Chem. Phys., 2016, 145, 054103.
     DOI: 10.1063/1.4959605
   
   in the mass-spec context:
   * V. Asgeirsson, C. Bauer and S. Grimme, Chem. Sci., 2017, 8, 4879.
     DOI: 10.1039/c7sc00601b
   
   for metadynamics refer to:
   * S. Grimme, J. Chem. Theory Comput., 2019, 155, 2847-2862
     DOI: 10.1021/acs.jctc.9b00143
   
   with help from (in alphabetical order)
   C. Bannwarth, F. Bohle, G. Brandenburg, E. Caldeweyher, M. Checinski,
   S. Dohm, S. Ehlert, S. Ehrlich, F. März, H. Neugebauer, J. Pisarek,
   P. Pracht, P. Shushkov, and S. Spicher.
   
 * started run on 2020/05/12 at 11:44:17.355     

           -------------------------------------------------
          |                Calculation Setup                |
           -------------------------------------------------

          program call               : xtb --input C4N1_42_S_3.input C4N1_42_S_3.xyz --ohess --molden --namespace C4N1_42_S_3 output.out
          calculation namespace      : C4N1_42_S_3
          coordinate file            : C4N1_42_S_3.xyz
          number of atoms            :                     5
          number of electrons        :                    21
          charge                     :                     0
          spin                       :                   1.5
          first test random number   :      0.00027550528890

   ID    Z sym.   atoms
    1    7 N      1
    2    6 C      2-5

           -------------------------------------------------
          |                 G F N 2 - x T B                 |
           -------------------------------------------------

        Reference                      10.1021/acs.jctc.8b01176
      * Hamiltonian:
        H0-scaling (s, p, d)           1.850000    2.230000    2.230000
        zeta-weighting                 0.500000
      * Dispersion:
        s8                             2.700000
        a1                             0.520000
        a2                             5.000000
        s9                             5.000000
      * Repulsion:
        kExp                           1.500000    1.000000
        rExp                           1.000000
      * Coulomb:
        alpha                          2.000000
        third order                    shell-resolved
        anisotropic                    true
        a3                             3.000000
        a5                             4.000000
        cn-shift                       1.200000
        cn-exp                         4.000000
        max-rad                        5.000000


          ...................................................
          :                      SETUP                      :
          :.................................................:
          :  # basis functions                  20          :
          :  # atomic orbitals                  20          :
          :  # shells                           10          :
          :  # electrons                        21          :
          :  max. iterations                   250          :
          :  Hamiltonian                  GFN2-xTB          :
          :  restarted?                      false          :
          :  GBSA solvation                  false          :
          :  PC potential                    false          :
          :  electronic temp.          300.0000000     K    :
          :  accuracy                    1.0000000          :
          :  -> integral cutoff          0.2500000E+02      :
          :  -> integral neglect         0.1000000E-07      :
          :  -> SCF convergence          0.1000000E-05 Eh   :
          :  -> wf. convergence          0.1000000E-03 e    :
          :  Broyden damping             0.4000000          :
          ...................................................

 iter      E             dE          RMSdq      gap      omega  full diag
   1    -10.6973109 -0.106973E+02  0.883E+00    0.95       0.0  T
   2     -9.7412648  0.956046E+00  0.123E+01    0.23       1.0  T
   3    -10.9175489 -0.117628E+01  0.461E+00    1.12       1.0  T
   4    -10.8866192  0.309297E-01  0.486E+00    0.74       1.0  T
   5    -10.9397669 -0.531477E-01  0.279E+00    0.93       1.0  T
   6    -10.9827829 -0.430160E-01  0.152E+00    0.90       1.0  T
   7    -10.9864243 -0.364146E-02  0.125E+00    0.88       1.0  T
   8    -10.9864529 -0.285391E-04  0.121E+00    0.88       1.0  T
   9    -10.9721825  0.142704E-01  0.175E+00    0.86       1.0  T
  10    -10.9898512 -0.176687E-01  0.238E-01    0.84       1.0  T
  11    -10.9900040 -0.152836E-03  0.140E-01    0.84       1.0  T
  12    -10.9900348 -0.307627E-04  0.374E-02    0.83       1.2  T
  13    -10.9900376 -0.280075E-05  0.206E-02    0.83       2.2  T
  14    -10.9900386 -0.107860E-05  0.552E-03    0.83       8.1  T
  15    -10.9900387 -0.531482E-08  0.490E-03    0.83       9.1  T
  16    -10.9900387 -0.579072E-07  0.379E-04    0.83     118.1  T
  17    -10.9900387 -0.745001E-09  0.153E-04    0.83     292.5  T

   *** convergence criteria satisfied after 17 iterations ***

         #    Occupation            Energy/Eh            Energy/eV
      -------------------------------------------------------------
         1        2.0000           -0.7639573             -20.7883
       ...           ...                  ...                  ...
         6        2.0000           -0.5207344             -14.1699
         7        2.0000           -0.4958128             -13.4918
         8        2.0000           -0.4791064             -13.0371
         9        1.9505           -0.4656964             -12.6722
        10        1.0348           -0.4597331             -12.5100
        11        1.0147           -0.4588981             -12.4873
        12        1.0000           -0.4154842             -11.3059 (HOMO)
        13        0.0000           -0.3850154             -10.4768 (LUMO)
        14                         -0.2344193              -6.3789
        15                         -0.1528443              -4.1591
        16                         -0.1144445              -3.1142
        17                          0.0344354               0.9370
       ...                                ...                  ...
        20                          0.2902716               7.8987
      -------------------------------------------------------------
                  HL-Gap            0.0304687 Eh            0.8291 eV
             Fermi-level           -0.4315699 Eh          -11.7436 eV

 SCC (total)                   0 d,  0 h,  0 min,  0.005 sec
 SCC setup                      ...        0 min,  0.000 sec (  1.552%)
 Dispersion                     ...        0 min,  0.000 sec (  0.408%)
 integral evaluation            ...        0 min,  0.001 sec ( 26.751%)
 zeroth order Hamiltonian       ...        0 min,  0.000 sec (  0.383%)
 iterations                     ...        0 min,  0.002 sec ( 39.108%)
 molecular gradient             ...        0 min,  0.001 sec ( 30.133%)
 printout                       ...        0 min,  0.000 sec (  1.485%)

         :::::::::::::::::::::::::::::::::::::::::::::::::::::
         ::                     SUMMARY                     ::
         :::::::::::::::::::::::::::::::::::::::::::::::::::::
         :: total energy             -10.883655655913 Eh    ::
         :: gradient norm              0.213364350532 Eh/a0 ::
         :: HOMO-LUMO gap              0.829096719405 eV    ::
         ::.................................................::
         :: SCC energy               -10.990038708746 Eh    ::
         :: -> isotropic ES            0.004127270622 Eh    ::
         :: -> anisotropic ES          0.000809929739 Eh    ::
         :: -> anisotropic XC          0.009594569535 Eh    ::
         :: -> dispersion             -0.002586978073 Eh    ::
         :: repulsion energy           0.106383012661 Eh    ::
         :: add. restraining           0.000000000000 Eh    ::
         :::::::::::::::::::::::::::::::::::::::::::::::::::::

      ----------------------------------------------------------- 
     |                   =====================                   |
     |                        A N C O P T                        |
     |                   =====================                   |
     |               Approximate Normal Coordinate               |
     |                Rational Function Optimizer                |
      ----------------------------------------------------------- 

          ...................................................
          :                      SETUP                      :
          :.................................................:
          :   optimization level            normal          :
          :   max. optcycles                   200          :
          :   ANC micro-cycles                  20          :
          :   degrees of freedom                 9          :
          :.................................................:
          :   RF solver                   davidson          :
          :   write xtbopt.log                true          :
          :   linear?                        false          :
          :   energy convergence         0.5000000E-05 Eh   :
          :   grad. convergence          0.1000000E-02 Eh/α :
          :   maximium RF displ.         1.0000000          :
          :   Hlow (freq-cutoff)         0.1000000E-01      :
          :   Hmax (freq-cutoff)         5.0000000          :
          :   S6 in model hess.         20.0000000          :
          ...................................................

generating ANC from model Hessian ...
Using Lindh-Hessian (1995)
 Shifting diagonal of input Hessian by    0.0000000000000000     
 Lowest  eigenvalues of input Hessian
   -0.000000   -0.000000   -0.000000    0.000000    0.000000    0.000000
    0.085452    0.183509    0.376274    0.630105    0.778500    0.888261
    1.039706    1.311416    1.726802
 Highest eigenvalues
    0.630105    0.778500    0.888261    1.039706    1.311416    1.726802


........................................................................
.............................. CYCLE    1 ..............................
........................................................................
   1    -10.9900387 -0.109900E+02  0.466E-05    0.83       0.0  T
   2    -10.9900387  0.164912E-09  0.165E-04    0.83     270.8  T
   3    -10.9900387 -0.144409E-09  0.729E-05    0.83     613.7  T
     SCC iter.                  ...        0 min,  0.000 sec
     gradient                   ...        0 min,  0.001 sec
 * total energy  :   -10.8836557 Eh     change       -0.3690594E-09 Eh
   gradient norm :     0.2133643 Eh/α   predicted     0.0000000E+00 (-100.00%)
   displ. norm   :     0.2881225 α      lambda       -0.5262054E-01
   maximum displ.:     0.2436306 α      in ANC's #3, #5, #8, ...

........................................................................
.............................. CYCLE    2 ..............................
........................................................................
   1    -11.0512025 -0.110512E+02  0.178E+00    1.23       0.0  T
   2    -11.0497491  0.145340E-02  0.112E+00    1.19       1.0  T
   3    -11.0475955  0.215358E-02  0.126E+00    1.21       1.0  T
   4    -11.0517926 -0.419711E-02  0.583E-01    1.20       1.0  T
   5    -11.0538710 -0.207838E-02  0.227E-01    1.22       1.0  T
   6    -11.0541400 -0.269002E-03  0.144E-01    1.19       1.0  T
   7    -11.0538084  0.331626E-03  0.285E-01    1.20       1.0  T
   8    -11.0542647 -0.456282E-03  0.357E-02    1.20       1.3  T
   9    -11.0542693 -0.469173E-05  0.669E-03    1.20       6.7  T
  10    -11.0542695 -0.172179E-06  0.162E-03    1.20      27.7  T
  11    -11.0542695 -0.430546E-08  0.355E-04    1.20     126.1  T
  12    -11.0542695 -0.135634E-09  0.230E-04    1.20     194.6  T
     SCC iter.                  ...        0 min,  0.001 sec
     gradient                   ...        0 min,  0.001 sec
 * total energy  :   -10.9253218 Eh     change       -0.4166612E-01 Eh
   gradient norm :     0.1043259 Eh/α   predicted    -0.2849440E-01 ( -31.61%)
   displ. norm   :     0.3108212 α      lambda       -0.2690641E-01
   maximum displ.:     0.2505314 α      in ANC's #3, #2, #8, ...

........................................................................
.............................. CYCLE    3 ..............................
........................................................................
   1    -11.1102231 -0.111102E+02  0.192E+00    1.14       0.0  T
   2    -11.1104511 -0.228049E-03  0.108E+00    1.10       1.0  T
   3    -11.1059367  0.451446E-02  0.119E+00    1.23       1.0  T
   4    -11.1093197 -0.338304E-02  0.620E-01    1.09       1.0  T
   5    -11.1099599 -0.640149E-03  0.669E-01    1.17       1.0  T
   6    -11.1117226 -0.176274E-02  0.321E-01    1.17       1.0  T
   7    -11.1122187 -0.496048E-03  0.842E-02    1.15       1.0  T
   8    -11.1122533 -0.346001E-04  0.415E-02    1.16       1.1  T
   9    -11.1122598 -0.653078E-05  0.707E-03    1.16       6.3  T
  10    -11.1122600 -0.184141E-06  0.385E-03    1.16      11.6  T
  11    -11.1122600 -0.441769E-07  0.113E-03    1.16      39.6  T
  12    -11.1122600 -0.409980E-08  0.599E-04    1.16      74.6  T
  13    -11.1122600 -0.178222E-08  0.461E-05    1.16     969.1  T
     SCC iter.                  ...        0 min,  0.001 sec
     gradient                   ...        0 min,  0.001 sec
 * total energy  :   -10.9272617 Eh     change       -0.1939890E-02 Eh
   gradient norm :     0.2047663 Eh/α   predicted    -0.1475292E-01 ( 660.50%)
   displ. norm   :     0.1434692 α      lambda       -0.2380265E-01
   maximum displ.:     0.0995142 α      in ANC's #2, #3, #5, ...

........................................................................
.............................. CYCLE    4 ..............................
........................................................................
   1    -11.0856778 -0.110857E+02  0.788E-01    0.99       0.0  T
   2    -11.0853108  0.366999E-03  0.648E-01    1.02       1.0  T
   3    -11.0851948  0.116013E-03  0.452E-01    0.99       1.0  T
   4    -11.0859049 -0.710179E-03  0.366E-01    1.02       1.0  T
   5    -11.0864002 -0.495258E-03  0.149E-01    1.00       1.0  T
   6    -11.0864378 -0.376039E-04  0.136E-01    1.00       1.0  T
   7    -11.0865166 -0.787838E-04  0.464E-02    1.01       1.0  T
   8    -11.0865219 -0.536437E-05  0.160E-02    1.01       2.8  T
   9    -11.0865234 -0.142315E-05  0.280E-03    1.01      16.0  T
  10    -11.0865234 -0.197451E-07  0.649E-04    1.01      68.9  T
  11    -11.0865234 -0.512262E-09  0.284E-04    1.01     157.3  T
     SCC iter.                  ...        0 min,  0.001 sec
     gradient                   ...        0 min,  0.001 sec
 * total energy  :   -10.9401369 Eh     change       -0.1287519E-01 Eh
   gradient norm :     0.0466918 Eh/α   predicted    -0.1214629E-01 (  -5.66%)
   displ. norm   :     0.2921329 α      lambda       -0.1143125E-01
   maximum displ.:     0.2777619 α      in ANC's #2, #3, #5, ...

........................................................................
.............................. CYCLE    5 ..............................
........................................................................
   1    -11.0865148 -0.110865E+02  0.130E+00    0.83       0.0  T
   2    -11.0805114  0.600338E-02  0.118E+00    0.70       1.0  T
   3    -11.0820795 -0.156804E-02  0.997E-01    0.92       1.0  T
   4    -11.0859623 -0.388281E-02  0.647E-01    0.84       1.0  T
   5    -11.0846643  0.129802E-02  0.840E-01    0.84       1.0  T
   6    -11.0878140 -0.314980E-02  0.163E-01    0.85       1.0  T
   7    -11.0879256 -0.111553E-03  0.805E-02    0.83       1.0  T
   8    -11.0879409 -0.153135E-04  0.305E-02    0.83       1.5  T
   9    -11.0879431 -0.222214E-05  0.847E-03    0.83       5.3  T
  10    -11.0879433 -0.153647E-06  0.369E-03    0.83      12.1  T
  11    -11.0879433 -0.574653E-07  0.764E-04    0.83      58.5  T
  12    -11.0879434 -0.228999E-08  0.178E-04    0.83     251.9  T
     SCC iter.                  ...        0 min,  0.001 sec
     gradient                   ...        0 min,  0.001 sec
 * total energy  :   -10.9512713 Eh     change       -0.1113447E-01 Eh
   gradient norm :     0.0756224 Eh/α   predicted    -0.6203400E-02 ( -44.29%)
   displ. norm   :     0.8854459 α      lambda       -0.3521079E-01
   maximum displ.:     0.8173027 α      in ANC's #2, #3, #5, ...

........................................................................
.............................. CYCLE    6 ..............................
........................................................................
   1    -11.0518865 -0.110519E+02  0.312E+00    1.09       0.0  T
   2    -11.0506720  0.121448E-02  0.186E+00    1.27       1.0  T
   3    -11.0334172  0.172548E-01  0.193E+00    1.00       1.0  T
   4    -11.0513018 -0.178846E-01  0.656E-01    1.40       1.0  T
   5    -11.0540203 -0.271848E-02  0.366E-01    1.23       1.0  T
   6    -11.0544932 -0.472894E-03  0.277E-01    1.29       1.0  T
   7    -11.0541148  0.378354E-03  0.367E-01    1.30       1.0  T
   8    -11.0548570 -0.742195E-03  0.497E-02    1.30       1.0  T
   9    -11.0548657 -0.869180E-05  0.133E-02    1.29       3.4  T
  10    -11.0548662 -0.454969E-06  0.379E-03    1.29      11.8  T
  11    -11.0548662 -0.413764E-07  0.105E-03    1.29      42.4  T
  12    -11.0548662 -0.227395E-08  0.289E-04    1.29     154.6  T
  13    -11.0548662 -0.223354E-09  0.937E-05    1.29     477.2  T
     SCC iter.                  ...        0 min,  0.001 sec
     gradient                   ...        0 min,  0.001 sec
 * total energy  :   -10.9608906 Eh     change       -0.9619290E-02 Eh
   gradient norm :     0.1954623 Eh/α   predicted    -0.3140829E-01 ( 226.51%)
   displ. norm   :     0.2545659 α      lambda       -0.2169108E-01
   maximum displ.:     0.2510313 α      in ANC's #2, #3, #8, ...

........................................................................
.............................. CYCLE    7 ..............................
........................................................................
   1    -11.0945896 -0.110946E+02  0.997E-01    1.42       0.0  T
   2    -11.0921966  0.239299E-02  0.876E-01    1.23       1.0  T
   3    -11.0937955 -0.159892E-02  0.614E-01    1.45       1.0  T
   4    -11.0943792 -0.583684E-03  0.453E-01    1.29       1.0  T
   5    -11.0954776 -0.109836E-02  0.262E-01    1.34       1.0  T
   6    -11.0957456 -0.268063E-03  0.141E-01    1.35       1.0  T
   7    -11.0958407 -0.950974E-04  0.396E-02    1.35       1.1  T
   8    -11.0958437 -0.298715E-05  0.492E-03    1.35       9.1  T
   9    -11.0958438 -0.513465E-07  0.253E-03    1.35      17.7  T
  10    -11.0958438 -0.990783E-08  0.508E-04    1.35      88.0  T
  11    -11.0958438 -0.190120E-09  0.162E-04    1.35     276.0  T
     SCC iter.                  ...        0 min,  0.001 sec
     gradient                   ...        0 min,  0.001 sec
 * total energy  :   -10.9759459 Eh     change       -0.1505528E-01 Eh
   gradient norm :     0.1327776 Eh/α   predicted    -0.1154837E-01 ( -23.29%)
   displ. norm   :     0.2469687 α      lambda       -0.2385075E-01
   maximum displ.:     0.1440654 α      in ANC's #3, #5, #8, ...

........................................................................
.............................. CYCLE    8 ..............................
........................................................................
   1    -11.1444407 -0.111444E+02  0.127E+00    1.95       0.0  T
   2    -11.1444469 -0.618001E-05  0.746E-01    1.91       1.0  T
   3    -11.1427553  0.169166E-02  0.580E-01    2.03       1.0  T
   4    -11.1444459 -0.169064E-02  0.176E-01    1.90       1.0  T
   5    -11.1446499 -0.203966E-03  0.678E-02    1.93       1.0  T
   6    -11.1446135  0.363670E-04  0.963E-02    1.94       1.0  T
   7    -11.1446681 -0.545994E-04  0.155E-02    1.94       2.9  T
   8    -11.1446691 -0.955585E-06  0.498E-03    1.94       9.0  T
   9    -11.1446691 -0.284218E-07  0.130E-03    1.94      34.4  T
  10    -11.1446691 -0.549277E-08  0.351E-04    1.94     127.5  T
  11    -11.1446691 -0.480398E-10  0.629E-05    1.94     710.7  T
     SCC iter.                  ...        0 min,  0.001 sec
     gradient                   ...        0 min,  0.001 sec
 * total energy  :   -10.9943545 Eh     change       -0.1840859E-01 Eh
   gradient norm :     0.0696722 Eh/α   predicted    -0.1265275E-01 ( -31.27%)
   displ. norm   :     0.4719407 α      lambda       -0.2490916E-01
   maximum displ.:     0.2981334 α      in ANC's #3, #5, #8, ...

........................................................................
.............................. CYCLE    9 ..............................
........................................................................
   1    -11.1716087 -0.111716E+02  0.199E+00    2.17       0.0  T
   2    -11.1688225  0.278618E-02  0.135E+00    2.35       1.0  T
   3    -11.1553666  0.134559E-01  0.156E+00    1.98       1.0  T
   4    -11.1732626 -0.178960E-01  0.191E-01    2.26       1.0  T
   5    -11.1734732 -0.210649E-03  0.671E-02    2.23       1.0  T
   6    -11.1734791 -0.584371E-05  0.514E-02    2.23       1.0  T
   7    -11.1734609  0.181383E-04  0.617E-02    2.23       1.0  T
   8    -11.1734834 -0.224301E-04  0.167E-02    2.22       2.7  T
   9    -11.1734851 -0.171898E-05  0.745E-03    2.23       6.0  T
  10    -11.1734853 -0.228606E-06  0.648E-04    2.23      69.1  T
  11    -11.1734853 -0.108437E-08  0.301E-04    2.23     148.5  T
     SCC iter.                  ...        0 min,  0.001 sec
     gradient                   ...        0 min,  0.001 sec
 * total energy  :   -11.0109142 Eh     change       -0.1655967E-01 Eh
   gradient norm :     0.0523646 Eh/α   predicted    -0.1522858E-01 (  -8.04%)
   displ. norm   :     0.2457350 α      lambda       -0.6771295E-02
   maximum displ.:     0.1347043 α      in ANC's #2, #5, #8, ...

........................................................................
.............................. CYCLE   10 ..............................
........................................................................
   1    -11.1764289 -0.111764E+02  0.967E-01    2.06       0.0  T
   2    -11.1754971  0.931774E-03  0.691E-01    2.08       1.0  T
   3    -11.1742022  0.129487E-02  0.671E-01    2.00       1.0  T
   4    -11.1769119 -0.270969E-02  0.186E-01    2.09       1.0  T
   5    -11.1771570 -0.245136E-03  0.257E-02    2.05       1.7  T
   6    -11.1771558  0.121946E-05  0.215E-02    2.05       2.1  T
   7    -11.1771515  0.429293E-05  0.282E-02    2.05       1.6  T
   8    -11.1771575 -0.598635E-05  0.694E-03    2.05       6.4  T
   9    -11.1771579 -0.373863E-06  0.225E-03    2.05      19.9  T
  10    -11.1771579 -0.212472E-07  0.150E-04    2.05     297.2  T
  11    -11.1771579 -0.337064E-10  0.477E-05    2.05     937.4  T
     SCC iter.                  ...        0 min,  0.001 sec
     gradient                   ...        0 min,  0.001 sec
 * total energy  :   -11.0156923 Eh     change       -0.4778199E-02 Eh
   gradient norm :     0.0547175 Eh/α   predicted    -0.3590096E-02 ( -24.87%)
   displ. norm   :     0.2011221 α      lambda       -0.5905729E-02
   maximum displ.:     0.1249069 α      in ANC's #8, #2, #5, ...

........................................................................
.............................. CYCLE   11 ..............................
........................................................................
   1    -11.1873227 -0.111873E+02  0.804E-01    2.01       0.0  T
   2    -11.1871613  0.161409E-03  0.485E-01    1.98       1.0  T
   3    -11.1854483  0.171300E-02  0.551E-01    1.98       1.0  T
   4    -11.1874115 -0.196315E-02  0.133E-01    2.01       1.0  T
   5    -11.1875514 -0.139970E-03  0.219E-02    1.99       2.0  T
   6    -11.1875508  0.630210E-06  0.148E-02    1.99       3.0  T
   7    -11.1875484  0.243628E-05  0.204E-02    1.99       2.2  T
   8    -11.1875518 -0.337796E-05  0.409E-03    1.99      10.9  T
   9    -11.1875519 -0.132189E-06  0.112E-03    1.99      39.9  T
  10    -11.1875519 -0.281724E-08  0.134E-04    1.99     333.4  T
  11    -11.1875519 -0.861533E-10  0.294E-05    1.99    1519.6  T
     SCC iter.                  ...        0 min,  0.001 sec
     gradient                   ...        0 min,  0.001 sec
 * total energy  :   -11.0197736 Eh     change       -0.4081210E-02 Eh
   gradient norm :     0.0447208 Eh/α   predicted    -0.3072309E-02 ( -24.72%)
   displ. norm   :     0.2048915 α      lambda       -0.3613845E-02
   maximum displ.:     0.1295210 α      in ANC's #2, #8, #9, ...

........................................................................
.............................. CYCLE   12 ..............................
........................................................................
   1    -11.1887647 -0.111888E+02  0.792E-01    1.84       0.0  T
   2    -11.1884291  0.335618E-03  0.520E-01    1.79       1.0  T
   3    -11.1866004  0.182877E-02  0.569E-01    1.80       1.0  T
   4    -11.1889807 -0.238035E-02  0.125E-01    1.83       1.0  T
   5    -11.1890834 -0.102700E-03  0.221E-02    1.80       2.0  T
   6    -11.1890820  0.137581E-05  0.197E-02    1.80       2.3  T
   7    -11.1890805  0.154440E-05  0.219E-02    1.80       2.0  T
   8    -11.1890842 -0.368790E-05  0.450E-03    1.80       9.9  T
   9    -11.1890843 -0.179183E-06  0.819E-04    1.80      54.6  T
  10    -11.1890844 -0.203814E-08  0.688E-05    1.80     649.6  T
     SCC iter.                  ...        0 min,  0.001 sec
     gradient                   ...        0 min,  0.001 sec
 * total energy  :   -11.0224131 Eh     change       -0.2639572E-02 Eh
   gradient norm :     0.0437719 Eh/α   predicted    -0.1882776E-02 ( -28.67%)
   displ. norm   :     0.1790315 α      lambda       -0.3622784E-02
   maximum displ.:     0.1215291 α      in ANC's #8, #2, #6, ...

........................................................................
.............................. CYCLE   13 ..............................
........................................................................
   1    -11.2010196 -0.112010E+02  0.716E-01    1.81       0.0  T
   2    -11.2009307  0.888754E-04  0.425E-01    1.78       1.0  T
   3    -11.1988911  0.203961E-02  0.502E-01    1.78       1.0  T
   4    -11.2011199 -0.222886E-02  0.484E-02    1.79       1.0  T
   5    -11.2011292 -0.922696E-05  0.184E-02    1.78       2.4  T
   6    -11.2011250  0.419573E-05  0.246E-02    1.78       1.8  T
   7    -11.2011288 -0.381040E-05  0.111E-02    1.78       4.0  T
   8    -11.2011296 -0.867028E-06  0.256E-03    1.78      17.4  T
   9    -11.2011297 -0.545660E-07  0.496E-04    1.78      90.2  T
  10    -11.2011297 -0.141782E-09  0.393E-05    1.78    1136.6  T
     SCC iter.                  ...        0 min,  0.001 sec
     gradient                   ...        0 min,  0.001 sec
 * total energy  :   -11.0247767 Eh     change       -0.2363586E-02 Eh
   gradient norm :     0.0284973 Eh/α   predicted    -0.1869452E-02 ( -20.91%)
   displ. norm   :     0.1482165 α      lambda       -0.1615415E-02
   maximum displ.:     0.0912171 α      in ANC's #8, #2, #6, ...

........................................................................
.............................. CYCLE   14 ..............................
........................................................................
   1    -11.1997951 -0.111998E+02  0.597E-01    1.67       0.0  T
   2    -11.1996425  0.152573E-03  0.391E-01    1.64       1.0  T
   3    -11.1981286  0.151389E-02  0.448E-01    1.64       1.0  T
   4    -11.1999160 -0.178743E-02  0.589E-02    1.66       1.0  T
   5    -11.1999320 -0.159748E-04  0.186E-02    1.64       2.4  T
   6    -11.1999322 -0.198032E-06  0.119E-02    1.64       3.8  T
   7    -11.1999323 -0.133830E-06  0.793E-03    1.64       5.6  T
   8    -11.1999328 -0.456406E-06  0.295E-03    1.64      15.1  T
   9    -11.1999329 -0.742440E-07  0.452E-04    1.64      98.9  T
  10    -11.1999329 -0.837659E-10  0.347E-05    1.64    1287.9  T
     SCC iter.                  ...        0 min,  0.001 sec
     gradient                   ...        0 min,  0.001 sec
 * total energy  :   -11.0256750 Eh     change       -0.8982912E-03 Eh
   gradient norm :     0.0164107 Eh/α   predicted    -0.8254503E-03 (  -8.11%)
   displ. norm   :     0.0503170 α      lambda       -0.6664264E-03
   maximum displ.:     0.0347413 α      in ANC's #6, #5, #8, ...

........................................................................
.............................. CYCLE   15 ..............................
........................................................................
   1    -11.2082861 -0.112083E+02  0.190E-01    1.73       0.0  T
   2    -11.2082911 -0.500235E-05  0.120E-01    1.74       1.0  T
   3    -11.2082814  0.965011E-05  0.828E-02    1.73       1.0  T
   4    -11.2082945 -0.130199E-04  0.384E-02    1.73       1.2  T
   5    -11.2083073 -0.128211E-04  0.976E-03    1.74       4.6  T
   6    -11.2083073 -0.334146E-07  0.887E-03    1.74       5.0  T
   7    -11.2083079 -0.537100E-06  0.760E-04    1.74      58.8  T
   8    -11.2083079 -0.368967E-08  0.284E-04    1.74     157.6  T
     SCC iter.                  ...        0 min,  0.001 sec
     gradient                   ...        0 min,  0.001 sec
 * total energy  :   -11.0259838 Eh     change       -0.3088269E-03 Eh
   gradient norm :     0.0087483 Eh/α   predicted    -0.3340548E-03 (   8.17%)
   displ. norm   :     0.0178532 α      lambda       -0.9344747E-04
   maximum displ.:     0.0133862 α      in ANC's #2, #5, #6, ...

........................................................................
.............................. CYCLE   16 ..............................
........................................................................
   1    -11.2059017 -0.112059E+02  0.791E-02    1.71       0.0  T
   2    -11.2059001  0.159030E-05  0.486E-02    1.71       1.0  T
   3    -11.2058714  0.286760E-04  0.605E-02    1.72       1.0  T
   4    -11.2059031 -0.316544E-04  0.852E-03    1.71       5.3  T
   5    -11.2059029  0.138610E-06  0.874E-03    1.72       5.1  T
   6    -11.2059035 -0.575118E-06  0.280E-03    1.72      16.0  T
   7    -11.2059035 -0.219038E-07  0.541E-04    1.72      82.6  T
   8    -11.2059035 -0.142477E-08  0.187E-04    1.72     239.6  T
     SCC iter.                  ...        0 min,  0.001 sec
     gradient                   ...        0 min,  0.001 sec
 * total energy  :   -11.0260402 Eh     change       -0.5636688E-04 Eh
   gradient norm :     0.0048078 Eh/α   predicted    -0.4673800E-04 ( -17.08%)
   displ. norm   :     0.0196031 α      lambda       -0.4686078E-04
   maximum displ.:     0.0130537 α      in ANC's #8, #5, #9, ...

........................................................................
.............................. CYCLE   17 ..............................
........................................................................
   1    -11.2052187 -0.112052E+02  0.850E-02    1.72       0.0  T
   2    -11.2052161  0.253321E-05  0.524E-02    1.72       1.0  T
   3    -11.2051911  0.250594E-04  0.636E-02    1.72       1.0  T
   4    -11.2052200 -0.289467E-04  0.101E-02    1.72       4.4  T
   5    -11.2052205 -0.497162E-06  0.531E-03    1.72       8.4  T
   6    -11.2052207 -0.184604E-06  0.244E-03    1.72      18.3  T
   7    -11.2052207 -0.236748E-07  0.752E-04    1.72      59.5  T
   8    -11.2052207 -0.386288E-08  0.859E-05    1.72     520.8  T
     SCC iter.                  ...        0 min,  0.001 sec
     gradient                   ...        0 min,  0.001 sec
 * total energy  :   -11.0260720 Eh     change       -0.3184548E-04 Eh
   gradient norm :     0.0020746 Eh/α   predicted    -0.2343983E-04 ( -26.40%)
   displ. norm   :     0.0232856 α      lambda       -0.2010204E-04
   maximum displ.:     0.0153512 α      in ANC's #8, #5, #9, ...

........................................................................
.............................. CYCLE   18 ..............................
........................................................................
   1    -11.2050875 -0.112051E+02  0.977E-02    1.74       0.0  T
   2    -11.2050824  0.513316E-05  0.636E-02    1.74       1.0  T
   3    -11.2050511  0.312994E-04  0.731E-02    1.74       1.0  T
   4    -11.2050905 -0.394190E-04  0.122E-02    1.74       3.7  T
   5    -11.2050911 -0.597000E-06  0.675E-03    1.74       6.6  T
   6    -11.2050914 -0.318410E-06  0.275E-03    1.74      16.2  T
   7    -11.2050914 -0.301149E-07  0.112E-03    1.74      39.9  T
   8    -11.2050915 -0.656097E-08  0.958E-05    1.74     467.0  T
   9    -11.2050915  0.559730E-11  0.588E-05    1.74     761.1  T
     SCC iter.                  ...        0 min,  0.001 sec
     gradient                   ...        0 min,  0.001 sec
 * total energy  :   -11.0260831 Eh     change       -0.1106175E-04 Eh
   gradient norm :     0.0011962 Eh/α   predicted    -0.1005798E-04 (  -9.07%)
   displ. norm   :     0.0049206 α      lambda       -0.1306816E-05
   maximum displ.:     0.0025337 α      in ANC's #8, #3, #9, ...

........................................................................
.............................. CYCLE   19 ..............................
........................................................................
   1    -11.2053345 -0.112053E+02  0.195E-02    1.75       0.0  T
   2    -11.2053343  0.187547E-06  0.127E-02    1.75       3.5  T
   3    -11.2053320  0.231045E-05  0.175E-02    1.75       2.6  T
   4    -11.2053342 -0.219888E-05  0.683E-03    1.75       6.6  T
   5    -11.2053346 -0.400852E-06  0.145E-03    1.75      30.9  T
   6    -11.2053346 -0.124037E-07  0.454E-04    1.75      98.5  T
   7    -11.2053346  0.800480E-10  0.222E-04    1.75     201.6  T
     SCC iter.                  ...        0 min,  0.001 sec
     gradient                   ...        0 min,  0.001 sec
 * total energy  :   -11.0260840 Eh     change       -0.8774121E-06 Eh
   gradient norm :     0.0001764 Eh/α   predicted    -0.6536956E-06 ( -25.50%)
   displ. norm   :     0.0019872 α      lambda       -0.1104189E-06
   maximum displ.:     0.0013763 α      in ANC's #8, #2, #5, ...

   *** GEOMETRY OPTIMIZATION CONVERGED AFTER 19 ITERATIONS ***

------------------------------------------------------------------------
 total energy gain   :        -0.1424283 Eh      -89.3751 kcal/mol
 total RMSD          :         1.1593607 a0        0.6135 Å
 total power (kW/mol):       -19.6813437 (step)-5198.4543 (real)
------------------------------------------------------------------------

 ANCopt (total)                0 d,  0 h,  0 min,  0.072 sec
 optimizer setup                ...        0 min,  0.000 sec (  0.086%)
 model hessian                  ...        0 min,  0.000 sec (  0.119%)
 ANC generation                 ...        0 min,  0.000 sec (  0.063%)
 coordinate transformation      ...        0 min,  0.000 sec (  0.051%)
 single point calculation       ...        0 min,  0.070 sec ( 97.676%)
 optimization log               ...        0 min,  0.000 sec (  0.679%)
 hessian update                 ...        0 min,  0.000 sec (  0.058%)
 rational function              ...        0 min,  0.000 sec (  0.553%)

================
 final structure:
================
5
 xtb: 6.2.2 (9d81278992624c895f80dd42a50cac0aa55982e2)
N         1.68258188124750    0.53341216048684    0.52817970370588
C         0.55421040327278    0.24026155971828    0.23096817164549
C        -1.17836909683854   -0.64172914112515   -0.60643269570117
C        -0.55302935039753   -0.67744550249157    0.61686904155284
C        -0.50539383728421    0.54550092341160   -0.76958422120304

 Bond Distances (Angstroems)
 ---------------------------
N1-C2=1.2031         C2-N1=1.2031         C2-C4=1.4890         C2-C5=1.4890         C3-C4=1.3743         C3-C5=1.3744         
C4-C2=1.4890         C4-C3=1.3743         C4-C5=1.8494         C5-C2=1.4890         C5-C3=1.3744         C5-C4=1.8494         
 C  C  Rav=1.5152 sigma=0.1748  Rmin=1.3743  Rmax=1.8494     5
 N  C  Rav=1.2031 sigma=0.0000  Rmin=1.2031  Rmax=1.2031     1

 selected bond angles (degree)
 --------------------
C4-C2-N1=141.59                C5-C2-N1=141.58                C5-C2-C4= 76.78                C5-C3-C4= 84.57                
C3-C4-C2= 95.26                C5-C4-C2= 51.61                C5-C4-C3= 47.72                C3-C5-C2= 95.26                
C4-C5-C2= 51.61                C4-C5-C3= 47.71                

 selected dihedral angles (degree)
 ---------------------------------
C3-C4-C2-N1=203.24            C3-C4-C2-C5= 20.79            C5-C4-C2-N1=182.45            C2-C4-C3-C5=337.92            
C3-C5-C2-N1=156.76            C3-C5-C2-C4=339.21            C4-C5-C2-N1=177.55            C2-C5-C3-C4= 22.08            
C2-C5-C4-C3=208.53            C3-C5-C4-C2=151.47            
           -------------------------------------------------
          |                Final Singlepoint                |
           -------------------------------------------------

          ...................................................
          :                      SETUP                      :
          :.................................................:
          :  # basis functions                  20          :
          :  # atomic orbitals                  20          :
          :  # shells                           10          :
          :  # electrons                        21          :
          :  max. iterations                   250          :
          :  Hamiltonian                  GFN2-xTB          :
          :  restarted?                      false          :
          :  GBSA solvation                  false          :
          :  PC potential                    false          :
          :  electronic temp.          300.0000000     K    :
          :  accuracy                    1.0000000          :
          :  -> integral cutoff          0.2500000E+02      :
          :  -> integral neglect         0.1000000E-07      :
          :  -> SCF convergence          0.1000000E-05 Eh   :
          :  -> wf. convergence          0.1000000E-03 e    :
          :  Broyden damping             0.4000000          :
          ...................................................

 iter      E             dE          RMSdq      gap      omega  full diag
   1    -11.2053346 -0.112053E+02  0.596E-05    1.75       0.0  T
   2    -11.2053346  0.253202E-10  0.725E-05    1.75     617.1  T
   3    -11.2053346 -0.232667E-10  0.347E-05    1.75    1288.8  T

   *** convergence criteria satisfied after 3 iterations ***

         #    Occupation            Energy/Eh            Energy/eV
      -------------------------------------------------------------
         1        2.0000           -0.7382491             -20.0888
       ...           ...                  ...                  ...
         6        2.0000           -0.5668840             -15.4257
         7        2.0000           -0.5040867             -13.7169
         8        2.0000           -0.4914528             -13.3731
         9        2.0000           -0.4683819             -12.7453
        10        1.0000           -0.4484704             -12.2035
        11        1.0000           -0.4259783             -11.5915
        12        1.0000           -0.3835724             -10.4375 (HOMO)
        13                         -0.3192619              -8.6876 (LUMO)
        14                         -0.3110660              -8.4645
        15                         -0.1993627              -5.4249
        16                          0.0699408               1.9032
        17                          0.1003671               2.7311
       ...                                ...                  ...
        20                          0.8221837              22.3728
      -------------------------------------------------------------
                  HL-Gap            0.0643106 Eh            1.7500 eV
             Fermi-level           -0.4049217 Eh          -11.0185 eV

 SCC (total)                   0 d,  0 h,  0 min,  0.003 sec
 SCC setup                      ...        0 min,  0.000 sec (  1.271%)
 Dispersion                     ...        0 min,  0.000 sec (  0.390%)
 integral evaluation            ...        0 min,  0.001 sec ( 42.632%)
 zeroth order Hamiltonian       ...        0 min,  0.000 sec (  0.426%)
 iterations                     ...        0 min,  0.000 sec ( 11.752%)
 molecular gradient             ...        0 min,  0.001 sec ( 39.938%)
 printout                       ...        0 min,  0.000 sec (  3.417%)

         :::::::::::::::::::::::::::::::::::::::::::::::::::::
         ::                     SUMMARY                     ::
         :::::::::::::::::::::::::::::::::::::::::::::::::::::
         :: total energy             -11.026083986796 Eh    ::
         :: gradient norm              0.000180318254 Eh/a0 ::
         :: HOMO-LUMO gap              1.749979590712 eV    ::
         ::.................................................::
         :: SCC energy               -11.205334582894 Eh    ::
         :: -> isotropic ES            0.001139363629 Eh    ::
         :: -> anisotropic ES          0.001198186659 Eh    ::
         :: -> anisotropic XC          0.012377925073 Eh    ::
         :: -> dispersion             -0.002755622850 Eh    ::
         :: repulsion energy           0.179250572668 Eh    ::
         :: add. restraining           0.000000000000 Eh    ::
         :::::::::::::::::::::::::::::::::::::::::::::::::::::

           ------------------------------------------------- 
          |                Numerical Hessian                |
           ------------------------------------------------- 
step length          :   0.00500
SCC accuracy         :   0.30000
Hessian scale factor :   1.00000
frozen atoms in %    :   0.00000    0
RMS gradient         :   0.00018
estimated CPU  time      0.00 min
estimated wall time      0.00 min

writing file <hessian>.

 projected vibrational frequencies (cm-1)
eigval :       -0.00    -0.00     0.00     0.00     0.00     0.00
eigval :      245.25   369.81   502.84   512.82   628.21   836.38
eigval :      957.69  1470.71  1854.92
           -------------------------------------------------
          |                Property Printout                |
           -------------------------------------------------

    * Orbital Energies and Occupations

         #    Occupation            Energy/Eh            Energy/eV
      -------------------------------------------------------------
         1        2.0000           -0.7382491             -20.0888
         2        2.0000           -0.7003102             -19.0564
         3        2.0000           -0.6305066             -17.1570
         4        2.0000           -0.6203337             -16.8801
         5        2.0000           -0.5674389             -15.4408
         6        2.0000           -0.5668840             -15.4257
         7        2.0000           -0.5040867             -13.7169
         8        2.0000           -0.4914527             -13.3731
         9        2.0000           -0.4683819             -12.7453
        10        1.0000           -0.4484704             -12.2035
        11        1.0000           -0.4259784             -11.5915
        12        1.0000           -0.3835725             -10.4375 (HOMO)
        13                         -0.3192619              -8.6876 (LUMO)
        14                         -0.3110660              -8.4645
        15                         -0.1993628              -5.4249
        16                          0.0699408               1.9032
        17                          0.1003671               2.7311
        18                          0.1994831               5.4282
        19                          0.4237212              11.5300
        20                          0.8221837              22.3728
      -------------------------------------------------------------
                  HL-Gap            0.0643106 Eh            1.7500 eV
             Fermi-level           -0.4049217 Eh          -11.0185 eV

     #   Z        covCN         q      C6AA      α(0)
     1   7 N      0.912    -0.153    24.307     7.130
     2   6 C      3.128     0.198    23.623     7.958
     3   6 C      2.223     0.043    29.226     8.753
     4   6 C      2.731    -0.044    29.074     8.828
     5   6 C      2.731    -0.044    29.075     8.828

 Mol. C6AA /au·bohr⁶  :        673.884929
 Mol. C8AA /au·bohr⁸  :      18566.998837
 Mol. α(0) /au        :         41.496575


Wiberg/Mayer (AO) data.
largest (>0.10) Wiberg bond orders for each atom
          total WBO             WBO to atom ...
     1  N   2.333        C    2 2.090    C    3 0.175
     2  C   3.857        N    1 2.090    C    5 0.850    C    4 0.850
     3  C   2.926        C    4 1.342    C    5 1.341    N    1 0.175
     4  C   2.776        C    3 1.342    C    2 0.850    C    5 0.550
     5  C   2.775        C    3 1.341    C    2 0.850    C    4 0.550

MOs/occ written to file <molden.input>


molecular dipole:
                 x           y           z       tot (Debye)
 q only:       -0.287      -0.106      -0.103
   full:       -0.452      -0.145      -0.143       1.259
molecular quadrupole (traceless):
                xx          xy          yy          xz          yz          zz
 q only:       -1.012      -0.442       0.537      -0.438       0.117       0.475
  q+dip:       -1.414      -0.854       0.837      -0.798       0.794       0.577
   full:       -2.165      -1.885       1.291      -1.734       1.128       0.874

           -------------------------------------------------
          |                Geometry Summary                 |
           -------------------------------------------------

      molecular mass/u    :       62.0496468
   center of mass at/Å    :        0.0541242       0.0171582       0.0169899
  moments of inertia/u·Å² :        0.2199801E+02   0.8536515E+02   0.1044453E+03
rotational constants/cm⁻¹ :        0.7663253E+00   0.1974768E+00   0.1614016E+00

 * 3 selected distances

     #   Z        #   Z                                     value/Å
     1   7 N      2   6 C                                 1.2031185 (min)
     3   6 C      4   6 C                                 1.3743335
     3   6 C      5   6 C                                 1.3744196 (max)

 * 2 distinct bonds (by element types)

   Z      Z             #   av. dist./Å        max./Å        min./Å
   6 C    6 C           2     1.3743766     1.3744196     1.3743335
   6 C    7 N           1     1.2031185     1.2031185     1.2031185

           -------------------------------------------------
          |               Frequency Printout                |
           -------------------------------------------------
 projected vibrational frequencies (cm-1)
eigval :       -0.00    -0.00     0.00     0.00     0.00     0.00
eigval :      245.25   369.81   502.84   512.82   628.21   836.38
eigval :      957.69  1470.71  1854.92
 reduced masses (amu)
   1: 12.08   2: 13.34   3: 13.17   4: 12.25   5: 12.47   6: 12.01   7: 12.40   8: 12.67
   9: 12.03  10: 12.14  11: 12.36  12: 12.02  13: 12.36  14: 12.05  15: 12.80
 IR intensities (amu)
   1:  0.02   2:  0.08   3:  0.08   4:  0.08   5:  0.06   6:  0.02   7:  0.30   8:  0.16
Molecule has the following symmetry elements: (sigma) 
It seems to be the Cs point group
   9:  0.68  10:  0.26  11:  0.07  12:  2.64  13:  0.10  14:  0.31  15:  0.75
 Raman intensities (amu)
   1:  0.00   2:  0.00   3:  0.00   4:  0.00   5:  0.00   6:  0.00   7:  0.00   8:  0.00
   9:  0.00  10:  0.00  11:  0.00  12:  0.00  13:  0.00  14:  0.00  15:  0.00
 output can be read by thermo (or use thermo option).
 writing <g98.out> molden fake output.
 recommended (thermochemical) frequency scaling factor: 1.0
           -------------------------------------------------
          |             Thermodynamic Functions             |
           -------------------------------------------------

cs  symmetry found (for desy threshold:  0.10E+00) used in thermo

          ...................................................
          :                      SETUP                      :
          :.................................................:
          :  # frequencies                           9      :
          :  # imaginary freq.                       0      :
          :  linear?                             false      :
          :  only rotor calc.                    false      :
          :  symmetry                               cs      :
          :  rotational number                       1      :
          :  scaling factor                  1.0000000      :
          :  rotor cutoff                   50.0000000 cm⁻¹ :
          :  imag. cutoff                  -20.0000000 cm⁻¹ :
          :.................................................:

    mode    ω/cm⁻¹     T·S(HO)/kcal·mol⁻¹    T·S(FR)/kcal·mol⁻¹   T·S(vib)
   ------------------------------------------------------------------------
       1    245.25    -0.00000 ( 99.83%)     0.01411 (  0.17%)     0.00002
   ------------------------------------------------------------------------

   temp. (K)  partition function   enthalpy   heat capacity  entropy
                                   cal/mol     cal/K/mol   cal/K/mol   J/K/mol
 298.15  VIB   2.24                  962.321      7.865      4.834
         ROT  0.338E+05              888.752      2.981     23.706
         INT  0.759E+05             1851.073     10.846     28.540
         TR   0.473E+27             1481.254      4.968     38.278
         TOT                        3332.3270    15.8142    66.8182   279.5672

   temp. (K)  partition function   enthalpy   heat capacity  entropy
                                   cal/mol     cal/K/mol   cal/K/mol   J/K/mol
 120.00  VIB   1.07                   59.524      1.895      0.639
         ROT  0.864E+04              357.707      2.981     20.993
         INT  0.928E+04              417.231      4.876     21.633
         TR   0.121E+27              596.178      4.968     33.759
         TOT                        1013.4092     9.8439    55.3913   231.7572

   temp. (K)  partition function   enthalpy   heat capacity  entropy
                                   cal/mol     cal/K/mol   cal/K/mol   J/K/mol
 100.00  VIB   1.04                   28.580      1.213      0.359
         ROT  0.657E+04              298.089      2.981     20.450
         INT  0.681E+04              326.669      4.194     20.809
         TR   0.919E+26              496.815      4.968     32.853
         TOT                         823.4836     9.1617    53.6622   224.5224

   temp. (K)  partition function   enthalpy   heat capacity  entropy
                                   cal/mol     cal/K/mol   cal/K/mol   J/K/mol
  80.00  VIB   1.01                   10.328      0.634      0.157
         ROT  0.470E+04              238.471      2.981     19.785
         INT  0.477E+04              248.800      3.615     19.942
         TR   0.657E+26              397.452      4.968     31.745
         TOT                         646.2516     8.5834    51.6874   216.2602

   temp. (K)  partition function   enthalpy   heat capacity  entropy
                                   cal/mol     cal/K/mol   cal/K/mol   J/K/mol
  60.00  VIB   1.00                    2.128      0.218      0.042
         ROT  0.305E+04              178.853      2.981     18.927
         INT  0.306E+04              180.981      3.199     18.969
         TR   0.427E+26              298.089      4.968     30.317
         TOT                         479.0702     8.1672    49.2857   206.2115

   temp. (K)  partition function   enthalpy   heat capacity  entropy
                                   cal/mol     cal/K/mol   cal/K/mol   J/K/mol
  40.00  VIB   1.00                    0.105      0.023      0.003
         ROT  0.166E+04              119.236      2.981     17.719
         INT  0.166E+04              119.341      3.004     17.721
         TR   0.232E+26              198.726      4.968     28.303
         TOT                         318.0669     7.9725    46.0244   192.5661

   temp. (K)  partition function   enthalpy   heat capacity  entropy
                                   cal/mol     cal/K/mol   cal/K/mol   J/K/mol
  20.00  VIB   1.00                    0.000      0.000     -0.002
         ROT   588.                   59.618      2.981     15.652
         INT   588.                   59.618      2.981     15.650
         TR   0.822E+25               99.363      4.968     24.861
         TOT                         158.9808     7.9491    40.5117   169.5010

   temp. (K)  partition function   enthalpy   heat capacity  entropy
                                   cal/mol     cal/K/mol   cal/K/mol   J/K/mol
  10.00  VIB   1.00                    0.000      0.000     -0.004
         ROT   208.                   29.809      2.981     13.586
         INT   208.                   29.809      2.981     13.583
         TR   0.290E+25               49.681      4.968     21.419
         TOT                          79.4904     7.9490    35.0020   146.4482

       T/K    H(0)-H(T)+PV         H(T)/Eh          T*S/Eh         G(T)/Eh
   ------------------------------------------------------------------------
    298.15    0.531040E-02    0.221202E-01    0.317475E-01   -0.962731E-02
    120.00    0.161497E-02    0.184247E-01    0.105926E-01    0.783212E-02
    100.00    0.131230E-02    0.181221E-01    0.855161E-02    0.957045E-02
     80.00    0.102987E-02    0.178396E-01    0.658953E-02    0.112501E-01
     60.00    0.763447E-03    0.175732E-01    0.471251E-02    0.128607E-01
     40.00    0.506872E-03    0.173166E-01    0.293378E-02    0.143828E-01
     20.00    0.253352E-03    0.170631E-01    0.129119E-02    0.157719E-01
     10.00    0.126676E-03    0.169364E-01    0.557792E-03    0.163786E-01 (used)
   ------------------------------------------------------------------------

         :::::::::::::::::::::::::::::::::::::::::::::::::::::
         ::                  THERMODYNAMIC                  ::
         :::::::::::::::::::::::::::::::::::::::::::::::::::::
         :: total free energy         -11.009705350820 Eh   ::
         ::.................................................::
         :: total energy              -11.026083986805 Eh   ::
         :: zero point energy           0.016809751642 Eh   ::
         :: G(RRHO) w/o ZPVE           -0.000431115657 Eh   ::
         :: G(RRHO) contrib.            0.016378635985 Eh   ::
         :::::::::::::::::::::::::::::::::::::::::::::::::::::

optimized geometry written to: xtbopt.xyz


           -------------------------------------------------
          | TOTAL ENERGY              -11.026083986805 Eh   |
          | TOTAL ENTHALPY            -11.009147559147 Eh   |
          | TOTAL FREE ENERGY         -11.009705350820 Eh   |
          | GRADIENT NORM               0.000180561055 Eh/α |
          | HOMO-LUMO GAP               1.749979333296 eV   |
           -------------------------------------------------

------------------------------------------------------------------------
 * finished run on 2020/05/12 at 11:44:17.556     
------------------------------------------------------------------------
 total:
 * wall-time:     0 d,  0 h,  0 min,  0.200 sec
 *  cpu-time:     0 d,  0 h,  0 min,  0.200 sec
 * ratio c/w:     0.998 speedup
 SCF:
 * wall-time:     0 d,  0 h,  0 min,  0.005 sec
 *  cpu-time:     0 d,  0 h,  0 min,  0.005 sec
 * ratio c/w:     1.000 speedup
 ANC optimizer:
 * wall-time:     0 d,  0 h,  0 min,  0.076 sec
 *  cpu-time:     0 d,  0 h,  0 min,  0.076 sec
 * ratio c/w:     1.000 speedup
 numerical hessian:
 * wall-time:     0 d,  0 h,  0 min,  0.105 sec
 *  cpu-time:     0 d,  0 h,  0 min,  0.104 sec
 * ratio c/w:     0.997 speedup

