 Entering Gaussian System
 *********************************************
 Gaussian 98:
 frequency output generated by the xtb code
 *********************************************
                         Standard orientation:
 --------------------------------------------------------------------
  Center     Atomic     Atomic              Coordinates (Angstroms)
  Number     Number      Type              X           Y           Z
 --------------------------------------------------------------------
    1          6             0       -1.499746    0.791687   -0.034033
    2          6             0       -0.220118    0.020055   -0.000215
    3          6             0        1.083165   -0.101393    0.007437
    4          6             0       -1.620765   -0.498919    0.013182
    5          7             0        2.257463   -0.211430    0.013630
 --------------------------------------------------------------------
     1 basis functions        1 primitive gaussians
     1 alpha electrons        1 beta electrons

 Harmonic frequencies (cm**-1), IR intensities (KM/Mole),
 Raman scattering activities (A**4/amu), Raman depolarization ratios,
 reduced masses (AMU), force constants (mDyne/A) and normal coordinates:
                      1                      2                      3
                        a                      a                      a 
 Frequencies --   135.4815               163.6281               354.3202
 Red. masses --    12.2194                12.5589                12.4221
 Frc consts  --     0.0000                 0.0000                 0.0000
 IR Inten    --     0.2150                 0.3514                 0.4054
 Raman Activ --     0.0000                 0.0000                 0.0000
 Depolar     --     0.0000                 0.0000                 0.0000
 Atom AN      X      Y      Z        X      Y      Z        X      Y      Z
   1   6     0.00  -0.01  -0.29     0.33   0.16  -0.01     0.00  -0.00  -0.04
   2   6    -0.00   0.03   0.85    -0.05  -0.56   0.02     0.00  -0.01  -0.27
   3   6    -0.00   0.00   0.07    -0.04  -0.38   0.01    -0.00   0.03   0.85
   4   6     0.00  -0.01  -0.29    -0.30   0.22  -0.01    -0.00  -0.00  -0.04
   5   7    -0.00  -0.01  -0.32     0.05   0.52  -0.02     0.00  -0.02  -0.45
                      4                      5                      6
                        a                      a                      a 
 Frequencies --   454.6794               587.1434               726.9774
 Red. masses --    12.1350                12.0184                12.5606
 Frc consts  --     0.0000                 0.0000                 0.0000
 IR Inten    --     0.1859                 0.2913                 0.1552
 Raman Activ --     0.0000                 0.0000                 0.0000
 Depolar     --     0.0000                 0.0000                 0.0000
 Atom AN      X      Y      Z        X      Y      Z        X      Y      Z
   1   6    -0.31   0.06  -0.00    -0.49   0.30  -0.01     0.52   0.02   0.00
   2   6     0.04   0.41  -0.02    -0.05  -0.56   0.02    -0.07   0.01  -0.00
   3   6    -0.07  -0.75   0.03     0.01   0.13  -0.01    -0.40   0.04  -0.00
   4   6     0.32   0.01   0.00     0.54   0.20  -0.01     0.52  -0.12   0.01
   5   7     0.02   0.25  -0.01    -0.00  -0.06   0.00    -0.52   0.05  -0.00
                      7                      8                      9
                        a                      a                      a 
 Frequencies --  1451.6847              1808.8342              2071.7157
 Red. masses --    12.3375                12.1507                12.5396
 Frc consts  --     0.0000                 0.0000                 0.0000
 IR Inten    --     0.4642                 0.7514                 0.3573
 Raman Activ --     0.0000                 0.0000                 0.0000
 Depolar     --     0.0000                 0.0000                 0.0000
 Atom AN      X      Y      Z        X      Y      Z        X      Y      Z
   1   6     0.16   0.32  -0.01     0.06  -0.62   0.02    -0.03   0.13  -0.00
   2   6    -0.76   0.07  -0.01    -0.36   0.03  -0.00     0.30  -0.03   0.00
   3   6     0.06  -0.01   0.00    -0.17   0.02  -0.00    -0.78   0.07  -0.00
   4   6     0.10  -0.34   0.01     0.18   0.59  -0.02    -0.05  -0.12   0.00
   5   7     0.40  -0.04   0.00     0.26  -0.02   0.00     0.51  -0.05   0.00
