$hessian                                                                        
        0.1469330660  -0.0381983523   0.0020014785  -0.1725103236   0.0453278770
       -0.0024334280  -0.0162132127   0.0120682316  -0.0004652366   0.0475542263
       -0.0193279249   0.0009259774  -0.0057637559   0.0001301686  -0.0000287913
       -0.0381983523   0.7083485937  -0.0263217553   0.1707329282  -0.0407140937
        0.0021526184  -0.0199629496   0.0025931638  -0.0002321794  -0.1167855652
       -0.6694215038   0.0242901802   0.0042139390  -0.0008061599   0.0001111360
        0.0020014785  -0.0263217553   0.0017680501  -0.0070759787   0.0016577284
       -0.0014782432   0.0007266907  -0.0001355944  -0.0021849830   0.0045370271
        0.0247027933  -0.0001058941  -0.0001892176   0.0000968280   0.0020010702
       -0.1725103236   0.1707329282  -0.0070759787   0.9199265767  -0.0793191030
        0.0059827715  -0.4056986486   0.0341829208  -0.0023448307  -0.2081258924
       -0.1392888782   0.0042351729  -0.1335917122   0.0136921322  -0.0007971350
        0.0453278770  -0.0407140937   0.0016577284  -0.0793191030   0.0767200783
       -0.0027200452   0.0343887561  -0.0410823221   0.0011883960  -0.0139824675
       -0.0061310905   0.0000990526   0.0135849373   0.0112074281  -0.0002251318
       -0.0024334280   0.0021526184  -0.0014782432   0.0059827715  -0.0027200452
        0.0104116127  -0.0024297121   0.0011518997  -0.0127013143  -0.0003796050
       -0.0003834386  -0.0013858869  -0.0007400263  -0.0002010343   0.0051538317
       -0.0162132127  -0.0199629496   0.0007266907  -0.4056986486   0.0343887561
       -0.0024297121   1.2664984663  -0.1129813050   0.0068467719  -0.0143046875
        0.0229952756  -0.0008517331  -0.8302819174   0.0755602229  -0.0042920173
        0.0120682316   0.0025931638  -0.0001355944   0.0341829208  -0.0410823221
        0.0011518997  -0.1129813050   0.0680650831  -0.0012960547  -0.0088948669
        0.0005077720  -0.0001231840   0.0756250196  -0.0300836968   0.0004029334
       -0.0004652366  -0.0002321794  -0.0021849830  -0.0023448307   0.0011883960
       -0.0127013143   0.0068467719  -0.0012960547   0.0409719670   0.0002509844
       -0.0000571929  -0.0021781732  -0.0042876889   0.0003970311  -0.0239074966
        0.0475542263  -0.1167855652   0.0045370271  -0.2081258924  -0.0139824675
       -0.0003796050  -0.0143046875  -0.0088948669   0.0002509844   0.1811905672
        0.1387271904  -0.0043893892  -0.0063142136   0.0009357092  -0.0000190173
       -0.0193279249  -0.6694215038   0.0247027933  -0.1392888782  -0.0061310905
       -0.0003834386   0.0229952756   0.0005077720  -0.0000571929   0.1387271904
        0.6752399238  -0.0243517063  -0.0031056629  -0.0001951015   0.0000895446
        0.0009259774   0.0242901802  -0.0001058941   0.0042351729   0.0000990526
       -0.0013858869  -0.0008517331  -0.0001231840  -0.0021781732  -0.0043893892
       -0.0243517063   0.0016721208   0.0000799720   0.0000856575   0.0019978334
       -0.0057637559   0.0042139390  -0.0001892176  -0.1335917122   0.0135849373
       -0.0007400263  -0.8302819174   0.0756250196  -0.0042876889  -0.0063142136
       -0.0031056629   0.0000799720   0.9759515990  -0.0903182329   0.0051369609
        0.0001301686  -0.0008061599   0.0000968280   0.0136921322   0.0112074281
       -0.0002010343   0.0755602229  -0.0300836968   0.0003970311   0.0009357092
       -0.0001951015   0.0000856575  -0.0903182329   0.0198775301  -0.0003784822
       -0.0000287913   0.0001111360   0.0020010702  -0.0007971350  -0.0002251318
        0.0051538317  -0.0042920173   0.0004029334  -0.0239074966  -0.0000190173
        0.0000895446   0.0019978334   0.0051369609  -0.0003784822   0.0147547613
