      -----------------------------------------------------------      
     |                   =====================                   |     
     |                           x T B                           |     
     |                   =====================                   |     
     |                         S. Grimme                         |     
     |          Mulliken Center for Theoretical Chemistry        |     
     |                    University of Bonn                     |     
      -----------------------------------------------------------      

   * xtb version 6.2.2 (9d81278992624c895f80dd42a50cac0aa55982e2) compiled by '@Darwin' on 04/03/2020

   xtb is free software: you can redistribute it and/or modify it under
   the terms of the GNU Lesser General Public License as published by
   the Free Software Foundation, either version 3 of the License, or
   (at your option) any later version.
   
   xtb is distributed in the hope that it will be useful,
   but WITHOUT ANY WARRANTY; without even the implied warranty of
   MERCHANTABILITY or FITNESS FOR A PARTICULAR PURPOSE.  See the
   GNU Lesser General Public License for more details.
   
   Cite this work as:
   * S. Grimme, C. Bannwarth, P. Shushkov, J. Chem. Theory Comput., 2017,
     13, 1989-2009. DOI: 10.1021/acs.jctc.7b00118
   * C. Bannwarth, S. Ehlert and S. Grimme., J. Chem. Theory Comput., 2019,
     15, 1652-1671. DOI: 10.1021/acs.jctc.8b01176
   * P. Pracht, E. Caldeweyher, S. Ehlert, S. Grimme, ChemRxiv, 2019, preprint.
     DOI: 10.26434/chemrxiv.8326202.v1
   
   for DFT-D4:
   * E. Caldeweyher, C. Bannwarth and S. Grimme, J. Chem. Phys., 2017,
     147, 034112. DOI: 10.1063/1.4993215
   * E. Caldeweyher, S. Ehlert, A. Hansen, H. Neugebauer, S. Spicher,
     C. Bannwarth and S. Grimme, J. Chem. Phys., 2019, 150, 154122.
     DOI: 10.1063/1.5090222
   
   for sTDA-xTB:
   * S. Grimme and C. Bannwarth, J. Chem. Phys., 2016, 145, 054103.
     DOI: 10.1063/1.4959605
   
   in the mass-spec context:
   * V. Asgeirsson, C. Bauer and S. Grimme, Chem. Sci., 2017, 8, 4879.
     DOI: 10.1039/c7sc00601b
   
   for metadynamics refer to:
   * S. Grimme, J. Chem. Theory Comput., 2019, 155, 2847-2862
     DOI: 10.1021/acs.jctc.9b00143
   
   with help from (in alphabetical order)
   C. Bannwarth, F. Bohle, G. Brandenburg, E. Caldeweyher, M. Checinski,
   S. Dohm, S. Ehlert, S. Ehrlich, F. März, H. Neugebauer, J. Pisarek,
   P. Pracht, P. Shushkov, and S. Spicher.
   
 * started run on 2020/05/12 at 11:43:59.395     

           -------------------------------------------------
          |                Calculation Setup                |
           -------------------------------------------------

          program call               : xtb --input C4N1_5_S_3.input C4N1_5_S_3.xyz --ohess --molden --namespace C4N1_5_S_3 output.out
          calculation namespace      : C4N1_5_S_3
          coordinate file            : C4N1_5_S_3.xyz
          number of atoms            :                     5
          number of electrons        :                    21
          charge                     :                     0
          spin                       :                   1.5
          first test random number   :      0.84310772352233

   ID    Z sym.   atoms
    1    6 C      1-4
    2    7 N      5

           -------------------------------------------------
          |                 G F N 2 - x T B                 |
           -------------------------------------------------

        Reference                      10.1021/acs.jctc.8b01176
      * Hamiltonian:
        H0-scaling (s, p, d)           1.850000    2.230000    2.230000
        zeta-weighting                 0.500000
      * Dispersion:
        s8                             2.700000
        a1                             0.520000
        a2                             5.000000
        s9                             5.000000
      * Repulsion:
        kExp                           1.500000    1.000000
        rExp                           1.000000
      * Coulomb:
        alpha                          2.000000
        third order                    shell-resolved
        anisotropic                    true
        a3                             3.000000
        a5                             4.000000
        cn-shift                       1.200000
        cn-exp                         4.000000
        max-rad                        5.000000


          ...................................................
          :                      SETUP                      :
          :.................................................:
          :  # basis functions                  20          :
          :  # atomic orbitals                  20          :
          :  # shells                           10          :
          :  # electrons                        21          :
          :  max. iterations                   250          :
          :  Hamiltonian                  GFN2-xTB          :
          :  restarted?                      false          :
          :  GBSA solvation                  false          :
          :  PC potential                    false          :
          :  electronic temp.          300.0000000     K    :
          :  accuracy                    1.0000000          :
          :  -> integral cutoff          0.2500000E+02      :
          :  -> integral neglect         0.1000000E-07      :
          :  -> SCF convergence          0.1000000E-05 Eh   :
          :  -> wf. convergence          0.1000000E-03 e    :
          :  Broyden damping             0.4000000          :
          ...................................................

 iter      E             dE          RMSdq      gap      omega  full diag
   1    -10.6228007 -0.106228E+02  0.116E+01    0.58       0.0  T
   2     -9.6402071  0.982594E+00  0.137E+01    0.29       1.0  T
   3     -9.6957623 -0.555552E-01  0.116E+01    0.54       1.0  T
   4     -9.5898049  0.105957E+00  0.107E+01    0.43       1.0  T
   5    -10.6780805 -0.108828E+01  0.552E+00    0.21       1.0  T
   6    -10.6099908  0.680897E-01  0.553E+00    0.37       1.0  T
   7    -10.8540158 -0.244025E+00  0.259E+00    0.33       1.0  T
   8    -10.8537737  0.242136E-03  0.237E+00    0.31       1.0  T
   9    -10.8679663 -0.141926E-01  0.137E+00    0.21       1.0  T
  10    -10.8697758 -0.180944E-02  0.666E-01    0.15       1.0  T
  11    -10.8692584  0.517385E-03  0.606E-01    0.14       1.0  T
  12    -10.8688651  0.393295E-03  0.527E-01    0.14       1.0  T
  13    -10.8710979 -0.223282E-02  0.158E-01    0.17       1.0  T
  14    -10.8709469  0.151056E-03  0.198E-01    0.16       1.0  T
  15    -10.8712883 -0.341450E-03  0.292E-02    0.18       1.5  T
  16    -10.8712889 -0.576859E-06  0.215E-02    0.18       2.1  T
  17    -10.8712906 -0.168104E-05  0.940E-03    0.18       4.8  T
  18    -10.8712907 -0.117532E-06  0.505E-03    0.18       8.8  T
  19    -10.8712908 -0.145275E-06  0.263E-03    0.18      17.0  T
  20    -10.8712909 -0.563771E-07  0.323E-04    0.18     138.3  T
  21    -10.8712909 -0.440485E-09  0.161E-04    0.18     277.7  T

   *** convergence criteria satisfied after 21 iterations ***

         #    Occupation            Energy/Eh            Energy/eV
      -------------------------------------------------------------
         1        2.0000           -0.7196451             -19.5825
       ...           ...                  ...                  ...
         6        2.0000           -0.5287846             -14.3890
         7        2.0000           -0.5254372             -14.2979
         8        2.0000           -0.5154437             -14.0259
         9        1.9877           -0.4833096             -13.1515
        10        1.0123           -0.4749770             -12.9248
        11        1.0000           -0.4328369             -11.7781
        12        0.9679           -0.4154586             -11.3052 (HOMO)
        13        0.0321           -0.4089835             -11.1290 (LUMO)
        14                         -0.3967134             -10.7951
        15                         -0.3666547              -9.9772
        16                         -0.3205512              -8.7226
        17                         -0.0002160              -0.0059
       ...                                ...                  ...
        20                          0.0970627               2.6412
      -------------------------------------------------------------
                  HL-Gap            0.0064751 Eh            0.1762 eV
             Fermi-level           -0.4456822 Eh          -12.1276 eV

 SCC (total)                   0 d,  0 h,  0 min,  0.005 sec
 SCC setup                      ...        0 min,  0.000 sec (  1.427%)
 Dispersion                     ...        0 min,  0.000 sec (  0.337%)
 integral evaluation            ...        0 min,  0.001 sec ( 25.540%)
 zeroth order Hamiltonian       ...        0 min,  0.000 sec (  0.357%)
 iterations                     ...        0 min,  0.002 sec ( 45.538%)
 molecular gradient             ...        0 min,  0.001 sec ( 24.304%)
 printout                       ...        0 min,  0.000 sec (  2.357%)

         :::::::::::::::::::::::::::::::::::::::::::::::::::::
         ::                     SUMMARY                     ::
         :::::::::::::::::::::::::::::::::::::::::::::::::::::
         :: total energy             -10.816006692215 Eh    ::
         :: gradient norm              0.343839857924 Eh/a0 ::
         :: HOMO-LUMO gap              0.176196192139 eV    ::
         ::.................................................::
         :: SCC energy               -10.871290897911 Eh    ::
         :: -> isotropic ES           -0.025336699834 Eh    ::
         :: -> anisotropic ES         -0.000896083923 Eh    ::
         :: -> anisotropic XC          0.015050578039 Eh    ::
         :: -> dispersion             -0.002969272767 Eh    ::
         :: repulsion energy           0.055283967196 Eh    ::
         :: add. restraining           0.000000000000 Eh    ::
         :::::::::::::::::::::::::::::::::::::::::::::::::::::

      ----------------------------------------------------------- 
     |                   =====================                   |
     |                        A N C O P T                        |
     |                   =====================                   |
     |               Approximate Normal Coordinate               |
     |                Rational Function Optimizer                |
      ----------------------------------------------------------- 

          ...................................................
          :                      SETUP                      :
          :.................................................:
          :   optimization level            normal          :
          :   max. optcycles                   200          :
          :   ANC micro-cycles                  20          :
          :   degrees of freedom                 9          :
          :.................................................:
          :   RF solver                   davidson          :
          :   write xtbopt.log                true          :
          :   linear?                        false          :
          :   energy convergence         0.5000000E-05 Eh   :
          :   grad. convergence          0.1000000E-02 Eh/α :
          :   maximium RF displ.         1.0000000          :
          :   Hlow (freq-cutoff)         0.1000000E-01      :
          :   Hmax (freq-cutoff)         5.0000000          :
          :   S6 in model hess.         20.0000000          :
          ...................................................

generating ANC from model Hessian ...
Using Lindh-Hessian (1995)
 Shifting diagonal of input Hessian by    4.6147355978122702E-004
 Lowest  eigenvalues of input Hessian
   -0.000000   -0.000000   -0.000000    0.000000    0.000000    0.000000
    0.010000    0.037174    0.060782    0.067130    0.100020    0.571668
    0.889628    0.981655    1.107280
 Highest eigenvalues
    0.067130    0.100020    0.571668    0.889628    0.981655    1.107280


........................................................................
.............................. CYCLE    1 ..............................
........................................................................
   1    -10.8712909 -0.108713E+02  0.492E-05    0.18       0.0  T
   2    -10.8712909  0.454817E-09  0.216E-04    0.18     206.9  T
   3    -10.8712909 -0.453955E-09  0.418E-05    0.18    1070.4  T
     SCC iter.                  ...        0 min,  0.000 sec
     gradient                   ...        0 min,  0.002 sec
 * total energy  :   -10.8160067 Eh     change        0.7200693E-09 Eh
   gradient norm :     0.3438409 Eh/α   predicted     0.0000000E+00 (-100.00%)
   displ. norm   :     0.3950872 α      lambda       -0.1276323E+00
   maximum displ.:     0.3018599 α      in ANC's #6, #9, #7, ...

........................................................................
.............................. CYCLE    2 ..............................
........................................................................
   1    -11.0248844 -0.110249E+02  0.274E+00    0.67       0.0  T
   2    -10.8437227  0.181162E+00  0.486E+00    0.19       1.0  T
   3    -11.0294093 -0.185687E+00  0.184E+00    0.64       1.0  T
   4    -10.7661646  0.263245E+00  0.521E+00    0.69       1.0  T
   5    -11.0435818 -0.277417E+00  0.783E-01    0.71       1.0  T
   6    -11.0439288 -0.347039E-03  0.672E-01    0.70       1.0  T
   7    -11.0471535 -0.322473E-02  0.273E-01    0.70       1.0  T
   8    -11.0474714 -0.317843E-03  0.142E-01    0.69       1.0  T
   9    -11.0475267 -0.553587E-04  0.628E-02    0.69       1.0  T
  10    -11.0475365 -0.977296E-05  0.295E-02    0.69       1.5  T
  11    -11.0475371 -0.615257E-06  0.127E-02    0.69       3.5  T
  12    -11.0475374 -0.300884E-06  0.355E-03    0.69      12.6  T
  13    -11.0475375 -0.301523E-07  0.635E-04    0.69      70.4  T
  14    -11.0475375 -0.101222E-08  0.305E-04    0.69     146.6  T
     SCC iter.                  ...        0 min,  0.001 sec
     gradient                   ...        0 min,  0.001 sec
 * total energy  :   -10.9288099 Eh     change       -0.1128032E+00 Eh
   gradient norm :     0.2414884 Eh/α   predicted    -0.7377748E-01 ( -34.60%)
   displ. norm   :     0.6382245 α      lambda       -0.1430881E+00
   maximum displ.:     0.4324772 α      in ANC's #6, #9, #7, ...

........................................................................
.............................. CYCLE    3 ..............................
........................................................................
   1    -11.3221822 -0.113222E+02  0.355E+00    1.05       0.0  T
   2    -11.1997888  0.122393E+00  0.430E+00    1.02       1.0  T
   3    -11.1807344  0.190543E-01  0.409E+00    1.22       1.0  T
   4    -11.3083904 -0.127656E+00  0.182E+00    1.00       1.0  T
   5    -11.3357416 -0.273512E-01  0.314E-01    1.02       1.0  T
   6    -11.3356290  0.112599E-03  0.276E-01    1.02       1.0  T
   7    -11.3357558 -0.126797E-03  0.803E-02    1.02       1.0  T
   8    -11.3357661 -0.102498E-04  0.314E-02    1.02       1.4  T
   9    -11.3357652  0.838647E-06  0.175E-02    1.02       2.6  T
  10    -11.3357666 -0.139947E-05  0.557E-03    1.02       8.0  T
  11    -11.3357667 -0.109524E-06  0.202E-03    1.02      22.2  T
  12    -11.3357668 -0.301961E-07  0.482E-04    1.02      92.8  T
  13    -11.3357668 -0.826361E-11  0.105E-04    1.02     426.7  T
     SCC iter.                  ...        0 min,  0.002 sec
     gradient                   ...        0 min,  0.002 sec
 * total energy  :   -10.8752226 Eh     change        0.5358729E-01 Eh
   gradient norm :     1.0829883 Eh/α   predicted    -0.1006861E+00 (-287.89%)
   displ. norm   :     0.3347347 α      lambda       -0.3114461E+00
   maximum displ.:     0.2084449 α      in ANC's #9, #2, #5, ...

........................................................................
.............................. CYCLE    4 ..............................
........................................................................
   1    -11.1858594 -0.111859E+02  0.186E+00    0.99       0.0  T
   2    -11.1546923  0.311670E-01  0.278E+00    1.01       1.0  T
   3    -11.1968075 -0.421151E-01  0.935E-01    0.99       1.0  T
   4    -11.1700537  0.267538E-01  0.166E+00    0.97       1.0  T
   5    -11.1942947 -0.242410E-01  0.635E-01    1.00       1.0  T
   6    -11.1961065 -0.181184E-02  0.338E-01    0.99       1.0  T
   7    -11.1972523 -0.114573E-02  0.408E-02    0.99       1.1  T
   8    -11.1972559 -0.366309E-05  0.243E-02    0.99       1.8  T
   9    -11.1972573 -0.140911E-05  0.619E-03    0.99       7.2  T
  10    -11.1972573  0.134670E-07  0.359E-03    0.99      12.5  T
  11    -11.1972574 -0.666145E-07  0.626E-04    0.99      71.4  T
  12    -11.1972574 -0.991292E-09  0.231E-04    0.99     193.5  T
     SCC iter.                  ...        0 min,  0.001 sec
     gradient                   ...        0 min,  0.002 sec
 * total energy  :   -10.9796891 Eh     change       -0.1044665E+00 Eh
   gradient norm :     0.1683638 Eh/α   predicted    -0.1731715E+00 (  65.77%)
   displ. norm   :     0.4977222 α      lambda       -0.3588982E-01
   maximum displ.:     0.3060046 α      in ANC's #3, #1, #2, ...

........................................................................
.............................. CYCLE    5 ..............................
........................................................................
   1    -11.1336255 -0.111336E+02  0.193E+00    0.89       0.0  T
   2    -11.0487013  0.849243E-01  0.305E+00    0.93       1.0  T
   3    -11.0690369 -0.203356E-01  0.257E+00    0.93       1.0  T
   4    -11.1292590 -0.602221E-01  0.109E+00    0.88       1.0  T
   5    -11.1372121 -0.795314E-02  0.411E-01    0.88       1.0  T
   6    -11.1380616 -0.849508E-03  0.175E-01    0.88       1.0  T
   7    -11.1380619 -0.222788E-06  0.161E-01    0.88       1.0  T
   8    -11.1382240 -0.162183E-03  0.386E-02    0.88       1.2  T
   9    -11.1382286 -0.457365E-05  0.239E-02    0.88       1.9  T
  10    -11.1382305 -0.191966E-05  0.563E-03    0.88       7.9  T
  11    -11.1382306 -0.739288E-07  0.293E-03    0.88      15.3  T
  12    -11.1382306 -0.938487E-08  0.822E-04    0.88      54.4  T
  13    -11.1382306 -0.312950E-08  0.647E-05    0.88     691.1  T
     SCC iter.                  ...        0 min,  0.002 sec
     gradient                   ...        0 min,  0.001 sec
 * total energy  :   -10.9796566 Eh     change        0.3254538E-04 Eh
   gradient norm :     0.1218617 Eh/α   predicted    -0.2239035E-01 (*******%)
   displ. norm   :     0.3510412 α      lambda       -0.2482052E-01
   maximum displ.:     0.2929612 α      in ANC's #2, #6, #4, ...

........................................................................
.............................. CYCLE    6 ..............................
........................................................................
   1    -11.1830108 -0.111830E+02  0.136E+00    1.26       0.0  T
   2    -11.1802500  0.276074E-02  0.100E+00    1.26       1.0  T
   3    -11.1132885  0.669616E-01  0.256E+00    1.31       1.0  T
   4    -11.1773567 -0.640683E-01  0.845E-01    1.27       1.0  T
   5    -11.1838180 -0.646131E-02  0.161E-01    1.26       1.0  T
   6    -11.1840427 -0.224665E-03  0.707E-02    1.26       1.0  T
   7    -11.1840428 -0.940381E-07  0.530E-02    1.26       1.0  T
   8    -11.1840509 -0.809350E-05  0.160E-02    1.26       2.8  T
   9    -11.1840521 -0.125640E-05  0.746E-03    1.26       6.0  T
  10    -11.1840522 -0.835118E-07  0.209E-03    1.26      21.4  T
  11    -11.1840522  0.219058E-08  0.141E-03    1.26      31.7  T
  12    -11.1840522 -0.414294E-08  0.262E-04    1.26     170.5  T
  13    -11.1840522 -0.158776E-09  0.608E-05    1.26     735.3  T
     SCC iter.                  ...        0 min,  0.001 sec
     gradient                   ...        0 min,  0.001 sec
 * total energy  :   -10.9961213 Eh     change       -0.1646476E-01 Eh
   gradient norm :     0.0708003 Eh/α   predicted    -0.1393959E-01 ( -15.34%)
   displ. norm   :     0.2769120 α      lambda       -0.8974610E-02
   maximum displ.:     0.1714728 α      in ANC's #2, #5, #6, ...

........................................................................
.............................. CYCLE    7 ..............................
........................................................................
   1    -11.2124153 -0.112124E+02  0.109E+00    1.67       0.0  T
   2    -11.1760339  0.363815E-01  0.201E+00    1.47       1.0  T
   3    -11.1983870 -0.223531E-01  0.133E+00    1.54       1.0  T
   4    -11.2114311 -0.130441E-01  0.601E-01    1.72       1.0  T
   5    -11.2139789 -0.254777E-02  0.198E-01    1.58       1.0  T
   6    -11.2141185 -0.139577E-03  0.126E-01    1.58       1.0  T
   7    -11.2141393 -0.208131E-04  0.105E-01    1.58       1.0  T
   8    -11.2141819 -0.426468E-04  0.197E-02    1.57       2.3  T
   9    -11.2141840 -0.202868E-05  0.110E-02    1.57       4.1  T
  10    -11.2141840 -0.772298E-07  0.162E-03    1.57      27.5  T
  11    -11.2141841 -0.798633E-08  0.944E-04    1.57      47.4  T
  12    -11.2141841 -0.598022E-08  0.939E-05    1.57     476.0  T
     SCC iter.                  ...        0 min,  0.001 sec
     gradient                   ...        0 min,  0.001 sec
 * total energy  :   -11.0016130 Eh     change       -0.5491649E-02 Eh
   gradient norm :     0.0271163 Eh/α   predicted    -0.4831381E-02 ( -12.02%)
   displ. norm   :     0.5819631 α      lambda       -0.7021536E-02
   maximum displ.:     0.4613652 α      in ANC's #1, #2, #4, ...

........................................................................
.............................. CYCLE    8 ..............................
........................................................................
   1    -11.1873939 -0.111874E+02  0.194E+00    0.73       0.0  T
   2    -11.0608878  0.126506E+00  0.377E+00    0.74       1.0  T
   3    -11.1517643 -0.908764E-01  0.221E+00    0.88       1.0  T
   4    -11.1888881 -0.371238E-01  0.469E-01    0.85       1.0  T
   5    -11.1895362 -0.648061E-03  0.311E-01    0.72       1.0  T
   6    -11.1899756 -0.439410E-03  0.213E-01    0.77       1.0  T
   7    -11.1900313 -0.557392E-04  0.166E-01    0.77       1.0  T
   8    -11.1901210 -0.897351E-04  0.129E-02    0.74       3.5  T
   9    -11.1901214 -0.350289E-06  0.975E-03    0.75       4.6  T
  10    -11.1901215 -0.551226E-07  0.387E-03    0.74      11.6  T
  11    -11.1901216 -0.118585E-06  0.125E-03    0.74      35.7  T
  12    -11.1901216 -0.232582E-08  0.517E-04    0.74      86.4  T
  13    -11.1901216 -0.675133E-09  0.230E-04    0.74     194.2  T
     SCC iter.                  ...        0 min,  0.001 sec
     gradient                   ...        0 min,  0.001 sec
 * total energy  :   -10.9991490 Eh     change        0.2463945E-02 Eh
   gradient norm :     0.1574067 Eh/α   predicted    -0.4699807E-02 (-290.74%)
   displ. norm   :     0.2829559 α      lambda       -0.1443850E-01
   maximum displ.:     0.2415885 α      in ANC's #1, #3, #4, ...

........................................................................
.............................. CYCLE    9 ..............................
........................................................................
   1    -11.2096453 -0.112096E+02  0.116E+00    0.86       0.0  T
   2    -11.1986097  0.110356E-01  0.124E+00    0.85       1.0  T
   3    -11.1333377  0.652720E-01  0.288E+00    0.83       1.0  T
   4    -11.2081134 -0.747757E-01  0.503E-01    0.93       1.0  T
   5    -11.2100126 -0.189916E-02  0.108E-01    0.82       1.0  T
   6    -11.2100369 -0.242968E-04  0.671E-02    0.83       1.0  T
   7    -11.2100354  0.148789E-05  0.264E-02    0.83       1.7  T
   8    -11.2100391 -0.365604E-05  0.160E-02    0.83       2.8  T
   9    -11.2100392 -0.166358E-06  0.795E-03    0.83       5.6  T
  10    -11.2100396 -0.371874E-06  0.237E-03    0.83      18.9  T
  11    -11.2100396 -0.241064E-07  0.136E-03    0.83      32.8  T
  12    -11.2100396 -0.101242E-07  0.183E-04    0.83     245.0  T
  13    -11.2100396 -0.151436E-09  0.105E-04    0.83     426.3  T
     SCC iter.                  ...        0 min,  0.001 sec
     gradient                   ...        0 min,  0.001 sec
 * total energy  :   -11.0054375 Eh     change       -0.6288486E-02 Eh
   gradient norm :     0.0310732 Eh/α   predicted    -0.7797252E-02 (  23.99%)
   displ. norm   :     0.2499090 α      lambda       -0.4729650E-02
   maximum displ.:     0.2173569 α      in ANC's #4, #5, #8, ...

........................................................................
.............................. CYCLE   10 ..............................
........................................................................
   1    -11.2300872 -0.112301E+02  0.226E+00    0.19       0.0  T
   2    -11.0379432  0.192144E+00  0.503E+00    0.75       1.0  T
   3    -11.2013894 -0.163446E+00  0.236E+00    0.39       1.0  T
   4    -11.2220577 -0.206682E-01  0.178E+00    0.29       1.0  T
   5    -11.2229776 -0.919898E-03  0.159E+00    0.32       1.0  T
   6    -11.2305461 -0.756849E-02  0.113E+00    0.30       1.0  T
   7    -11.2374558 -0.690976E-02  0.134E-01    0.26       1.0  T
   8    -11.2373892  0.665855E-04  0.173E-01    0.30       1.0  T
   9    -11.2375309 -0.141633E-03  0.651E-02    0.29       1.0  T
  10    -11.2375315 -0.586045E-06  0.427E-02    0.28       1.0  T
  11    -11.2375363 -0.479785E-05  0.269E-02    0.28       1.7  T
  12    -11.2375329  0.332559E-05  0.363E-02    0.28       1.2  T
  13    -11.2375385 -0.554141E-05  0.388E-03    0.28      11.5  T
  14    -11.2375385 -0.601362E-07  0.114E-03    0.28      39.2  T
  15    -11.2375385 -0.681826E-08  0.187E-04    0.28     239.6  T
  16    -11.2375385 -0.114369E-09  0.375E-05    0.28    1192.3  T
     SCC iter.                  ...        0 min,  0.001 sec
     gradient                   ...        0 min,  0.001 sec
 * total energy  :   -11.0099781 Eh     change       -0.4540641E-02 Eh
   gradient norm :     0.0789184 Eh/α   predicted    -0.2512522E-02 ( -44.67%)
   displ. norm   :     0.9606942 α      lambda       -0.1901418E-01
   maximum displ.:     0.8251018 α      in ANC's #4, #5, #6, ...

........................................................................
.............................. CYCLE   11 ..............................
........................................................................
   1    -11.4184283 -0.114184E+02  0.936E+00    4.56       0.0  T
   2    -11.4332052 -0.147769E-01  0.588E+00    4.31       1.0  T
   3    -11.3802322  0.529730E-01  0.313E+00    4.26       1.0  T
   4    -11.4459162 -0.656840E-01  0.596E-01    4.90       1.0  T
   5    -11.4479002 -0.198392E-02  0.204E-01    4.83       1.0  T
   6    -11.4479520 -0.518139E-04  0.113E-01    4.84       1.0  T
   7    -11.4479529 -0.903614E-06  0.269E-02    4.85       1.7  T
   8    -11.4479548 -0.191809E-05  0.125E-02    4.84       3.6  T
   9    -11.4479547  0.132816E-06  0.887E-03    4.84       5.0  T
  10    -11.4479550 -0.367698E-06  0.160E-03    4.84      27.9  T
  11    -11.4479550 -0.454069E-09  0.258E-04    4.84     173.2  T
  12    -11.4479550 -0.108255E-09  0.867E-05    4.84     515.7  T
     SCC iter.                  ...        0 min,  0.001 sec
     gradient                   ...        0 min,  0.002 sec
 * total energy  :   -10.9802191 Eh     change        0.2975905E-01 Eh
   gradient norm :     0.6810282 Eh/α   predicted    -0.1828160E-01 (-161.43%)
   displ. norm   :     0.5125738 α      lambda       -0.3091240E+00
   maximum displ.:     0.3285693 α      in ANC's #4, #5, #6, ...

........................................................................
.............................. CYCLE   12 ..............................
........................................................................
   1    -11.2563638 -0.112564E+02  0.420E+00    0.95       0.0  T
   2    -11.1625832  0.937806E-01  0.424E+00    0.89       1.0  T
   3    -10.9244454  0.238138E+00  0.651E+00    1.06       1.0  T
   4    -11.1917306 -0.267285E+00  0.317E+00    1.68       1.0  T
   5    -11.2566097 -0.648791E-01  0.127E+00    1.10       1.0  T
   6    -11.2594983 -0.288864E-02  0.106E+00    1.02       1.0  T
   7    -11.2603212 -0.822876E-03  0.985E-01    1.01       1.0  T
   8    -11.2631076 -0.278645E-02  0.694E-01    0.93       1.0  T
   9    -11.2649178 -0.181019E-02  0.465E-01    0.88       1.0  T
  10    -11.2655289 -0.611094E-03  0.348E-01    0.86       1.0  T
  11    -11.2558093  0.971958E-02  0.113E+00    0.79       1.0  T
  12    -11.2551402  0.669156E-03  0.116E+00    0.79       1.0  T
  13    -11.2662878 -0.111477E-01  0.131E-01    0.82       1.0  T
  14    -11.2663861 -0.982854E-04  0.723E-02    0.82       1.0  T
  15    -11.2664295 -0.433440E-04  0.121E-02    0.82       3.7  T
  16    -11.2664286  0.857006E-06  0.144E-02    0.82       3.1  T
  17    -11.2664301 -0.145845E-05  0.529E-03    0.82       8.5  T
  18    -11.2664303 -0.219440E-06  0.983E-04    0.82      45.5  T
  19    -11.2664303  0.841283E-09  0.974E-04    0.82      45.9  T
     SCC iter.                  ...        0 min,  0.002 sec
     gradient                   ...        0 min,  0.001 sec
 * total energy  :   -11.0445523 Eh     change       -0.6433323E-01 Eh
   gradient norm :     0.1859647 Eh/α   predicted    -0.1951704E+00 ( 203.37%)
   displ. norm   :     0.4065419 α      lambda       -0.2570725E-01
   maximum displ.:     0.3204017 α      in ANC's #1, #2, #8, ...

........................................................................
.............................. CYCLE   13 ..............................
........................................................................
   1    -11.2653220 -0.112653E+02  0.164E+00    1.53       0.0  T
   2    -11.2506190  0.147030E-01  0.172E+00    1.41       1.0  T
   3    -11.2545099 -0.389089E-02  0.127E+00    1.67       1.0  T
   4    -11.2648847 -0.103747E-01  0.573E-01    1.55       1.0  T
   5    -11.2656613 -0.776618E-03  0.490E-01    1.46       1.0  T
   6    -11.2661083 -0.447029E-03  0.358E-01    1.50       1.0  T
   7    -11.2667239 -0.615623E-03  0.189E-01    1.47       1.0  T
   8    -11.2668761 -0.152145E-03  0.594E-02    1.45       1.0  T
   9    -11.2668726  0.349262E-05  0.487E-02    1.46       1.0  T
  10    -11.2668835 -0.109758E-04  0.868E-03    1.45       5.2  T
  11    -11.2668839 -0.349498E-06  0.151E-03    1.45      29.5  T
  12    -11.2668839 -0.545665E-08  0.817E-04    1.45      54.8  T
  13    -11.2668839 -0.261966E-08  0.327E-04    1.45     136.6  T
     SCC iter.                  ...        0 min,  0.001 sec
     gradient                   ...        0 min,  0.001 sec
 * total energy  :   -11.0588847 Eh     change       -0.1433235E-01 Eh
   gradient norm :     0.1330663 Eh/α   predicted    -0.1497802E-01 (   4.50%)
   displ. norm   :     0.4058726 α      lambda       -0.3914468E-01
   maximum displ.:     0.2514640 α      in ANC's #5, #4, #3, ...

........................................................................
.............................. CYCLE   14 ..............................
........................................................................
   1    -11.3139302 -0.113139E+02  0.301E+00    3.44       0.0  T
   2    -11.3126335  0.129670E-02  0.185E+00    3.77       1.0  T
   3    -11.2953663  0.172671E-01  0.185E+00    3.31       1.0  T
   4    -11.3171727 -0.218064E-01  0.310E-01    3.61       1.0  T
   5    -11.3177953 -0.622622E-03  0.111E-01    3.70       1.0  T
   6    -11.3178556 -0.602256E-04  0.609E-02    3.69       1.0  T
   7    -11.3178679 -0.122907E-04  0.275E-02    3.68       1.6  T
   8    -11.3178682 -0.292290E-06  0.103E-02    3.69       4.3  T
   9    -11.3178686 -0.493502E-06  0.377E-03    3.69      11.9  T
  10    -11.3178687 -0.893694E-08  0.941E-04    3.69      47.5  T
  11    -11.3178687 -0.205934E-08  0.185E-04    3.69     241.3  T
     SCC iter.                  ...        0 min,  0.001 sec
     gradient                   ...        0 min,  0.001 sec
 * total energy  :   -11.0584823 Eh     change        0.4023833E-03 Eh
   gradient norm :     0.1673443 Eh/α   predicted    -0.2279655E-01 (*******%)
   displ. norm   :     0.2533272 α      lambda       -0.2905171E-01
   maximum displ.:     0.1504588 α      in ANC's #4, #5, #1, ...

........................................................................
.............................. CYCLE   15 ..............................
........................................................................
   1    -11.3137610 -0.113138E+02  0.165E+00    2.71       0.0  T
   2    -11.3138456 -0.846318E-04  0.103E+00    2.39       1.0  T
   3    -11.3111246  0.272099E-02  0.818E-01    2.75       1.0  T
   4    -11.3148820 -0.375737E-02  0.224E-01    2.58       1.0  T
   5    -11.3152215 -0.339488E-03  0.840E-02    2.54       1.0  T
   6    -11.3152655 -0.439928E-04  0.278E-02    2.53       1.6  T
   7    -11.3152658 -0.340191E-06  0.125E-02    2.53       3.6  T
   8    -11.3152666 -0.765101E-06  0.350E-03    2.54      12.8  T
   9    -11.3152666 -0.159593E-07  0.206E-03    2.54      21.7  T
  10    -11.3152666 -0.775986E-08  0.524E-04    2.54      85.3  T
  11    -11.3152666 -0.943063E-09  0.624E-05    2.54     716.4  T
     SCC iter.                  ...        0 min,  0.001 sec
     gradient                   ...        0 min,  0.001 sec
 * total energy  :   -11.0750292 Eh     change       -0.1654686E-01 Eh
   gradient norm :     0.0330397 Eh/α   predicted    -0.1545803E-01 (  -6.58%)
   displ. norm   :     0.2121647 α      lambda       -0.2855091E-02
   maximum displ.:     0.1630281 α      in ANC's #2, #4, #6, ...

........................................................................
.............................. CYCLE   16 ..............................
........................................................................
   1    -11.3094980 -0.113095E+02  0.757E-01    2.33       0.0  T
   2    -11.3094981 -0.122321E-06  0.440E-01    2.29       1.0  T
   3    -11.3081529  0.134527E-02  0.432E-01    2.35       1.0  T
   4    -11.3095482 -0.139532E-02  0.788E-02    2.32       1.0  T
   5    -11.3095881 -0.399195E-04  0.343E-02    2.30       1.3  T
   6    -11.3095905 -0.243377E-05  0.222E-02    2.30       2.0  T
   7    -11.3095926 -0.200380E-05  0.538E-03    2.30       8.3  T
   8    -11.3095926  0.112791E-08  0.257E-03    2.30      17.4  T
   9    -11.3095926 -0.290450E-07  0.433E-04    2.30     103.2  T
  10    -11.3095926 -0.111861E-09  0.209E-04    2.30     213.8  T
     SCC iter.                  ...        0 min,  0.001 sec
     gradient                   ...        0 min,  0.001 sec
 * total energy  :   -11.0766091 Eh     change       -0.1579966E-02 Eh
   gradient norm :     0.0224907 Eh/α   predicted    -0.1491791E-02 (  -5.58%)
   displ. norm   :     0.1104900 α      lambda       -0.1390827E-02
   maximum displ.:     0.0731950 α      in ANC's #2, #8, #3, ...

........................................................................
.............................. CYCLE   17 ..............................
........................................................................
   1    -11.3105369 -0.113105E+02  0.467E-01    2.48       0.0  T
   2    -11.3105405 -0.359513E-05  0.265E-01    2.50       1.0  T
   3    -11.3103649  0.175531E-03  0.175E-01    2.46       1.0  T
   4    -11.3105593 -0.194372E-03  0.158E-02    2.49       2.8  T
   5    -11.3105573  0.195712E-05  0.191E-02    2.49       2.3  T
   6    -11.3105596 -0.226868E-05  0.405E-03    2.49      11.1  T
   7    -11.3105597 -0.775203E-07  0.227E-03    2.49      19.7  T
   8    -11.3105597 -0.151833E-07  0.485E-04    2.49      92.2  T
   9    -11.3105597 -0.613845E-09  0.246E-04    2.49     181.9  T
     SCC iter.                  ...        0 min,  0.001 sec
     gradient                   ...        0 min,  0.001 sec
 * total energy  :   -11.0771214 Eh     change       -0.5122519E-03 Eh
   gradient norm :     0.0288164 Eh/α   predicted    -0.7039035E-03 (  37.41%)
   displ. norm   :     0.0585009 α      lambda       -0.1040027E-02
   maximum displ.:     0.0379620 α      in ANC's #3, #2, #7, ...

........................................................................
.............................. CYCLE   18 ..............................
........................................................................
   1    -11.3079531 -0.113080E+02  0.260E-01    2.48       0.0  T
   2    -11.3079420  0.110646E-04  0.189E-01    2.51       1.0  T
   3    -11.3079509 -0.891875E-05  0.134E-01    2.49       1.0  T
   4    -11.3080073 -0.563617E-04  0.571E-02    2.50       1.0  T
   5    -11.3080248 -0.174938E-04  0.283E-02    2.50       1.6  T
   6    -11.3080299 -0.515066E-05  0.735E-03    2.50       6.1  T
   7    -11.3080299  0.444467E-08  0.210E-03    2.50      21.2  T
   8    -11.3080299 -0.311527E-07  0.731E-04    2.50      61.2  T
   9    -11.3080299 -0.105116E-08  0.208E-04    2.50     215.2  T
     SCC iter.                  ...        0 min,  0.001 sec
     gradient                   ...        0 min,  0.001 sec
 * total energy  :   -11.0775228 Eh     change       -0.4013996E-03 Eh
   gradient norm :     0.0101811 Eh/α   predicted    -0.5217931E-03 (  29.99%)
   displ. norm   :     0.0399380 α      lambda       -0.1775915E-03
   maximum displ.:     0.0284193 α      in ANC's #2, #1, #5, ...

........................................................................
.............................. CYCLE   19 ..............................
........................................................................
   1    -11.3108808 -0.113109E+02  0.121E-01    2.49       0.0  T
   2    -11.3108758  0.498491E-05  0.800E-02    2.48       1.0  T
   3    -11.3108402  0.355630E-04  0.851E-02    2.49       1.0  T
   4    -11.3108819 -0.416388E-04  0.247E-02    2.48       1.8  T
   5    -11.3108863 -0.440565E-05  0.679E-03    2.48       6.6  T
   6    -11.3108864 -0.119719E-06  0.286E-03    2.48      15.7  T
   7    -11.3108864 -0.214362E-07  0.947E-04    2.48      47.2  T
   8    -11.3108864 -0.772229E-09  0.370E-04    2.48     120.9  T
     SCC iter.                  ...        0 min,  0.001 sec
     gradient                   ...        0 min,  0.001 sec
 * total energy  :   -11.0776414 Eh     change       -0.1186420E-03 Eh
   gradient norm :     0.0103011 Eh/α   predicted    -0.8893676E-04 ( -25.04%)
   displ. norm   :     0.0337148 α      lambda       -0.1154642E-03
   maximum displ.:     0.0191584 α      in ANC's #5, #6, #3, ...

........................................................................
.............................. CYCLE   20 ..............................
........................................................................
   1    -11.3105381 -0.113105E+02  0.122E-01    2.46       0.0  T
   2    -11.3105374  0.696343E-06  0.754E-02    2.45       1.0  T
   3    -11.3104995  0.379144E-04  0.741E-02    2.46       1.0  T
   4    -11.3105388 -0.392505E-04  0.158E-02    2.45       2.8  T
   5    -11.3105405 -0.177487E-05  0.605E-03    2.45       7.4  T
   6    -11.3105407 -0.149969E-06  0.266E-03    2.45      16.8  T
   7    -11.3105407 -0.761677E-08  0.445E-04    2.45     100.5  T
   8    -11.3105407 -0.112129E-08  0.185E-04    2.45     242.4  T
     SCC iter.                  ...        0 min,  0.001 sec
     gradient                   ...        0 min,  0.001 sec
 * total energy  :   -11.0777165 Eh     change       -0.7510060E-04 Eh
   gradient norm :     0.0076786 Eh/α   predicted    -0.5779810E-04 ( -23.04%)
   displ. norm   :     0.0340911 α      lambda       -0.7817466E-04
   maximum displ.:     0.0201325 α      in ANC's #3, #2, #6, ...
 * RMSD in coord.:     1.1742847 α      energy gain  -0.2617098E+00 Eh

generating ANC from model Hessian ...
Using Lindh-Hessian (1995)
 Shifting diagonal of input Hessian by    9.4341073446105837E-003
 Lowest  eigenvalues of input Hessian
   -0.000000   -0.000000    0.000000    0.000000    0.000000    0.000000
    0.010000    0.040432    0.130517    0.341215    0.606349    1.083984
    1.383718    1.778756    2.768200
 Highest eigenvalues
    0.341215    0.606349    1.083984    1.383718    1.778756    2.768200


........................................................................
.............................. CYCLE   21 ..............................
........................................................................
   1    -11.3110062 -0.113110E+02  0.120E-01    2.44       0.0  T
   2    -11.3110063 -0.113510E-06  0.722E-02    2.44       1.0  T
   3    -11.3109987  0.764915E-05  0.327E-02    2.44       1.4  T
   4    -11.3110062 -0.755810E-05  0.871E-03    2.44       5.1  T
   5    -11.3110067 -0.445600E-06  0.266E-03    2.44      16.8  T
   6    -11.3110067  0.695066E-08  0.175E-03    2.44      25.6  T
   7    -11.3110067 -0.185434E-07  0.419E-04    2.44     106.8  T
   8    -11.3110067  0.236682E-10  0.215E-04    2.44     207.9  T
     SCC iter.                  ...        0 min,  0.001 sec
     gradient                   ...        0 min,  0.001 sec
 * total energy  :   -11.0777747 Eh     change       -0.5819145E-04 Eh
   gradient norm :     0.0098962 Eh/α   predicted     0.0000000E+00 (-100.00%)
   displ. norm   :     0.1750212 α      lambda       -0.4258806E-03
   maximum displ.:     0.1737987 α      in ANC's #1, #2, #3, ...

........................................................................
.............................. CYCLE   22 ..............................
........................................................................
   1    -11.3050645 -0.113051E+02  0.658E-01    2.47       0.0  T
   2    -11.3050940 -0.294677E-04  0.366E-01    2.46       1.0  T
   3    -11.3049796  0.114374E-03  0.129E-01    2.49       1.0  T
   4    -11.3051050 -0.125459E-03  0.394E-02    2.47       1.1  T
   5    -11.3051120 -0.696972E-05  0.195E-02    2.47       2.3  T
   6    -11.3051134 -0.136899E-05  0.123E-02    2.47       3.6  T
   7    -11.3051141 -0.704950E-06  0.255E-03    2.47      17.5  T
   8    -11.3051141  0.440175E-08  0.115E-03    2.47      39.0  T
   9    -11.3051141 -0.850578E-08  0.254E-04    2.47     175.8  T
  10    -11.3051141 -0.562519E-10  0.121E-04    2.47     370.6  T
     SCC iter.                  ...        0 min,  0.001 sec
     gradient                   ...        0 min,  0.001 sec
 * total energy  :   -11.0775654 Eh     change        0.2092985E-03 Eh
   gradient norm :     0.0151471 Eh/α   predicted    -0.2194620E-03 (-204.86%)
   displ. norm   :     0.1100701 α      lambda       -0.8638833E-03
   maximum displ.:     0.1022713 α      in ANC's #1, #2, #3, ...

........................................................................
.............................. CYCLE   23 ..............................
........................................................................
   1    -11.3084123 -0.113084E+02  0.437E-01    2.45       0.0  T
   2    -11.3084249 -0.125883E-04  0.244E-01    2.45       1.0  T
   3    -11.3083759  0.490667E-04  0.891E-02    2.44       1.0  T
   4    -11.3084298 -0.539224E-04  0.269E-02    2.45       1.7  T
   5    -11.3084331 -0.333193E-05  0.129E-02    2.44       3.5  T
   6    -11.3084335 -0.383727E-06  0.865E-03    2.44       5.2  T
   7    -11.3084338 -0.352352E-06  0.129E-03    2.44      34.6  T
   8    -11.3084338 -0.124811E-08  0.154E-04    2.44     289.7  T
   9    -11.3084338 -0.410676E-10  0.864E-05    2.44     517.6  T
     SCC iter.                  ...        0 min,  0.001 sec
     gradient                   ...        0 min,  0.001 sec
 * total energy  :   -11.0779968 Eh     change       -0.4313747E-03 Eh
   gradient norm :     0.0049232 Eh/α   predicted    -0.4371740E-03 (   1.34%)
   displ. norm   :     0.0405134 α      lambda       -0.9235270E-04
   maximum displ.:     0.0299959 α      in ANC's #2, #1, #3, ...

........................................................................
.............................. CYCLE   24 ..............................
........................................................................
   1    -11.3085617 -0.113086E+02  0.150E-01    2.45       0.0  T
   2    -11.3085623 -0.561619E-06  0.890E-02    2.44       1.0  T
   3    -11.3085591  0.312096E-05  0.222E-02    2.45       2.0  T
   4    -11.3085623 -0.316909E-05  0.880E-03    2.45       5.1  T
   5    -11.3085623  0.414925E-07  0.681E-03    2.44       6.6  T
   6    -11.3085626 -0.340693E-06  0.198E-03    2.45      22.6  T
   7    -11.3085626 -0.159594E-07  0.776E-04    2.45      57.6  T
   8    -11.3085626 -0.117136E-08  0.185E-04    2.45     241.7  T
     SCC iter.                  ...        0 min,  0.001 sec
     gradient                   ...        0 min,  0.001 sec
 * total energy  :   -11.0780768 Eh     change       -0.7997419E-04 Eh
   gradient norm :     0.0039515 Eh/α   predicted    -0.4625162E-04 ( -42.17%)
   displ. norm   :     0.1182573 α      lambda       -0.2321270E-03
   maximum displ.:     0.0717679 α      in ANC's #2, #1, #3, ...

........................................................................
.............................. CYCLE   25 ..............................
........................................................................
   1    -11.3090900 -0.113091E+02  0.436E-01    2.46       0.0  T
   2    -11.3090978 -0.778032E-05  0.254E-01    2.46       1.0  T
   3    -11.3090884  0.933766E-05  0.460E-02    2.46       1.0  T
   4    -11.3090908 -0.239723E-05  0.402E-02    2.46       1.1  T
   5    -11.3090998 -0.898768E-05  0.113E-02    2.46       4.0  T
   6    -11.3091005 -0.666847E-06  0.502E-03    2.46       8.9  T
   7    -11.3091006 -0.643933E-07  0.239E-03    2.46      18.7  T
   8    -11.3091006 -0.138692E-07  0.394E-04    2.46     113.6  T
   9    -11.3091006 -0.238852E-09  0.220E-04    2.46     203.1  T
     SCC iter.                  ...        0 min,  0.001 sec
     gradient                   ...        0 min,  0.001 sec
 * total energy  :   -11.0782073 Eh     change       -0.1305832E-03 Eh
   gradient norm :     0.0039004 Eh/α   predicted    -0.1176864E-03 (  -9.88%)
   displ. norm   :     0.0211523 α      lambda       -0.3183000E-04
   maximum displ.:     0.0173083 α      in ANC's #3, #5, #4, ...

........................................................................
.............................. CYCLE   26 ..............................
........................................................................
   1    -11.3099475 -0.113099E+02  0.772E-02    2.46       0.0  T
   2    -11.3099479 -0.345658E-06  0.432E-02    2.45       1.0  T
   3    -11.3099414  0.650386E-05  0.340E-02    2.46       1.3  T
   4    -11.3099487 -0.733013E-05  0.645E-03    2.46       6.9  T
   5    -11.3099486  0.115767E-06  0.633E-03    2.46       7.1  T
   6    -11.3099488 -0.265752E-06  0.181E-03    2.46      24.7  T
   7    -11.3099489 -0.162313E-07  0.652E-04    2.46      68.6  T
   8    -11.3099489 -0.216234E-09  0.220E-04    2.46     203.6  T
     SCC iter.                  ...        0 min,  0.001 sec
     gradient                   ...        0 min,  0.001 sec
 * total energy  :   -11.0782322 Eh     change       -0.2480965E-04 Eh
   gradient norm :     0.0030088 Eh/α   predicted    -0.1592087E-04 ( -35.83%)
   displ. norm   :     0.0359992 α      lambda       -0.3875594E-04
   maximum displ.:     0.0308156 α      in ANC's #3, #5, #2, ...

........................................................................
.............................. CYCLE   27 ..............................
........................................................................
   1    -11.3101084 -0.113101E+02  0.129E-01    2.44       0.0  T
   2    -11.3101098 -0.136682E-05  0.707E-02    2.44       1.0  T
   3    -11.3100930  0.167970E-04  0.516E-02    2.45       1.0  T
   4    -11.3101109 -0.179351E-04  0.130E-02    2.44       3.4  T
   5    -11.3101112 -0.312057E-06  0.964E-03    2.44       4.6  T
   6    -11.3101118 -0.543489E-06  0.293E-03    2.44      15.2  T
   7    -11.3101118 -0.428514E-07  0.105E-03    2.44      42.8  T
   8    -11.3101118 -0.296930E-09  0.371E-04    2.44     120.7  T
   9    -11.3101118 -0.643736E-09  0.823E-05    2.44     543.6  T
     SCC iter.                  ...        0 min,  0.001 sec
     gradient                   ...        0 min,  0.001 sec
 * total energy  :   -11.0782566 Eh     change       -0.2447413E-04 Eh
   gradient norm :     0.0019047 Eh/α   predicted    -0.1940415E-04 ( -20.72%)
   displ. norm   :     0.0300735 α      lambda       -0.1129526E-04
   maximum displ.:     0.0217076 α      in ANC's #2, #3, #5, ...

........................................................................
.............................. CYCLE   28 ..............................
........................................................................
   1    -11.3100129 -0.113100E+02  0.107E-01    2.43       0.0  T
   2    -11.3100134 -0.511043E-06  0.607E-02    2.42       1.0  T
   3    -11.3100010  0.123926E-04  0.421E-02    2.43       1.1  T
   4    -11.3100139 -0.128951E-04  0.845E-03    2.43       5.3  T
   5    -11.3100140 -0.792172E-07  0.545E-03    2.42       8.2  T
   6    -11.3100142 -0.184478E-06  0.151E-03    2.43      29.7  T
   7    -11.3100142 -0.811888E-08  0.720E-04    2.43      62.1  T
   8    -11.3100142 -0.859576E-09  0.909E-05    2.43     492.1  T
     SCC iter.                  ...        0 min,  0.001 sec
     gradient                   ...        0 min,  0.001 sec
 * total energy  :   -11.0782664 Eh     change       -0.9785938E-05 Eh
   gradient norm :     0.0015778 Eh/α   predicted    -0.5650876E-05 ( -42.26%)
   displ. norm   :     0.0115712 α      lambda       -0.3916870E-05
   maximum displ.:     0.0091616 α      in ANC's #2, #1, #3, ...

........................................................................
.............................. CYCLE   29 ..............................
........................................................................
   1    -11.3097652 -0.113098E+02  0.451E-02    2.43       0.0  T
   2    -11.3097652  0.704795E-07  0.274E-02    2.43       1.6  T
   3    -11.3097615  0.366767E-05  0.241E-02    2.43       1.9  T
   4    -11.3097654 -0.385817E-05  0.483E-03    2.43       9.3  T
   5    -11.3097655 -0.157476E-06  0.218E-03    2.43      20.6  T
   6    -11.3097655 -0.196593E-07  0.826E-04    2.43      54.1  T
   7    -11.3097655 -0.170440E-08  0.232E-04    2.43     192.5  T
     SCC iter.                  ...        0 min,  0.001 sec
     gradient                   ...        0 min,  0.001 sec
 * total energy  :   -11.0782700 Eh     change       -0.3593648E-05 Eh
   gradient norm :     0.0007386 Eh/α   predicted    -0.1959897E-05 ( -45.46%)
   displ. norm   :     0.0044328 α      lambda       -0.4839827E-06
   maximum displ.:     0.0031812 α      in ANC's #2, #1, #4, ...

   *** GEOMETRY OPTIMIZATION CONVERGED AFTER 29 ITERATIONS ***

------------------------------------------------------------------------
 total energy gain   :        -0.2622633 Eh     -164.5727 kcal/mol
 total RMSD          :         1.1492911 a0        0.6082 Å
 total power (kW/mol):       -23.7438700 (step)-6336.4296 (real)
------------------------------------------------------------------------

 ANCopt (total)                0 d,  0 h,  0 min,  0.109 sec
 optimizer setup                ...        0 min,  0.000 sec (  0.048%)
 model hessian                  ...        0 min,  0.000 sec (  0.097%)
 ANC generation                 ...        0 min,  0.000 sec (  0.075%)
 coordinate transformation      ...        0 min,  0.000 sec (  0.048%)
 single point calculation       ...        0 min,  0.106 sec ( 97.873%)
 optimization log               ...        0 min,  0.001 sec (  0.614%)
 hessian update                 ...        0 min,  0.000 sec (  0.048%)
 rational function              ...        0 min,  0.001 sec (  0.548%)

================
 final structure:
================
5
 xtb: 6.2.2 (9d81278992624c895f80dd42a50cac0aa55982e2)
C        -1.49974985607113    0.79167885073299   -0.03403685425048
C        -0.22011777347864    0.02005364418401   -0.00021574463787
C         1.08316556420794   -0.10138761746254    0.00744071998639
C        -1.62076196265928   -0.49892781915185    0.01317504839773
N         2.25746402800111   -0.21141805830258    0.01363783050416

 Bond Distances (Angstroems)
 ---------------------------
C1-C2=1.4947         C1-C4=1.2971         C2-C1=1.4947         C2-C3=1.3090         C2-C4=1.4938         C3-C2=1.3090         
C3-N5=1.1795         C4-C1=1.2971         C4-C2=1.4938         N5-C3=1.1795         
 C  C  Rav=1.3986 sigma=0.0957  Rmin=1.2971  Rmax=1.4947     4
 N  C  Rav=1.1795 sigma=0.0000  Rmin=1.1795  Rmax=1.1795     1

 selected bond angles (degree)
 --------------------
C4-C1-C2= 64.24                C3-C2-C1=154.22                C4-C2-C1= 51.45                C4-C2-C3=154.33                
N5-C3-C2=179.95                C2-C4-C1= 64.31                

 selected dihedral angles (degree)
 ---------------------------------
C3-C2-C1-C4=179.78            N5-C3-C2-C1=231.51            N5-C3-C2-C4= 51.10            C1-C4-C2-C3=180.22            
           -------------------------------------------------
          |                Final Singlepoint                |
           -------------------------------------------------

          ...................................................
          :                      SETUP                      :
          :.................................................:
          :  # basis functions                  20          :
          :  # atomic orbitals                  20          :
          :  # shells                           10          :
          :  # electrons                        21          :
          :  max. iterations                   250          :
          :  Hamiltonian                  GFN2-xTB          :
          :  restarted?                      false          :
          :  GBSA solvation                  false          :
          :  PC potential                    false          :
          :  electronic temp.          300.0000000     K    :
          :  accuracy                    1.0000000          :
          :  -> integral cutoff          0.2500000E+02      :
          :  -> integral neglect         0.1000000E-07      :
          :  -> SCF convergence          0.1000000E-05 Eh   :
          :  -> wf. convergence          0.1000000E-03 e    :
          :  Broyden damping             0.4000000          :
          ...................................................

 iter      E             dE          RMSdq      gap      omega  full diag
   1    -11.3097655 -0.113098E+02  0.117E-04    2.43       0.0  T
   2    -11.3097655 -0.119673E-10  0.806E-05    2.43     554.7  T
   3    -11.3097655 -0.350155E-10  0.449E-05    2.43     995.1  T

   *** convergence criteria satisfied after 3 iterations ***

         #    Occupation            Energy/Eh            Energy/eV
      -------------------------------------------------------------
         1        2.0000           -0.7239962             -19.7009
       ...           ...                  ...                  ...
         6        2.0000           -0.5500088             -14.9665
         7        2.0000           -0.5124721             -13.9451
         8        2.0000           -0.4978746             -13.5479
         9        2.0000           -0.4548842             -12.3780
        10        1.0000           -0.4294991             -11.6873
        11        1.0000           -0.4233953             -11.5212
        12        1.0000           -0.3683309             -10.0228 (HOMO)
        13                         -0.2788957              -7.5891 (LUMO)
        14                         -0.2495262              -6.7900
        15                         -0.1634007              -4.4464
        16                         -0.0230089              -0.6261
        17                         -0.0091027              -0.2477
       ...                                ...                  ...
        20                          1.2000597              32.6553
      -------------------------------------------------------------
                  HL-Gap            0.0894352 Eh            2.4337 eV
             Fermi-level           -0.3829029 Eh          -10.4193 eV

 SCC (total)                   0 d,  0 h,  0 min,  0.003 sec
 SCC setup                      ...        0 min,  0.000 sec (  1.477%)
 Dispersion                     ...        0 min,  0.000 sec (  0.216%)
 integral evaluation            ...        0 min,  0.002 sec ( 52.439%)
 zeroth order Hamiltonian       ...        0 min,  0.000 sec (  0.440%)
 iterations                     ...        0 min,  0.000 sec (  9.100%)
 molecular gradient             ...        0 min,  0.001 sec ( 35.022%)
 printout                       ...        0 min,  0.000 sec (  1.186%)

         :::::::::::::::::::::::::::::::::::::::::::::::::::::
         ::                     SUMMARY                     ::
         :::::::::::::::::::::::::::::::::::::::::::::::::::::
         :: total energy             -11.078270003967 Eh    ::
         :: gradient norm              0.000737863892 Eh/a0 ::
         :: HOMO-LUMO gap              2.433656891378 eV    ::
         ::.................................................::
         :: SCC energy               -11.309765537928 Eh    ::
         :: -> isotropic ES            0.004449700715 Eh    ::
         :: -> anisotropic ES          0.001574844578 Eh    ::
         :: -> anisotropic XC          0.017668443386 Eh    ::
         :: -> dispersion             -0.002665968709 Eh    ::
         :: repulsion energy           0.231495654382 Eh    ::
         :: add. restraining           0.000000000000 Eh    ::
         :::::::::::::::::::::::::::::::::::::::::::::::::::::

           ------------------------------------------------- 
          |                Numerical Hessian                |
           ------------------------------------------------- 
step length          :   0.00500
SCC accuracy         :   0.30000
Hessian scale factor :   1.00000
frozen atoms in %    :   0.00000    0
RMS gradient         :   0.00074
estimated CPU  time      0.00 min
estimated wall time      0.00 min

writing file <hessian>.

 projected vibrational frequencies (cm-1)
eigval :       -0.00     0.00     0.00     0.00     0.00     0.00
eigval :      135.48   163.63   354.32   454.68   587.14   726.98
eigval :     1451.68  1808.83  2071.72
           -------------------------------------------------
          |                Property Printout                |
           -------------------------------------------------

    * Orbital Energies and Occupations

         #    Occupation            Energy/Eh            Energy/eV
      -------------------------------------------------------------
         1        2.0000           -0.7239962             -19.7009
         2        2.0000           -0.6775861             -18.4381
         3        2.0000           -0.6451585             -17.5557
         4        2.0000           -0.5800105             -15.7829
         5        2.0000           -0.5572123             -15.1625
         6        2.0000           -0.5500088             -14.9665
         7        2.0000           -0.5124721             -13.9451
         8        2.0000           -0.4978746             -13.5479
         9        2.0000           -0.4548843             -12.3780
        10        1.0000           -0.4294991             -11.6873
        11        1.0000           -0.4233953             -11.5212
        12        1.0000           -0.3683309             -10.0228 (HOMO)
        13                         -0.2788957              -7.5891 (LUMO)
        14                         -0.2495262              -6.7900
        15                         -0.1634007              -4.4464
        16                         -0.0230088              -0.6261
        17                         -0.0091027              -0.2477
        18                          0.4349246              11.8349
        19                          0.5614376              15.2775
        20                          1.2000597              32.6553
      -------------------------------------------------------------
                  HL-Gap            0.0894352 Eh            2.4337 eV
             Fermi-level           -0.3829029 Eh          -10.4193 eV

     #   Z        covCN         q      C6AA      α(0)
     1   6 C      1.958     0.003    30.995     8.991
     2   6 C      2.937     0.070    26.426     8.431
     3   6 C      1.891     0.111    28.378     8.604
     4   6 C      1.958     0.003    30.994     8.991
     5   7 N      0.912    -0.187    25.057     7.239

 Mol. C6AA /au·bohr⁶  :        706.697147
 Mol. C8AA /au·bohr⁸  :      19479.561792
 Mol. α(0) /au        :         42.254931


Wiberg/Mayer (AO) data.
largest (>0.10) Wiberg bond orders for each atom
          total WBO             WBO to atom ...
     1  C   2.791        C    4 1.878    C    2 0.837
     2  C   3.225        C    3 1.505    C    4 0.838    C    1 0.837
     3  C   3.927        N    5 2.324    C    2 1.505
     4  C   2.793        C    1 1.878    C    2 0.838
     5  N   2.424        C    3 2.324

MOs/occ written to file <molden.input>


molecular dipole:
                 x           y           z       tot (Debye)
 q only:       -0.620       0.058      -0.003
Molecule has the following symmetry elements: (C2) 2*(sigma) 
It seems to be the C2v point group
   full:       -0.990       0.093      -0.005       2.527
molecular quadrupole (traceless):
                xx          xy          yy          xz          yz          zz
 q only:       -2.870       0.406       1.423      -0.026       0.002       1.447
  q+dip:       -5.034       0.777       3.180      -0.045      -0.047       1.854
   full:       -7.123       0.989       3.364      -0.064       0.017       3.759

           -------------------------------------------------
          |                Geometry Summary                 |
           -------------------------------------------------

      molecular mass/u    :       62.0496468
   center of mass at/Å    :        0.0726164      -0.0068013       0.0004386
  moments of inertia/u·Å² :        0.1010430E+02   0.1454764E+03   0.1555806E+03
rotational constants/cm⁻¹ :        0.1668362E+01   0.1158788E+00   0.1083531E+00

 * 3 selected distances

     #   Z        #   Z                                     value/Å
     2   6 C      3   6 C                                 1.3089515 (max)
     1   6 C      4   6 C                                 1.2971270
     3   6 C      5   7 N                                 1.1794583 (min)

 * 2 distinct bonds (by element types)

   Z      Z             #   av. dist./Å        max./Å        min./Å
   6 C    6 C           2     1.3030393     1.3089515     1.2971270
   6 C    7 N           1     1.1794583     1.1794583     1.1794583

           -------------------------------------------------
          |               Frequency Printout                |
           -------------------------------------------------
 projected vibrational frequencies (cm-1)
eigval :       -0.00     0.00     0.00     0.00     0.00     0.00
eigval :      135.48   163.63   354.32   454.68   587.14   726.98
eigval :     1451.68  1808.83  2071.72
 reduced masses (amu)
   1: 12.05   2: 12.06   3: 13.01   4: 12.19   5: 12.57   6: 13.32   7: 12.22   8: 12.56
   9: 12.42  10: 12.13  11: 12.02  12: 12.56  13: 12.34  14: 12.15  15: 12.54
 IR intensities (amu)
   1:  0.10   2:  0.06   3:  0.11   4:  0.06   5:  0.07   6:  0.15   7:  0.22   8:  0.35
   9:  0.41  10:  0.19  11:  0.29  12:  0.16  13:  0.46  14:  0.75  15:  0.36
 Raman intensities (amu)
   1:  0.00   2:  0.00   3:  0.00   4:  0.00   5:  0.00   6:  0.00   7:  0.00   8:  0.00
   9:  0.00  10:  0.00  11:  0.00  12:  0.00  13:  0.00  14:  0.00  15:  0.00
 output can be read by thermo (or use thermo option).
 writing <g98.out> molden fake output.
 recommended (thermochemical) frequency scaling factor: 1.0
           -------------------------------------------------
          |             Thermodynamic Functions             |
           -------------------------------------------------

c2v symmetry found (for desy threshold:  0.10E+00) used in thermo

          ...................................................
          :                      SETUP                      :
          :.................................................:
          :  # frequencies                           9      :
          :  # imaginary freq.                       0      :
          :  linear?                             false      :
          :  only rotor calc.                    false      :
          :  symmetry                              c2v      :
          :  rotational number                       2      :
          :  scaling factor                  1.0000000      :
          :  rotor cutoff                   50.0000000 cm⁻¹ :
          :  imag. cutoff                  -20.0000000 cm⁻¹ :
          :.................................................:

    mode    ω/cm⁻¹     T·S(HO)/kcal·mol⁻¹    T·S(FR)/kcal·mol⁻¹   T·S(vib)
   ------------------------------------------------------------------------
       1    135.48    -0.00000 ( 98.18%)     0.00821 (  1.82%)     0.00015
       2    163.63    -0.00000 ( 99.14%)     0.01009 (  0.86%)     0.00009
   ------------------------------------------------------------------------

   temp. (K)  partition function   enthalpy   heat capacity  entropy
                                   cal/mol     cal/K/mol   cal/K/mol   J/K/mol
 298.15  VIB   5.75                 1369.582      8.682      8.063
         ROT  0.183E+05              888.752      2.981     22.481
         INT  0.105E+06             2258.334     11.663     30.544
         TR   0.473E+27             1481.254      4.968     38.278
         TOT                        3739.5884    16.6311    68.8225   287.9532

   temp. (K)  partition function   enthalpy   heat capacity  entropy
                                   cal/mol     cal/K/mol   cal/K/mol   J/K/mol
 120.00  VIB   1.48                  193.691      3.953      2.403
         ROT  0.466E+04              357.707      2.981     19.769
         INT  0.689E+04              551.398      6.934     22.171
         TR   0.121E+27              596.178      4.968     33.759
         TOT                        1147.5757    11.9017    55.9302   234.0120

   temp. (K)  partition function   enthalpy   heat capacity  entropy
                                   cal/mol     cal/K/mol   cal/K/mol   J/K/mol
 100.00  VIB   1.30                  121.925      3.218      1.753
         ROT  0.355E+04              298.089      2.981     19.225
         INT  0.461E+04              420.014      6.199     20.978
         TR   0.919E+26              496.815      4.968     32.853
         TOT                         916.8287    11.1668    53.8315   225.2309

   temp. (K)  partition function   enthalpy   heat capacity  entropy
                                   cal/mol     cal/K/mol   cal/K/mol   J/K/mol
  80.00  VIB   1.16                   65.309      2.432      1.126
         ROT  0.254E+04              238.471      2.981     18.560
         INT  0.294E+04              303.780      5.413     19.686
         TR   0.657E+26              397.452      4.968     31.745
         TOT                         701.2321    10.3814    51.4315   215.1893

   temp. (K)  partition function   enthalpy   heat capacity  entropy
                                   cal/mol     cal/K/mol   cal/K/mol   J/K/mol
  60.00  VIB   1.06                   25.312      1.545      0.557
         ROT  0.165E+04              178.853      2.981     17.702
         INT  0.175E+04              204.166      4.526     18.259
         TR   0.427E+26              298.089      4.968     30.317
         TOT                         502.2546     9.4938    48.5760   203.2418

   temp. (K)  partition function   enthalpy   heat capacity  entropy
                                   cal/mol     cal/K/mol   cal/K/mol   J/K/mol
  40.00  VIB   1.01                    4.293      0.560      0.139
         ROT   898.                  119.236      2.981     16.494
         INT   907.                  123.528      3.541     16.633
         TR   0.232E+26              198.726      4.968     28.303
         TOT                         322.2543     8.5090    44.9362   188.0130

   temp. (K)  partition function   enthalpy   heat capacity  entropy
                                   cal/mol     cal/K/mol   cal/K/mol   J/K/mol
  20.00  VIB   1.00                    0.026      0.013     -0.005
         ROT   317.                   59.618      2.981     14.427
         INT   317.                   59.644      2.994     14.423
         TR   0.822E+25               99.363      4.968     24.861
         TOT                         159.0071     7.9622    39.2844   164.3657

   temp. (K)  partition function   enthalpy   heat capacity  entropy
                                   cal/mol     cal/K/mol   cal/K/mol   J/K/mol
  10.00  VIB   1.00                    0.000      0.000     -0.025
         ROT   112.                   29.809      2.981     12.361
         INT   112.                   29.809      2.981     12.336
         TR   0.290E+25               49.681      4.968     21.419
         TOT                          79.4904     7.9490    33.7558   141.2344

       T/K    H(0)-H(T)+PV         H(T)/Eh          T*S/Eh         G(T)/Eh
   ------------------------------------------------------------------------
    298.15    0.595941E-02    0.236254E-01    0.326998E-01   -0.907439E-02
    120.00    0.182878E-02    0.194947E-01    0.106957E-01    0.879909E-02
    100.00    0.146106E-02    0.191270E-01    0.857859E-02    0.105484E-01
     80.00    0.111748E-02    0.187835E-01    0.655690E-02    0.122266E-01
     60.00    0.800394E-03    0.184664E-01    0.464464E-02    0.138217E-01
     40.00    0.513545E-03    0.181795E-01    0.286441E-02    0.153151E-01
     20.00    0.253394E-03    0.179194E-01    0.125207E-02    0.166673E-01
     10.00    0.126676E-03    0.177926E-01    0.537934E-03    0.172547E-01 (used)
   ------------------------------------------------------------------------

         :::::::::::::::::::::::::::::::::::::::::::::::::::::
         ::                  THERMODYNAMIC                  ::
         :::::::::::::::::::::::::::::::::::::::::::::::::::::
         :: total free energy         -11.061015291303 Eh   ::
         ::.................................................::
         :: total energy              -11.078270004032 Eh   ::
         :: zero point energy           0.017665970222 Eh   ::
         :: G(RRHO) w/o ZPVE           -0.000411257492 Eh   ::
         :: G(RRHO) contrib.            0.017254712729 Eh   ::
         :::::::::::::::::::::::::::::::::::::::::::::::::::::

optimized geometry written to: xtbopt.xyz


           -------------------------------------------------
          | TOTAL ENERGY              -11.078270004032 Eh   |
          | TOTAL ENTHALPY            -11.060477357793 Eh   |
          | TOTAL FREE ENERGY         -11.061015291303 Eh   |
          | GRADIENT NORM               0.000737886469 Eh/α |
          | HOMO-LUMO GAP               2.433656619501 eV   |
           -------------------------------------------------

------------------------------------------------------------------------
 * finished run on 2020/05/12 at 11:43:59.622     
------------------------------------------------------------------------
 total:
 * wall-time:     0 d,  0 h,  0 min,  0.226 sec
 *  cpu-time:     0 d,  0 h,  0 min,  0.226 sec
 * ratio c/w:     0.998 speedup
 SCF:
 * wall-time:     0 d,  0 h,  0 min,  0.005 sec
 *  cpu-time:     0 d,  0 h,  0 min,  0.005 sec
 * ratio c/w:     1.000 speedup
 ANC optimizer:
 * wall-time:     0 d,  0 h,  0 min,  0.112 sec
 *  cpu-time:     0 d,  0 h,  0 min,  0.112 sec
 * ratio c/w:     0.999 speedup
 numerical hessian:
 * wall-time:     0 d,  0 h,  0 min,  0.094 sec
 *  cpu-time:     0 d,  0 h,  0 min,  0.094 sec
 * ratio c/w:     0.998 speedup

