[Molden Format]
[Title]
[Atoms] AU
C      1     6 -0.28341086116150E+01  0.14960707948560E+01 -0.64313044887626E-01
C      2     6 -0.41596207143681E+00  0.37898069053695E-01 -0.40631239918746E-03
C      3     6  0.20468851199235E+01 -0.19160550458321E+00  0.14054111055382E-01
C      4     6 -0.30628007881790E+01 -0.94282076644772E+00  0.24909567575673E-01
N      5     7  0.42659863513040E+01 -0.39954448260138E+00  0.25757568384869E-01
[GTO]
           1 0
 s           4   1.0000000000000000     
   51.049363095579913      -0.16312063210127389     
   8.7911227406887544      -0.19911024581000730     
  0.70640422258929825       0.31882047753655751     
  0.26922813413411617       0.12706504184240380     
 p           4   1.0000000000000000     
   5.8263656140800002       0.73716451545209605     
   1.5106896018720002       0.68216371614850257     
  0.53256483288000001       0.35783053929253711     
  0.21202323690600003        5.3983030275847881E-002

           2 0
 s           4   1.0000000000000000     
   51.049363095579913      -0.16312063210127389     
   8.7911227406887544      -0.19911024581000730     
  0.70640422258929825       0.31882047753655751     
  0.26922813413411617       0.12706504184240380     
 p           4   1.0000000000000000     
   5.8263656140800002       0.73716451545209605     
   1.5106896018720002       0.68216371614850257     
  0.53256483288000001       0.35783053929253711     
  0.21202323690600003        5.3983030275847881E-002

           3 0
 s           4   1.0000000000000000     
   51.049363095579913      -0.16312063210127389     
   8.7911227406887544      -0.19911024581000730     
  0.70640422258929825       0.31882047753655751     
  0.26922813413411617       0.12706504184240380     
 p           4   1.0000000000000000     
   5.8263656140800002       0.73716451545209605     
   1.5106896018720002       0.68216371614850257     
  0.53256483288000001       0.35783053929253711     
  0.21202323690600003        5.3983030275847881E-002

           4 0
 s           4   1.0000000000000000     
   51.049363095579913      -0.16312063210127389     
   8.7911227406887544      -0.19911024581000730     
  0.70640422258929825       0.31882047753655751     
  0.26922813413411617       0.12706504184240380     
 p           4   1.0000000000000000     
   5.8263656140800002       0.73716451545209605     
   1.5106896018720002       0.68216371614850257     
  0.53256483288000001       0.35783053929253711     
  0.21202323690600003        5.3983030275847881E-002

           5 0
 s           4   1.0000000000000000     
   63.594024466941008      -0.19234388414721629     
   10.951417231523665      -0.23478107924953728     
  0.87999310257376984       0.37593753901700888     
  0.33538715296521110       0.14982889271862770     
 p           4   1.0000000000000000     
   7.2965040481495080       0.97658666315667420     
   1.8918745450712575       0.90372226730345739     
  0.66694432110824120       0.47404958461536373     
  0.26552202674130870        7.1516067715011844E-002

[MO]
Sym=     1a
Ene=  -0.72399624060784129     
Spin= Alpha
Occup=     2.00000000
           1  0.38350837980908287     
           2   7.6602156021366594E-002
           3 -0.16706927918267572     
           4   6.4895410815494319E-003
           5  0.35225234021393742     
           6 -0.14737457195159678     
           7   1.3867458803231808E-002
           8  -1.1765306519477220E-003
           9   6.2716355610611549E-002
          10  -6.6136999022605489E-002
          11   6.1800464258545606E-003
          12  -4.3130588926617328E-004
          13  0.38365181681714955     
          14  0.10643687777455012     
          15  0.14988404300700106     
          16  -5.1051801777432784E-003
          17  -8.8816534199955069E-003
          18  -1.9320428189341045E-003
          19   1.7935926444516789E-004
          20  -2.1678477590413080E-005
Sym=     2a
Ene=  -0.67758612279878505     
Spin= Alpha
Occup=     2.00000000
           1  -8.9365317128886651E-002
           2   4.7742406833789643E-002
           3   3.0770741224604350E-002
           4  -1.0004259506553466E-003
           5  0.26562482382196129     
           6  0.22978672021863306     
           7  -2.1483252179111432E-002
           8   1.3831819004582208E-003
           9  0.54866489653132156     
          10   2.5878134561323870E-002
          11  -2.5150203081728884E-003
          12   5.1147862876280163E-005
          13  -8.9364903793905257E-002
          14   4.1221953129556399E-002
          15  -3.9103078493103606E-002
          16   1.5558521705547098E-003
          17  0.33399891632517681     
          18 -0.18126807301131839     
          19   1.6960988986414269E-002
          20  -9.8145463003048751E-004
Sym=     3a
Ene=  -0.64515852269575868     
Spin= Alpha
Occup=     2.00000000
           1 -0.15977869560597932     
           2  0.10949955779404792     
           3   6.0617474539335060E-002
           4  -1.8371041306081038E-003
           5  0.34227968000280451     
           6  0.19276292265671560     
           7  -1.8091564828888813E-002
           8   1.3045889757973058E-003
           9   5.3280170519876512E-004
          10 -0.40743375056679215     
          11   3.8039928815901881E-002
          12  -2.2307404040917368E-003
          13 -0.15960669219400167     
          14   9.6428402644512842E-002
          15  -7.9968570637718076E-002
          16   3.3064116733305402E-003
          17 -0.44559791789470077     
          18  0.11787267132764476     
          19  -1.1084482225457160E-002
          20   5.9945632423473861E-004
Sym=     4a
Ene=  -0.58001046640615284     
Spin= Alpha
Occup=     2.00000000
           1  0.42357116459359312     
           2  0.12922437045098906     
           3  0.23008022312414364     
           4  -7.9719895066476774E-003
           5  -5.8135762979841417E-004
           6   4.2794717974673484E-002
           7  0.44574934819423823     
           8  -1.6304006765762213E-002
           9   5.3748194655110261E-004
          10   1.9917174536539500E-002
          11  0.21840222547192772     
          12  -7.9907549421917301E-003
          13 -0.42252860855926005     
          14  -8.5818726480113822E-002
          15  0.25115251027134688     
          16  -9.6413117681680115E-003
          17  -6.3692835677860648E-004
          18   1.0545903056836461E-002
          19  0.11315234077478553     
          20  -4.1395512532818660E-003
Sym=     5a
Ene=  -0.55721231770334612     
Spin= Alpha
Occup=     2.00000000
           1 -0.21540593777591419     
           2  0.44629333475735866     
           3   7.9866918147560487E-002
           4  -2.5636922183825105E-004
           5  0.16474960451514747     
           6 -0.31399471981409632     
           7   3.0645707705762529E-002
           8  -1.1725718110583785E-003
           9 -0.18491449497530296     
          10  0.16304205448774503     
          11  -1.4271932233804636E-002
          12   1.2696216970854756E-003
          13 -0.21725735883451894     
          14  0.42343840459730592     
          15 -0.15997604435660454     
          16   8.5168807908821819E-003
          17  0.21722317052091514     
          18   5.3590178836464622E-002
          19  -4.3780600597244758E-003
          20   5.3362085157159628E-004
Sym=     6a
Ene=  -0.55000876949759869     
Spin= Alpha
Occup=     2.00000000
           1  -4.4840086735375008E-004
           2   2.4605389487796624E-003
           3  -1.3838040628337805E-002
           4 -0.37930918984701884     
           5  -9.6064568139710212E-005
           6   9.5952155589098598E-004
           7  -1.7656805122098090E-002
           8 -0.48024533907922479     
           9  -5.2343457236162948E-004
          10   1.0371101654458839E-003
          11  -1.3083388002254144E-002
          12 -0.35502690007136578     
          13  -4.5106422895092272E-004
          14   2.4110091767189667E-003
          15  -1.4376514259213369E-002
          16 -0.37949370583731740     
          17   3.2193072458077472E-004
          18   5.6457107697639849E-004
          19  -8.2789744875475888E-003
          20 -0.22489353168734347     
Sym=     7a
Ene=  -0.51247209551394213     
Spin= Alpha
Occup=     2.00000000
           1 -0.28102072639573500     
           2   3.7903394530319878E-002
           3 -0.18746180998909515     
           4   7.0688033994126005E-003
           5  -1.1617464139412416E-004
           6   1.1284573299678524E-002
           7  0.11954250906758643     
           8  -4.3729703782106298E-003
           9   3.4573726926164904E-004
          10   4.9522042462882235E-002
          11  0.52930031955647550     
          12  -1.9363117063510658E-002
          13  0.28094969952236082     
          14  -7.2716942498716783E-002
          15 -0.17685606516192659     
          16   6.2561010395833739E-003
          17  -3.4444208983956800E-004
          18   5.1381064945306219E-002
          19  0.54967231844580633     
          20  -2.0108532394515176E-002
Sym=     8a
Ene=  -0.49787463038037028     
Spin= Alpha
Occup=     2.00000000
           1  -3.7205710029257923E-005
           2   1.7971171227878112E-003
           3  -1.3801235400668499E-002
           4 -0.37295763558842221     
           5   1.6378459489054950E-005
           6  -2.8106517734741291E-006
           7  -1.1512531797853985E-003
           8  -3.1476129225503899E-002
           9  -3.3043770046741143E-005
          10  -8.8510593244081463E-004
          11   1.7724884557621598E-002
          12  0.48224676517538739     
          13  -3.7737425210365908E-005
          14   1.7952538069204848E-003
          15  -1.3823780785326310E-002
          16 -0.37297233621786152     
          17   1.0913890399251401E-004
          18  -9.2629066343437392E-004
          19   2.0045341434797550E-002
          20  0.54557277386839387     
Sym=     9a
Ene=  -0.45488428870539310     
Spin= Alpha
Occup=     1.99999842
           1  -6.0358615952702446E-003
           2  0.10140794257689734     
           3   7.8443785972534645E-003
           4   2.5685425681578168E-004
           5 -0.13247370021293017     
           6 -0.14727223160670663     
           7   1.3681570619429808E-002
           8  -1.2277353636049274E-003
           9  0.16727338495728900     
          10  0.20352793043574474     
          11  -1.9165104921911501E-002
          12   1.1654148272532121E-003
          13  -6.2305743257340422E-003
          14   9.8293810229626077E-002
          15  -2.6344693706163262E-002
          16   1.5078751045791850E-003
          17 -0.64959787575630268     
          18 -0.66883425796111695     
          19   6.2449864432887289E-002
          20  -3.3680000224785276E-003
Sym=    10a
Ene=  -0.42949914587046184     
Spin= Alpha
Occup=     1.00000158
           1 -0.26719012652862367     
           2  0.34280308818110122     
           3 -0.24568415084132944     
           4   1.0492030454412011E-002
           5  -4.5515095510745035E-004
           6   5.0267610883649762E-002
           7  0.53458732417715416     
           8  -1.9556175002477326E-002
           9  -5.0619533378592688E-005
          10  -4.8137622560721549E-003
          11  -5.2154416031367709E-002
          12   1.9080427745011312E-003
          13  0.25724898405203439     
          14 -0.37994850352184206     
          15 -0.16304235527054250     
          16   4.4653054527158563E-003
          17  -9.1129266195216207E-005
          18  -4.5037099868971961E-002
          19 -0.47906649865330042     
          20   1.7525079525237804E-002
Sym=    11a
Ene=  -0.42339528923437675     
Spin= Alpha
Occup=     1.00000000
           1  0.39238032826909780     
           2   2.9268763879486022E-002
           3  0.59953614727322546     
           4  -2.2018569750444552E-002
           5   1.1996898804432127E-002
           6  -1.0220915412475945E-002
           7   7.7681361586245772E-003
           8  -3.7468807860373358E-004
           9   8.1562308288809279E-003
          10  -1.0749448934003134E-002
          11   6.7113046430216196E-004
          12  -3.7649669831522217E-005
          13  0.39870986997614971     
          14  -9.2806775614286491E-002
          15 -0.59863368308607179     
          16   2.1774421173830136E-002
          17   8.8063516481157317E-003
          18   5.6842610138567095E-003
          19  -6.5539884385124730E-003
          20   3.1734246601490394E-004
Sym=    12a
Ene=  -0.36833094504685665     
Spin= Alpha
Occup=     1.00000000
           1   6.5232965866147453E-005
           2   1.2980871135803609E-003
           3  -1.2537715570148796E-002
           4 -0.34026518765054958     
           5   5.6146118157482763E-004
           6  -2.3371349237244782E-003
           7   2.5105357060478572E-002
           8  0.68025246334832357     
           9  -1.3184126272047079E-004
          10  -1.2619658688949856E-004
          11   7.0474638736411702E-003
          12  0.19231413219787430     
          13   6.5533135228359825E-005
          14   1.2858301927310587E-003
          15  -1.2550732834348967E-002
          16 -0.33889318478437630     
          17  -1.0738294839208504E-004
          18   6.9535404468337616E-004
          19  -2.2347801537039476E-002
          20 -0.60907820949707114     
Sym=    13a
Ene=  -0.27889570994107926     
Spin= Alpha
Occup=     0.00000000
           1  -6.2049398850862494E-006
           2  -3.2117552643916780E-003
           3   2.9738236667768141E-002
           4  0.80487201276978282     
           5   3.4069906152299909E-008
           6   3.3379704545281244E-007
           7   2.7114780230344957E-005
           8   3.4907565617623809E-004
           9  -1.2724046527855418E-007
          10  -1.9849222460496502E-005
          11  -1.6324862240517767E-004
          12   8.8286374805784603E-004
          13   6.5979919528895741E-006
          14   3.2120936950740622E-003
          15  -2.9763598846698713E-002
          16 -0.80513992119984379     
          17   1.0614471553251350E-008
          18   2.1194190828503943E-005
          19   1.7190940161808171E-004
          20  -9.9288566219919087E-004
Sym=    14a
Ene=  -0.24952622864223711     
Spin= Alpha
Occup=     0.00000000
           1   1.3643611983598545E-002
           2  0.42042378180028311     
           3  -2.7834411768908447E-002
           4   2.5274974801511832E-003
           5  -4.1690686484564739E-004
           6  -1.8077711297516084E-003
           7  -2.4371410684720790E-002
           8   8.9296544644084112E-004
           9  -1.9079671978531159E-004
          10  -6.8292167083283215E-002
          11 -0.72899000490466848     
          12   2.6669499530830056E-002
          13  -1.3173976688481220E-002
          14 -0.41728987814284940     
          15   5.0698403721832506E-002
          16  -3.3595477175135148E-003
          17  -3.7481126421092659E-005
          18   6.2924026233281749E-002
          19  0.67047128503571307     
          20  -2.4528441666724403E-002
Sym=    15a
Ene=  -0.16340071499691092     
Spin= Alpha
Occup=     0.00000000
           1   3.9738605378991535E-004
           2   3.2804364434216977E-004
           3   5.5943342630993837E-003
           4  0.15758159809404038     
           5  -2.1879391221449182E-003
           6   2.4154451550105092E-003
           7  -2.3492861728637269E-002
           8 -0.63589994953461260     
           9   1.2038755012408714E-003
          10  -2.2835467121152713E-003
          11   3.1473790073281799E-002
          12  0.85440918173604219     
          13   3.9729616902056799E-004
          14   3.4859573462646328E-004
          15   5.9217019979456859E-003
          16  0.15893757018113258     
          17  -1.3013288701279574E-004
          18   1.8961919664742719E-003
          19  -2.1777160493532937E-002
          20 -0.59036862625553654     
Sym=    16a
Ene=   -2.3008845903705045E-002
Spin= Alpha
Occup=     0.00000000
           1  -6.4237243276536599E-002
           2 -0.64690998253785048     
           3 -0.15786764108403675     
           4   3.1515013320398680E-003
           5   1.8486592969512248E-002
           6   7.0815822233094336E-002
           7  0.81503982110398565     
           8  -2.9879097203458028E-002
           9  -9.6551218903131227E-003
          10  -4.3110133207932798E-002
          11 -0.50138878694277966     
          12   1.8389324955275368E-002
          13   5.4775139946645089E-002
          14  0.58789853269660486     
          15 -0.27770592270559491     
          16   1.2724121515475159E-002
          17   2.0955261029494375E-003
          18   1.8015922498821172E-002
          19  0.25334389497316118     
          20  -9.2991283664307436E-003
Sym=    17a
Ene=   -9.1026988410250805E-003
Spin= Alpha
Occup=     0.00000000
           1 -0.25220424444869832     
           2 -0.44865145538449769     
           3  0.14255599411105893     
           4  -6.7054600772364879E-003
           5   1.0203347426353648     
           6 -0.26643752673396098     
           7   1.0098199270559020E-002
           8  -3.5546113735851364E-003
           9 -0.55058047757522888     
          10  0.21917839783342014     
          11  -1.1392918057443534E-002
          12   2.8537958180706166E-003
          13 -0.25430306758733168     
          14 -0.49066521820070219     
          15  -4.5521347253748297E-002
          16   7.5935342485519990E-005
          17  0.12068756715605175     
          18 -0.31978970123651163     
          19   2.5438234021163526E-002
          20  -2.5456894602152308E-003
Sym=    18a
Ene=   0.43492464241949264     
Spin= Alpha
Occup=     0.00000000
           1  0.24640723350022967     
           2  0.28856381999669417     
           3 -0.12933066212888192     
           4   6.1309989250636250E-003
           5  -5.0131408569192029E-002
           6   1.0031825097430023     
           7  -9.4022185245968948E-002
           8   6.5848259704002123E-003
           9  -1.0707814882153179     
          10  -7.1165545643993064E-002
          11   7.2151618651874862E-003
          12  -2.1316852281553190E-004
          13  0.24153028403512633     
          14  0.30819910821260010     
          15   6.6677661982859002E-002
          16  -1.0338166804247048E-003
          17  0.44427506537726563     
          18 -0.62137306747505261     
          19   5.8045596786674550E-002
          20  -3.3237854502571741E-003
Sym=    19a
Ene=   0.56143755855024802     
Spin= Alpha
Occup=     0.00000000
           1  0.85698192177423405     
           2  -2.0388254379204952E-003
           3 -0.96036175761295040     
           4   3.5497130841340659E-002
           5   1.1021815118949574E-003
           6  -2.4294268463896977E-002
           7 -0.22357477193660691     
           8   8.1675058172216569E-003
           9   3.4666550237423851E-003
          10   8.4672361234917684E-003
          11   7.8377376386059891E-002
          12  -2.8650877224797771E-003
          13 -0.85885915245999911     
          14 -0.17892404665728129     
          15 -0.94443576873595891     
          16   3.4176202112182738E-002
          17  -1.8953133683432049E-003
          18  -1.2008630083313867E-006
          19  -2.5512334348882133E-002
          20   9.3761635025555617E-004
Sym=    20a
Ene=    1.2000597475993999     
Spin= Alpha
Occup=     0.00000000
           1  0.13040072097570668     
           2  0.11605694677400064     
           3  -6.2536904658337944E-002
           4   2.9124768124374838E-003
           5  0.53626767548332732     
           6  0.87603244181821127     
           7  -8.1293930785348703E-002
           8   5.5363049426482378E-003
           9   7.3064695503641502E-002
          10   1.4759404323883782     
          11 -0.13801611686467841     
          12   8.1180501121295434E-003
          13  0.13193486159360440     
          14  0.12663081283971650     
          15   4.0825024664926414E-002
          16  -8.6471300579612251E-004
          17 -0.83179587845453451     
          18  0.76982760582943210     
          19  -7.2208245007595276E-002
          20   3.9740661009679337E-003
