5
 energy: -10.958230587497 gnorm: 0.000890618086 xtb: 6.2.2 (9d81278992624c895f80dd42a50cac0aa55982e2)
N        -0.98277194870494   -0.34033610160631    0.69015209350829
C        -0.45265349038217   -0.44983234497710   -0.58745334147604
C         0.99589562025520   -0.45556984399579   -0.21417768679132
C         0.22975391382876    0.88001493249191   -0.64653775371469
C         0.20977590499966    0.36572335808555    0.75801568847376
