$hessian                                                                        
        0.5086143390   0.0102555048  -0.1081472349  -0.1806404572  -0.1164572193
        0.0484030612  -0.1386379950  -0.0041567260   0.0100505663  -0.1893358868
        0.1103584405   0.0496936074
        0.0102555048   0.1105808039  -0.0027673978  -0.0568243696  -0.0698047522
        0.0261257824  -0.0041310270   0.0203700263   0.0002841894   0.0506998918
       -0.0611460779  -0.0236425740
       -0.1081472349  -0.0027673978   0.0813420904   0.0596630915   0.0527067492
       -0.0610499616  -0.0138365175  -0.0003337941   0.0407596614   0.0623206608
       -0.0496055574  -0.0610517903
       -0.1806404572  -0.0568243696   0.0596630915   0.2596352467  -0.0327645431
       -0.0020550389  -0.1844448691   0.0648716062  -0.0500485677   0.1054500796
        0.0247173064  -0.0075594850
       -0.1164572193  -0.0698047522   0.0527067492  -0.0327645431   0.3598417731
       -0.0816072879   0.1569345628  -0.0669389668   0.0588491247  -0.0077128005
       -0.2230980541  -0.0299485861
        0.0484030612   0.0261257824  -0.0610499616  -0.0020550389  -0.0816072879
        0.0669999698  -0.0372495875   0.0258352647  -0.0535927610  -0.0090984348
        0.0296462408   0.0476427527
       -0.1386379950  -0.0041310270  -0.0138365175  -0.1844448691   0.1569345628
       -0.0372495875   0.4957480575   0.0096260056   0.0869007148  -0.1726651935
       -0.1624295413  -0.0358146099
       -0.0041567260   0.0203700263  -0.0003337941   0.0648716062  -0.0669389668
        0.0258352647   0.0096260056   0.1253081926   0.0022563199  -0.0703408858
       -0.0787392521  -0.0277577905
        0.0100505663   0.0002841894   0.0407596614  -0.0500485677   0.0588491247
       -0.0535927610   0.0869007148   0.0022563199   0.0664135095  -0.0469027134
       -0.0613896340  -0.0535804100
       -0.1893358868   0.0506998918   0.0623206608   0.1054500796  -0.0077128005
       -0.0090984348  -0.1726651935  -0.0703408858  -0.0469027134   0.2565510007
        0.0273537945  -0.0063195125
        0.1103584405  -0.0611460779  -0.0496055574   0.0247173064  -0.2230980541
        0.0296462408  -0.1624295413  -0.0787392521  -0.0613896340   0.0273537945
        0.3629833841   0.0813489506
        0.0496936074  -0.0236425740  -0.0610517903  -0.0075594850  -0.0299485861
        0.0476427527  -0.0358146099  -0.0277577905  -0.0535804100  -0.0063195125
        0.0813489506   0.0669894475
