4
 energy: -10.119252423452 gnorm: 0.000445048166 xtb: 6.2.2 (9d81278992624c895f80dd42a50cac0aa55982e2)
O        -1.03596391655893   -0.02683118228500    0.16493887393142
C        -0.03604812645070    0.84066214257288   -0.15772165358808
C         1.06445534454729    0.02761336231297    0.15026315379955
C         0.00755669846233   -0.84144432260086   -0.15748037414289
