[Molden Format]
[Title]
[Atoms] AU
O      1     8 -0.19576878956570E+01 -0.50703581414283E-01  0.31168927011606E+00
C      2     6 -0.68121079977426E-01  0.15886210654118E+01 -0.29805070155146E+00
C      3     6  0.20115288864591E+01  0.52181687310174E-01  0.28395618095825E+00
C      4     6  0.14280089175287E-01 -0.15900991713077E+01 -0.29759474952285E+00
[GTO]
           1 0
 s           4   1.0000000000000000     
   69.137961906196551      -0.20478756370077797     
   11.906129132707308      -0.24997023136827334     
  0.95670827744340703       0.40025880240639616     
  0.36462520496073686       0.15952206667693555     
 p           4   1.0000000000000000     
   8.2124193257781641        1.1321556799186829     
   2.1293576997098116        1.0476840782254817     
  0.75066448202360914       0.54956508217158984     
  0.29885246543283073        8.2908486592766617E-002

           2 0
 s           4   1.0000000000000000     
   51.049363095579913      -0.16312063210127389     
   8.7911227406887544      -0.19911024581000730     
  0.70640422258929825       0.31882047753655751     
  0.26922813413411617       0.12706504184240380     
 p           4   1.0000000000000000     
   5.8263656140800002       0.73716451545209605     
   1.5106896018720002       0.68216371614850257     
  0.53256483288000001       0.35783053929253711     
  0.21202323690600003        5.3983030275847881E-002

           3 0
 s           4   1.0000000000000000     
   51.049363095579913      -0.16312063210127389     
   8.7911227406887544      -0.19911024581000730     
  0.70640422258929825       0.31882047753655751     
  0.26922813413411617       0.12706504184240380     
 p           4   1.0000000000000000     
   5.8263656140800002       0.73716451545209605     
   1.5106896018720002       0.68216371614850257     
  0.53256483288000001       0.35783053929253711     
  0.21202323690600003        5.3983030275847881E-002

           4 0
 s           4   1.0000000000000000     
   51.049363095579913      -0.16312063210127389     
   8.7911227406887544      -0.19911024581000730     
  0.70640422258929825       0.31882047753655751     
  0.26922813413411617       0.12706504184240380     
 p           4   1.0000000000000000     
   5.8263656140800002       0.73716451545209605     
   1.5106896018720002       0.68216371614850257     
  0.53256483288000001       0.35783053929253711     
  0.21202323690600003        5.3983030275847881E-002

[MO]
Sym=     1a
Ene=  -0.80365968289450529     
Spin= Alpha
Occup=     2.00000000
           1  0.59697851698039173     
           2  0.19551663389896551     
           3   5.0596889336182640E-003
           4  -5.9468670949816990E-002
           5  0.22962439220897179     
           6  -8.0027150609861042E-002
           7 -0.13513817035594275     
           8   3.2543892731133110E-002
           9  0.10274531713336593     
          10  -7.4585237499372223E-002
          11  -1.9346612137831802E-003
          12  -8.9984344259316975E-003
          13  0.22962463158116714     
          14  -8.6921713846302373E-002
          15  0.13081992047871502     
          16   3.2505865392956669E-002
Sym=     2a
Ene=  -0.71402854272903471     
Spin= Alpha
Occup=     2.00000000
           1  0.56163387911468454     
           2 -0.29241136164146381     
           3  -7.5767734036856311E-003
           4   2.5353033489106783E-002
           5 -0.21056986934866465     
           6 -0.19168168526219789     
           7   8.4154144814551649E-002
           8  -2.0432283768420127E-003
           9 -0.35576416399985217     
          10  0.12196041684872763     
          11   3.1676436303799300E-003
          12   4.2067102682171092E-002
          13 -0.21057031598753029     
          14 -0.18706506702620274     
          15  -9.3972936406630320E-002
          16  -2.0177540058597524E-003
Sym=     3a
Ene=  -0.68022595912880157     
Spin= Alpha
Occup=     2.00000000
           1  -1.2788992736625786E-007
           2   1.6661236769184906E-002
           3 -0.64272362982126630     
           4   9.2409652226618379E-005
           5 -0.35762937270237255     
           6  0.16694226429562520     
           7  -4.6293456840225775E-002
           8  -6.3023219622586557E-002
           9   3.6263071845785145E-007
          10   2.5968573736594369E-003
          11 -0.10018960745996158     
          12   1.4439597887627586E-005
          13  0.35762895757215502     
          14 -0.16431980567263244     
          15  -5.4863224398106335E-002
          16   6.3038035637092163E-002
Sym=     4a
Ene=  -0.63024067285586594     
Spin= Alpha
Occup=     2.00000000
           1  0.21418001953163215     
           2 -0.10586206898842358     
           3  -2.6473647254321511E-003
           4  0.66972445334013331     
           5  -7.4955736189607242E-002
           6  0.13295341843583233     
           7   4.6864633449349456E-002
           8  0.28820647916301478     
           9  0.22523758573139077     
          10  -1.9879197848516689E-002
          11  -4.9801233283050105E-004
          12  0.12536242585418456     
          13  -7.4955161028115239E-002
          14  0.13520233487280128     
          15  -3.9830861331743961E-002
          16  0.28821952223251540     
Sym=     5a
Ene=  -0.59346505088429813     
Spin= Alpha
Occup=     2.00000000
           1  0.32362463949009129     
           2 -0.63782870975263883     
           3  -1.6557107390671542E-002
           4 -0.17971591308917342     
           5   2.6728573504326461E-002
           6  0.21127736743746947     
           7   2.3052357856907211E-002
           8 -0.16997242711569016     
           9  0.41345851875018230     
          10   7.5160956113285216E-002
          11   1.9223359094575805E-003
          12 -0.14695558714530341     
          13   2.6735743485396108E-002
          14  0.21219675496885052     
          15  -1.2126071415698523E-002
          16 -0.16996762649329164     
Sym=     6a
Ene=  -0.57962227821101930     
Spin= Alpha
Occup=     2.00000000
           1   3.3642893907965773E-006
           2   7.2518343117922834E-003
           3 -0.28002715655334975     
           4   3.9638643213606078E-005
           5  0.32082146429880348     
           6  0.31941714085962569     
           7  0.13022955832431712     
           8   1.4664358562921928E-003
           9   5.0000222051027226E-006
          10  -1.2153703198218981E-002
          11  0.46889462434296042     
          12  -6.8606979726071877E-005
          13 -0.32082058557655879     
          14 -0.32572898230385783     
          15  0.11350593701774160     
          16  -1.5043442911947366E-003
Sym=     7a
Ene=  -0.48592108813592882     
Spin= Alpha
Occup=     2.00000000
           1  -1.2503058150758526E-002
           2  -9.4918982851185704E-002
           3  -2.4234194171527191E-003
           4  0.26416252243634231     
           5  0.45663546841573738     
           6   1.0355123367778179E-002
           7  0.40693068330360832     
           8  -8.9359719079215735E-002
           9 -0.31424653380018924     
          10 -0.21706962508768857     
          11  -5.6571679039229871E-003
          12 -0.20253551479388629     
          13  0.45663299639336857     
          14   3.1424833439694613E-002
          15 -0.40587165553926696     
          16  -8.9242740851496999E-002
Sym=     8a
Ene=  -0.46743751415897677     
Spin= Alpha
Occup=     2.00000000
           1  -6.1221540221962994E-002
           2  -4.4846940713461743E-002
           3  -1.2294851505532157E-003
           4 -0.46079775686698998     
           5  0.17600517119536835     
           6 -0.10665569389418368     
           7  0.29827960963171618     
           8  0.22322064837884284     
           9  0.31181854915108392     
          10  0.18400947520090249     
          11   4.8414454659211634E-003
          12  0.50595208701870797     
          13  0.17600201044394062     
          14  -9.1059961767378253E-002
          15 -0.30333886944012539     
          16  0.22331059762796210     
Sym=     9a
Ene=  -0.41781489624802148     
Spin= Alpha
Occup=     1.00000000
           1  -3.2056152080530788E-002
           2 -0.35211572026889171     
           3  -9.1716452714692663E-003
           4 -0.29199963608868917     
           5  -4.9182911811999359E-002
           6  0.15412414745526404     
           7 -0.10878787776228507     
           8  0.15805769352624000     
           9 -0.36359095851478890     
          10 -0.70479221202570086     
          11  -1.8234357010710668E-002
          12  0.27055525417269310     
          13  -4.9188760790151824E-002
          14  0.14828191550538469     
          15  0.11667912080202893     
          16  0.15803928647883955     
Sym=    10a
Ene=  -0.41447319533511745     
Spin= Alpha
Occup=     1.00000000
           1   7.0471459953359234E-007
           2   5.4488255930148629E-003
           3 -0.21001746008290426     
           4   3.5073782928566401E-005
           5  0.26297737183964709     
           6 -0.11479900086548833     
           7  0.28751361951360221     
           8 -0.54669743452761399     
           9   3.7505064771447533E-006
          10   8.0669262181945374E-003
          11 -0.31088444872161841     
          12   4.0555329943139928E-005
          13 -0.26297907980973922     
          14   9.9741298011127799E-002
          15  0.29323329376466167     
          16  0.54660694174462610     
Sym=    11a
Ene=  -0.30814465940761360     
Spin= Alpha
Occup=     0.00000000
           1   3.3722223954226797E-007
           2   8.4881682861574249E-003
           3 -0.32743067171518503     
           4   4.3653261223983007E-005
           5   9.6907901376475841E-002
           6 -0.10480557276502603     
           7  0.50668916244438211     
           8  0.48985100443951168     
           9  -3.6242696499688239E-007
          10   9.2677692861701400E-003
          11 -0.35751140720100405     
          12   4.6106302628500129E-005
          13  -9.6910633258713907E-002
          14   7.8417457831490373E-002
          15  0.51129856891932446     
          16 -0.48998852680203658     
Sym=    12a
Ene=  -0.26709346824001462     
Spin= Alpha
Occup=     0.00000000
           1  -3.1783432679301116E-002
           2  -3.4919046014755199E-002
           3  -8.5072413844653437E-004
           4  0.39445122477551836     
           5   8.0377531437548680E-002
           6  -4.2088515364098654E-002
           7  -9.3830742880085596E-002
           8 -0.51781513780258548     
           9   6.1735969028358061E-002
          10  -7.6232615142887261E-002
          11  -1.8673278122405671E-003
          12  0.77579697524482683     
          13   8.0377476650193069E-002
          14  -4.6888417839840164E-002
          15   9.1382825602313769E-002
          16 -0.51785139379574419     
Sym=    13a
Ene=    8.3465324301981766E-002
Spin= Alpha
Occup=     0.00000000
           1   3.2250893380388226E-005
           2  -2.0110237470071148E-002
           3  0.77695169602314085     
           4  -1.2247486995362969E-004
           5 -0.38072896300143183     
           6  0.60753808465174741     
           7  0.43965309972923527     
           8 -0.10244245372745071     
           9  -1.5057196643961553E-005
          10   7.1548706399150530E-003
          11 -0.27574873466084837     
          12   4.8274921365443737E-005
          13  0.38071142492449195     
          14 -0.62943987079035391     
          15  0.40759580740356594     
          16  0.10230926115285315     
Sym=    14a
Ene=   0.10450879001155872     
Spin= Alpha
Occup=     0.00000000
           1 -0.71536568207560558     
           2 -0.67394923927693318     
           3  -1.7398039485118741E-002
           4  0.24374741565251437     
           5  0.19661117662106878     
           6 -0.66016416084181095     
           7 -0.24824556891360278     
           8  0.12962487341900530     
           9  0.33434350494615539     
          10 -0.13347912216674984     
          11  -3.4572717172741737E-003
          12 -0.19608811124741982     
          13  0.19670141495815008     
          14 -0.67215628276596273     
          15  0.21383160413301885     
          16  0.12958216388085919     
Sym=    15a
Ene=   0.12720410192789736     
Spin= Alpha
Occup=     0.00000000
           1  -3.7894739952182474E-005
           2   9.4683577593718737E-004
           3  -3.7954810920226213E-002
           4   1.7944746156512465E-005
           5  0.56050071794757983     
           6  0.45904302927106616     
           7 -0.46240951631722310     
           8  0.14103086245939775     
           9   1.0202388847631643E-005
          10   2.3044576847697007E-002
          11 -0.88896375576485054     
          12   1.1957253628744670E-004
          13 -0.56047236318490412     
          14 -0.43452901489711687     
          15 -0.48558040304413053     
          16 -0.14087835599335863     
Sym=    16a
Ene=   0.41843210083430948     
Spin= Alpha
Occup=     0.00000000
           1  0.23238838707712856     
           2  0.36145420138058465     
           3   9.3653506751977637E-003
           4  -3.3456692040625569E-002
           5 -0.55700650936182317     
           6 -0.33485257740379071     
           7  0.43989385195114483     
           8 -0.20775064987915312     
           9  0.85014592581554416     
          10 -0.88567672813061893     
          11  -2.2998464940348740E-002
          12 -0.21598322193113170     
          13 -0.55702063673150792     
          14 -0.31162152411101685     
          15 -0.45672127149255004     
          16 -0.20762559785315340     
