      -----------------------------------------------------------      
     |                   =====================                   |     
     |                           x T B                           |     
     |                   =====================                   |     
     |                         S. Grimme                         |     
     |          Mulliken Center for Theoretical Chemistry        |     
     |                    University of Bonn                     |     
      -----------------------------------------------------------      

   * xtb version 6.2.2 (9d81278992624c895f80dd42a50cac0aa55982e2) compiled by '@Darwin' on 04/03/2020

   xtb is free software: you can redistribute it and/or modify it under
   the terms of the GNU Lesser General Public License as published by
   the Free Software Foundation, either version 3 of the License, or
   (at your option) any later version.
   
   xtb is distributed in the hope that it will be useful,
   but WITHOUT ANY WARRANTY; without even the implied warranty of
   MERCHANTABILITY or FITNESS FOR A PARTICULAR PURPOSE.  See the
   GNU Lesser General Public License for more details.
   
   Cite this work as:
   * S. Grimme, C. Bannwarth, P. Shushkov, J. Chem. Theory Comput., 2017,
     13, 1989-2009. DOI: 10.1021/acs.jctc.7b00118
   * C. Bannwarth, S. Ehlert and S. Grimme., J. Chem. Theory Comput., 2019,
     15, 1652-1671. DOI: 10.1021/acs.jctc.8b01176
   * P. Pracht, E. Caldeweyher, S. Ehlert, S. Grimme, ChemRxiv, 2019, preprint.
     DOI: 10.26434/chemrxiv.8326202.v1
   
   for DFT-D4:
   * E. Caldeweyher, C. Bannwarth and S. Grimme, J. Chem. Phys., 2017,
     147, 034112. DOI: 10.1063/1.4993215
   * E. Caldeweyher, S. Ehlert, A. Hansen, H. Neugebauer, S. Spicher,
     C. Bannwarth and S. Grimme, J. Chem. Phys., 2019, 150, 154122.
     DOI: 10.1063/1.5090222
   
   for sTDA-xTB:
   * S. Grimme and C. Bannwarth, J. Chem. Phys., 2016, 145, 054103.
     DOI: 10.1063/1.4959605
   
   in the mass-spec context:
   * V. Asgeirsson, C. Bauer and S. Grimme, Chem. Sci., 2017, 8, 4879.
     DOI: 10.1039/c7sc00601b
   
   for metadynamics refer to:
   * S. Grimme, J. Chem. Theory Comput., 2019, 155, 2847-2862
     DOI: 10.1021/acs.jctc.9b00143
   
   with help from (in alphabetical order)
   C. Bannwarth, F. Bohle, G. Brandenburg, E. Caldeweyher, M. Checinski,
   S. Dohm, S. Ehlert, S. Ehrlich, F. März, H. Neugebauer, J. Pisarek,
   P. Pracht, P. Shushkov, and S. Spicher.
   
 * started run on 2020/05/12 at 11:45:19.615     

           -------------------------------------------------
          |                Calculation Setup                |
           -------------------------------------------------

          program call               : xtb --input C3O1_6_S_2.input C3O1_6_S_2.xyz --ohess --molden --namespace C3O1_6_S_2 output.out
          calculation namespace      : C3O1_6_S_2
          coordinate file            : C3O1_6_S_2.xyz
          number of atoms            :                     4
          number of electrons        :                    18
          charge                     :                     0
          spin                       :                   1.0
          first test random number   :      0.93690674377244

   ID    Z sym.   atoms
    1    8 O      1
    2    6 C      2-4

           -------------------------------------------------
          |                 G F N 2 - x T B                 |
           -------------------------------------------------

        Reference                      10.1021/acs.jctc.8b01176
      * Hamiltonian:
        H0-scaling (s, p, d)           1.850000    2.230000    2.230000
        zeta-weighting                 0.500000
      * Dispersion:
        s8                             2.700000
        a1                             0.520000
        a2                             5.000000
        s9                             5.000000
      * Repulsion:
        kExp                           1.500000    1.000000
        rExp                           1.000000
      * Coulomb:
        alpha                          2.000000
        third order                    shell-resolved
        anisotropic                    true
        a3                             3.000000
        a5                             4.000000
        cn-shift                       1.200000
        cn-exp                         4.000000
        max-rad                        5.000000


          ...................................................
          :                      SETUP                      :
          :.................................................:
          :  # basis functions                  16          :
          :  # atomic orbitals                  16          :
          :  # shells                            8          :
          :  # electrons                        18          :
          :  max. iterations                   250          :
          :  Hamiltonian                  GFN2-xTB          :
          :  restarted?                      false          :
          :  GBSA solvation                  false          :
          :  PC potential                    false          :
          :  electronic temp.          300.0000000     K    :
          :  accuracy                    1.0000000          :
          :  -> integral cutoff          0.2500000E+02      :
          :  -> integral neglect         0.1000000E-07      :
          :  -> SCF convergence          0.1000000E-05 Eh   :
          :  -> wf. convergence          0.1000000E-03 e    :
          :  Broyden damping             0.4000000          :
          ...................................................

 iter      E             dE          RMSdq      gap      omega  full diag
   1    -10.1411593 -0.101412E+02  0.843E+00    1.93       0.0  T
   2    -10.1376180  0.354130E-02  0.492E+00    1.78       1.0  T
   3    -10.0193367  0.118281E+00  0.448E+00    2.46       1.0  T
   4    -10.1347746 -0.115438E+00  0.132E+00    1.77       1.0  T
   5    -10.1431288 -0.835418E-02  0.702E-01    1.86       1.0  T
   6    -10.1440923 -0.963494E-03  0.420E-01    1.84       1.0  T
   7    -10.1441753 -0.830486E-04  0.221E-01    1.84       1.0  T
   8    -10.1443377 -0.162358E-03  0.706E-02    1.83       1.0  T
   9    -10.1443445 -0.686216E-05  0.836E-03    1.83       6.0  T
  10    -10.1443448 -0.255394E-06  0.384E-03    1.83      13.0  T
  11    -10.1443448 -0.277390E-07  0.228E-03    1.83      21.9  T
  12    -10.1443448 -0.513574E-08  0.390E-04    1.83     128.2  T
  13    -10.1443448 -0.167727E-09  0.301E-04    1.83     166.0  T

   *** convergence criteria satisfied after 13 iterations ***

         #    Occupation            Energy/Eh            Energy/eV
      -------------------------------------------------------------
         1        2.0000           -0.8030164             -21.8512
       ...           ...                  ...                  ...
         4        2.0000           -0.6379078             -17.3584
         5        2.0000           -0.6045456             -16.4505
         6        2.0000           -0.5603330             -15.2474
         7        2.0000           -0.5053004             -13.7499
         8        1.9998           -0.4635808             -12.6147
         9        1.0002           -0.4475004             -12.1771
        10        1.0000           -0.4063768             -11.0581 (HOMO)
        11                         -0.3391492              -9.2287 (LUMO)
        12                         -0.2649144              -7.2087
        13                         -0.0173259              -0.4715
        14                          0.0260041               0.7076
        15                          0.1353418               3.6828
        16                          0.1989905               5.4148
      -------------------------------------------------------------
                  HL-Gap            0.0672275 Eh            1.8294 eV
             Fermi-level           -0.4141518 Eh          -11.2696 eV

 transition dipole moment (au) for excitation:           9          10
     X       Y       Z   
  -0.0169   0.6510  -0.0001  total (au/Debye):    0.651   1.655
 dE (eV)             :    1.119
 oscillator strength :  0.16444E-01

 SCC (total)                   0 d,  0 h,  0 min,  0.005 sec
 SCC setup                      ...        0 min,  0.000 sec (  1.896%)
 Dispersion                     ...        0 min,  0.000 sec (  0.300%)
 integral evaluation            ...        0 min,  0.001 sec ( 22.963%)
 zeroth order Hamiltonian       ...        0 min,  0.000 sec (  0.422%)
 iterations                     ...        0 min,  0.002 sec ( 32.983%)
 molecular gradient             ...        0 min,  0.001 sec ( 23.019%)
 printout                       ...        0 min,  0.001 sec ( 18.123%)

         :::::::::::::::::::::::::::::::::::::::::::::::::::::
         ::                     SUMMARY                     ::
         :::::::::::::::::::::::::::::::::::::::::::::::::::::
         :: total energy             -10.080293996519 Eh    ::
         :: gradient norm              0.147128951999 Eh/a0 ::
         :: HOMO-LUMO gap              1.829353844656 eV    ::
         ::.................................................::
         :: SCC energy               -10.144344809797 Eh    ::
         :: -> isotropic ES           -0.000864059988 Eh    ::
         :: -> anisotropic ES          0.002819997967 Eh    ::
         :: -> anisotropic XC          0.000294864683 Eh    ::
         :: -> dispersion             -0.001572829523 Eh    ::
         :: repulsion energy           0.064050808450 Eh    ::
         :: add. restraining           0.000000000000 Eh    ::
         :::::::::::::::::::::::::::::::::::::::::::::::::::::

      ----------------------------------------------------------- 
     |                   =====================                   |
     |                        A N C O P T                        |
     |                   =====================                   |
     |               Approximate Normal Coordinate               |
     |                Rational Function Optimizer                |
      ----------------------------------------------------------- 

          ...................................................
          :                      SETUP                      :
          :.................................................:
          :   optimization level            normal          :
          :   max. optcycles                   200          :
          :   ANC micro-cycles                  20          :
          :   degrees of freedom                 6          :
          :.................................................:
          :   RF solver                   davidson          :
          :   write xtbopt.log                true          :
          :   linear?                        false          :
          :   energy convergence         0.5000000E-05 Eh   :
          :   grad. convergence          0.1000000E-02 Eh/α :
          :   maximium RF displ.         1.0000000          :
          :   Hlow (freq-cutoff)         0.1000000E-01      :
          :   Hmax (freq-cutoff)         5.0000000          :
          :   S6 in model hess.         20.0000000          :
          ...................................................

generating ANC from model Hessian ...
Using Lindh-Hessian (1995)
 Shifting diagonal of input Hessian by    0.0000000000000000     
 Lowest  eigenvalues of input Hessian
   -0.000000   -0.000000   -0.000000    0.000000    0.000000    0.000000
    0.093414    0.664074    0.705818    1.077491    1.337759    1.614582
 Highest eigenvalues
    0.093414    0.664074    0.705818    1.077491    1.337759    1.614582


........................................................................
.............................. CYCLE    1 ..............................
........................................................................
   1    -10.1443448 -0.101443E+02  0.119E-05    1.83       0.0  T
   2    -10.1443448  0.548184E-11  0.320E-05    1.83    1562.6  T
   3    -10.1443448 -0.614264E-11  0.792E-06    1.83    6312.6  T
     SCC iter.                  ...        0 min,  0.000 sec
     gradient                   ...        0 min,  0.001 sec
 * total energy  :   -10.0802940 Eh     change       -0.8344934E-09 Eh
   gradient norm :     0.1471297 Eh/α   predicted     0.0000000E+00 (-100.00%)
   displ. norm   :     0.2239874 α      lambda       -0.3167428E-01
   maximum displ.:     0.2108885 α      in ANC's #2, #1, #5, ...

........................................................................
.............................. CYCLE    2 ..............................
........................................................................
   1    -10.1783185 -0.101783E+02  0.189E+00    2.61       0.0  T
   2    -10.1743014  0.401712E-02  0.126E+00    2.79       1.0  T
   3    -10.1695887  0.471265E-02  0.155E+00    2.52       1.0  T
   4    -10.1802518 -0.106631E-01  0.921E-02    2.66       1.0  T
   5    -10.1802599 -0.808404E-05  0.672E-02    2.65       1.0  T
   6    -10.1802588  0.113243E-05  0.424E-02    2.65       1.2  T
   7    -10.1802629 -0.412861E-05  0.529E-03    2.66       9.5  T
   8    -10.1802629 -0.495178E-07  0.584E-04    2.66      85.7  T
   9    -10.1802629 -0.305134E-09  0.202E-04    2.66     247.4  T
     SCC iter.                  ...        0 min,  0.001 sec
     gradient                   ...        0 min,  0.001 sec
 * total energy  :   -10.1058714 Eh     change       -0.2557737E-01 Eh
   gradient norm :     0.0902152 Eh/α   predicted    -0.1663169E-01 ( -34.97%)
   displ. norm   :     0.3655481 α      lambda       -0.3119919E-01
   maximum displ.:     0.3344448 α      in ANC's #2, #1, #6, ...

........................................................................
.............................. CYCLE    3 ..............................
........................................................................
   1    -10.2141494 -0.102141E+02  0.328E+00    2.82       0.0  T
   2    -10.2110682  0.308121E-02  0.210E+00    2.63       1.0  T
   3    -10.2110681  0.121194E-06  0.184E+00    2.80       1.0  T
   4    -10.2212430 -0.101749E-01  0.182E-01    2.79       1.0  T
   5    -10.2212522 -0.919355E-05  0.114E-01    2.79       1.0  T
   6    -10.2212642 -0.119634E-04  0.884E-03    2.79       5.7  T
   7    -10.2212642 -0.564902E-07  0.639E-03    2.79       7.8  T
   8    -10.2212644 -0.158219E-06  0.338E-03    2.79      14.8  T
   9    -10.2212644 -0.174398E-07  0.245E-04    2.79     204.0  T
  10    -10.2212644 -0.486775E-10  0.936E-05    2.79     534.1  T
     SCC iter.                  ...        0 min,  0.001 sec
     gradient                   ...        0 min,  0.001 sec
 * total energy  :   -10.1173783 Eh     change       -0.1150697E-01 Eh
   gradient norm :     0.0598999 Eh/α   predicted    -0.1768410E-01 (  53.68%)
   displ. norm   :     0.0689441 α      lambda       -0.3113089E-02
   maximum displ.:     0.0615387 α      in ANC's #2, #6, #5, ...

........................................................................
.............................. CYCLE    4 ..............................
........................................................................
   1    -10.2094053 -0.102094E+02  0.517E-01    2.91       0.0  T
   2    -10.2092441  0.161219E-03  0.363E-01    2.92       1.0  T
   3    -10.2094110 -0.166909E-03  0.293E-01    2.92       1.0  T
   4    -10.2096505 -0.239535E-03  0.276E-02    2.92       1.8  T
   5    -10.2096506 -0.973348E-07  0.166E-02    2.92       3.0  T
   6    -10.2096507 -0.884358E-07  0.122E-03    2.92      41.1  T
   7    -10.2096507 -0.216982E-08  0.654E-04    2.92      76.4  T
   8    -10.2096507  0.174378E-08  0.682E-04    2.92      73.4  T
     SCC iter.                  ...        0 min,  0.001 sec
     gradient                   ...        0 min,  0.001 sec
 * total energy  :   -10.1190285 Eh     change       -0.1650133E-02 Eh
   gradient norm :     0.0159071 Eh/α   predicted    -0.1563944E-02 (  -5.22%)
   displ. norm   :     0.0406095 α      lambda       -0.3885390E-03
   maximum displ.:     0.0375955 α      in ANC's #1, #6, #5, ...

........................................................................
.............................. CYCLE    5 ..............................
........................................................................
   1    -10.2076748 -0.102077E+02  0.208E-01    3.03       0.0  T
   2    -10.2076798 -0.496645E-05  0.131E-01    3.03       1.0  T
   3    -10.2076476  0.321893E-04  0.880E-02    3.03       1.0  T
   4    -10.2076813 -0.337309E-04  0.266E-02    3.03       1.9  T
   5    -10.2076847 -0.340994E-05  0.543E-03    3.03       9.2  T
   6    -10.2076847  0.154705E-07  0.176E-03    3.03      28.4  T
   7    -10.2076847 -0.186501E-07  0.419E-04    3.03     119.3  T
   8    -10.2076847 -0.236323E-09  0.198E-04    3.03     252.4  T
     SCC iter.                  ...        0 min,  0.001 sec
     gradient                   ...        0 min,  0.001 sec
 * total energy  :   -10.1191916 Eh     change       -0.1630957E-03 Eh
   gradient norm :     0.0060208 Eh/α   predicted    -0.1945885E-03 (  19.31%)
   displ. norm   :     0.0214635 α      lambda       -0.1028832E-03
   maximum displ.:     0.0188354 α      in ANC's #1, #2, #6, ...

........................................................................
.............................. CYCLE    6 ..............................
........................................................................
   1    -10.2073133 -0.102073E+02  0.149E-01    2.92       0.0  T
   2    -10.2073169 -0.356904E-05  0.862E-02    2.92       1.0  T
   3    -10.2073145  0.239888E-05  0.341E-02    2.92       1.5  T
   4    -10.2073156 -0.109904E-05  0.176E-02    2.92       2.8  T
   5    -10.2073174 -0.185530E-05  0.435E-03    2.92      11.5  T
   6    -10.2073174 -0.207777E-07  0.364E-04    2.92     137.3  T
   7    -10.2073174 -0.107264E-09  0.300E-04    2.92     166.6  T
     SCC iter.                  ...        0 min,  0.001 sec
     gradient                   ...        0 min,  0.001 sec
 * total energy  :   -10.1192503 Eh     change       -0.5874959E-04 Eh
   gradient norm :     0.0015381 Eh/α   predicted    -0.5146614E-04 ( -12.40%)
   displ. norm   :     0.0058616 α      lambda       -0.4250938E-05
   maximum displ.:     0.0040149 α      in ANC's #2, #1, #6, ...

........................................................................
.............................. CYCLE    7 ..............................
........................................................................
   1    -10.2074298 -0.102074E+02  0.471E-02    2.89       0.0  T
   2    -10.2074306 -0.861205E-06  0.273E-02    2.89       1.8  T
   3    -10.2074304  0.178474E-06  0.123E-02    2.89       4.1  T
   4    -10.2074303  0.111704E-06  0.893E-03    2.89       5.6  T
   5    -10.2074307 -0.387038E-06  0.160E-03    2.89      31.3  T
   6    -10.2074307  0.905584E-08  0.134E-03    2.89      37.3  T
   7    -10.2074307 -0.112728E-07  0.652E-05    2.89     767.4  T
   8    -10.2074307 -0.694556E-12  0.162E-05    2.89    3092.8  T
     SCC iter.                  ...        0 min,  0.001 sec
     gradient                   ...        0 min,  0.001 sec
 * total energy  :   -10.1192524 Eh     change       -0.2109454E-05 Eh
   gradient norm :     0.0004450 Eh/α   predicted    -0.2126249E-05 (   0.80%)
   displ. norm   :     0.0019316 α      lambda       -0.5033904E-06
   maximum displ.:     0.0013221 α      in ANC's #1, #2, #6, ...

   *** GEOMETRY OPTIMIZATION CONVERGED AFTER 7 ITERATIONS ***

------------------------------------------------------------------------
 total energy gain   :        -0.0389584 Eh      -24.4468 kcal/mol
 total RMSD          :         0.2532446 a0        0.1340 Å
 total power (kW/mol):       -14.6121908 (step)-4944.4581 (real)
------------------------------------------------------------------------

 ANCopt (total)                0 d,  0 h,  0 min,  0.021 sec
 optimizer setup                ...        0 min,  0.000 sec (  0.381%)
 model hessian                  ...        0 min,  0.000 sec (  0.378%)
 ANC generation                 ...        0 min,  0.000 sec (  0.251%)
 coordinate transformation      ...        0 min,  0.000 sec (  0.090%)
 single point calculation       ...        0 min,  0.020 sec ( 95.948%)
 optimization log               ...        0 min,  0.000 sec (  0.789%)
 hessian update                 ...        0 min,  0.000 sec (  0.082%)
 rational function              ...        0 min,  0.000 sec (  0.804%)

================
 final structure:
================
4
 xtb: 6.2.2 (9d81278992624c895f80dd42a50cac0aa55982e2)
O        -1.03596435179596   -0.02683689444530    0.16493521089568
C        -0.03605197759424    0.84066222908897   -0.15772031220204
C         1.06445467542563    0.02761867352254    0.15026691765214
C         0.00756165396456   -0.84144400816621   -0.15748181634578

 Bond Distances (Angstroems)
 ---------------------------
O1-C2=1.3625         O1-C4=1.3625         C2-O1=1.3625         C2-C3=1.4025         C2-C4=1.6827         C3-C2=1.4025         
C3-C4=1.4025         C4-O1=1.3625         C4-C2=1.6827         C4-C3=1.4025         
 C  C  Rav=1.4959 sigma=0.1321  Rmin=1.4025  Rmax=1.6827     3
 O  C  Rav=1.3625 sigma=0.0000  Rmin=1.3625  Rmax=1.3625     2

 selected bond angles (degree)
 --------------------
C4-O1-C2= 76.26                C3-C2-O1= 98.90                C4-C2-O1= 51.87                C4-C2-C3= 53.14                
C4-C3-C2= 73.72                C2-C4-O1= 51.87                C3-C4-O1= 98.90                C3-C4-C2= 53.14                

 selected dihedral angles (degree)
 ---------------------------------
C3-C2-O1-C4=333.50            C4-C3-C2-O1= 26.02            C3-C4-O1-C2= 26.50            O1-C4-C2-C3=146.56            
C3-C4-C2-O1=213.44            O1-C4-C3-C2=333.98            
           -------------------------------------------------
          |                Final Singlepoint                |
           -------------------------------------------------

          ...................................................
          :                      SETUP                      :
          :.................................................:
          :  # basis functions                  16          :
          :  # atomic orbitals                  16          :
          :  # shells                            8          :
          :  # electrons                        18          :
          :  max. iterations                   250          :
          :  Hamiltonian                  GFN2-xTB          :
          :  restarted?                      false          :
          :  GBSA solvation                  false          :
          :  PC potential                    false          :
          :  electronic temp.          300.0000000     K    :
          :  accuracy                    1.0000000          :
          :  -> integral cutoff          0.2500000E+02      :
          :  -> integral neglect         0.1000000E-07      :
          :  -> SCF convergence          0.1000000E-05 Eh   :
          :  -> wf. convergence          0.1000000E-03 e    :
          :  Broyden damping             0.4000000          :
          ...................................................

 iter      E             dE          RMSdq      gap      omega  full diag
   1    -10.2074307 -0.102074E+02  0.212E-06    2.89       0.0  T
   2    -10.2074307  0.355271E-14  0.169E-06    2.89   29635.0  T
   3    -10.2074307 -0.888178E-14  0.115E-06    2.89   43386.8  T

   *** convergence criteria satisfied after 3 iterations ***

         #    Occupation            Energy/Eh            Energy/eV
      -------------------------------------------------------------
         1        2.0000           -0.8036597             -21.8687
       ...           ...                  ...                  ...
         4        2.0000           -0.6302407             -17.1497
         5        2.0000           -0.5934650             -16.1490
         6        2.0000           -0.5796223             -15.7723
         7        2.0000           -0.4859211             -13.2226
         8        2.0000           -0.4674375             -12.7196
         9        1.0000           -0.4178149             -11.3693
        10        1.0000           -0.4144732             -11.2784 (HOMO)
        11                         -0.3081447              -8.3850 (LUMO)
        12                         -0.2670935              -7.2680
        13                          0.0834653               2.2712
        14                          0.1045088               2.8438
        15                          0.1272041               3.4614
        16                          0.4184321              11.3861
      -------------------------------------------------------------
                  HL-Gap            0.1063285 Eh            2.8933 eV
             Fermi-level           -0.4019745 Eh          -10.9383 eV

 transition dipole moment (au) for excitation:           9          10
     X       Y       Z   
  -0.0120   0.4649  -0.0001  total (au/Debye):    0.465   1.182
 dE (eV)             :    0.091
 oscillator strength :  0.68151E-03

 SCC (total)                   0 d,  0 h,  0 min,  0.004 sec
 SCC setup                      ...        0 min,  0.000 sec (  1.904%)
 Dispersion                     ...        0 min,  0.000 sec (  0.257%)
 integral evaluation            ...        0 min,  0.001 sec ( 28.420%)
 zeroth order Hamiltonian       ...        0 min,  0.000 sec (  0.722%)
 iterations                     ...        0 min,  0.001 sec ( 15.376%)
 molecular gradient             ...        0 min,  0.001 sec ( 29.265%)
 printout                       ...        0 min,  0.001 sec ( 23.780%)

         :::::::::::::::::::::::::::::::::::::::::::::::::::::
         ::                     SUMMARY                     ::
         :::::::::::::::::::::::::::::::::::::::::::::::::::::
         :: total energy             -10.119252423452 Eh    ::
         :: gradient norm              0.000445048166 Eh/a0 ::
         :: HOMO-LUMO gap              2.893346792354 eV    ::
         ::.................................................::
         :: SCC energy               -10.207430715855 Eh    ::
         :: -> isotropic ES            0.002524338607 Eh    ::
         :: -> anisotropic ES          0.002674316261 Eh    ::
         :: -> anisotropic XC         -0.000695285280 Eh    ::
         :: -> dispersion             -0.001575412027 Eh    ::
         :: repulsion energy           0.088178287889 Eh    ::
         :: add. restraining           0.000000000000 Eh    ::
         :::::::::::::::::::::::::::::::::::::::::::::::::::::

           ------------------------------------------------- 
          |                Numerical Hessian                |
           ------------------------------------------------- 
step length          :   0.00500
SCC accuracy         :   0.30000
Hessian scale factor :   1.00000
frozen atoms in %    :   0.00000    0
RMS gradient         :   0.00045
estimated CPU  time      0.00 min
estimated wall time      0.00 min

writing file <hessian>.

 projected vibrational frequencies (cm-1)
eigval :       -0.00    -0.00    -0.00    -0.00     0.00     0.00
eigval :      585.18   692.18   812.38   836.62  1219.77  1421.59
           -------------------------------------------------
          |                Property Printout                |
           -------------------------------------------------

    * Orbital Energies and Occupations

         #    Occupation            Energy/Eh            Energy/eV
      -------------------------------------------------------------
         1        2.0000           -0.8036597             -21.8687
         2        2.0000           -0.7140285             -19.4297
         3        2.0000           -0.6802260             -18.5099
         4        2.0000           -0.6302407             -17.1497
         5        2.0000           -0.5934651             -16.1490
         6        2.0000           -0.5796223             -15.7723
         7        2.0000           -0.4859211             -13.2226
         8        2.0000           -0.4674375             -12.7196
         9        1.0000           -0.4178149             -11.3693
        10        1.0000           -0.4144732             -11.2784 (HOMO)
        11                         -0.3081447              -8.3850 (LUMO)
        12                         -0.2670935              -7.2680
        13                          0.0834653               2.2712
        14                          0.1045088               2.8438
Molecule has the following symmetry elements: (sigma) 
It seems to be the Cs point group
        15                          0.1272041               3.4614
        16                          0.4184321              11.3861
      -------------------------------------------------------------
                  HL-Gap            0.1063285 Eh            2.8933 eV
             Fermi-level           -0.4019745 Eh          -10.9383 eV

     #   Z        covCN         q      C6AA      α(0)
     1   8 O      1.763    -0.130    16.255     5.444
     2   6 C      2.769     0.084    26.112     8.369
     3   6 C      2.017    -0.038    32.038     9.141
     4   6 C      2.769     0.084    26.112     8.369

 Mol. C6AA /au·bohr⁶  :        394.566575
 Mol. C8AA /au·bohr⁸  :      10668.644919
 Mol. α(0) /au        :         31.323139


Wiberg/Mayer (AO) data.
largest (>0.10) Wiberg bond orders for each atom
          total WBO             WBO to atom ...
     1  O   2.227        C    4 1.026    C    2 1.026    C    3 0.175
     2  C   2.847        C    3 1.251    O    1 1.026    C    4 0.570
     3  C   2.678        C    4 1.251    C    2 1.251    O    1 0.175
     4  C   2.847        C    3 1.251    O    1 1.026    C    2 0.570

MOs/occ written to file <molden.input>


molecular dipole:
                 x           y           z       tot (Debye)
 q only:        0.173       0.004      -0.101
   full:       -0.138      -0.004      -0.214       0.649
molecular quadrupole (traceless):
                xx          xy          yy          xz          yz          zz
 q only:       -0.862      -0.042       0.750       0.088       0.002       0.113
  q+dip:       -0.678      -0.004      -0.540       0.158       0.004       1.218
   full:       -1.281      -0.014      -0.737      -0.328      -0.008       2.018

           -------------------------------------------------
          |                Geometry Summary                 |
           -------------------------------------------------

      molecular mass/u    :       52.0316126
   center of mass at/Å    :       -0.0794155      -0.0020568       0.0126440
  moments of inertia/u·Å² :        0.1828117E+02   0.3177181E+02   0.4749764E+02
rotational constants/cm⁻¹ :        0.9221308E+00   0.5305846E+00   0.3549152E+00

 * 2 selected distances

     #   Z        #   Z                                     value/Å
     1   8 O      2   6 C                                 1.3625293 (max)
     1   8 O      4   6 C                                 1.3625285 (min)

 * 1 distinct bonds (by element types)

   Z      Z             #   av. dist./Å        max./Å        min./Å
   6 C    8 O           2     1.3625289     1.3625293     1.3625285

           -------------------------------------------------
          |               Frequency Printout                |
           -------------------------------------------------
 projected vibrational frequencies (cm-1)
eigval :       -0.00    -0.00    -0.00    -0.00     0.00     0.00
eigval :      585.18   692.18   812.38   836.62  1219.77  1421.59
 reduced masses (amu)
   1: 12.17   2: 12.80   3: 13.63   4: 14.13   5: 13.22   6: 12.98   7: 12.76   8: 13.34
   9: 12.15  10: 13.01  11: 13.68  12: 12.23
 IR intensities (amu)
   1:  0.07   2:  0.11   3:  0.10   4:  0.07   5:  0.08   6:  0.03   7:  0.45   8:  0.89
   9:  1.71  10:  0.18  11:  1.71  12:  0.41
 Raman intensities (amu)
   1:  0.00   2:  0.00   3:  0.00   4:  0.00   5:  0.00   6:  0.00   7:  0.00   8:  0.00
   9:  0.00  10:  0.00  11:  0.00  12:  0.00
 output can be read by thermo (or use thermo option).
 writing <g98.out> molden fake output.
 recommended (thermochemical) frequency scaling factor: 1.0
           -------------------------------------------------
          |             Thermodynamic Functions             |
           -------------------------------------------------

cs  symmetry found (for desy threshold:  0.10E+00) used in thermo

          ...................................................
          :                      SETUP                      :
          :.................................................:
          :  # frequencies                           6      :
          :  # imaginary freq.                       0      :
          :  linear?                             false      :
          :  only rotor calc.                    false      :
          :  symmetry                               cs      :
          :  rotational number                       1      :
          :  scaling factor                  1.0000000      :
          :  rotor cutoff                   50.0000000 cm⁻¹ :
          :  imag. cutoff                  -20.0000000 cm⁻¹ :
          :.................................................:

    mode    ω/cm⁻¹     T·S(HO)/kcal·mol⁻¹    T·S(FR)/kcal·mol⁻¹   T·S(vib)
   ------------------------------------------------------------------------
   ------------------------------------------------------------------------

   temp. (K)  partition function   enthalpy   heat capacity  entropy
                                   cal/mol     cal/K/mol   cal/K/mol   J/K/mol
 298.15  VIB   1.15                  282.259      3.421      1.223
         ROT  0.127E+05              888.752      2.981     21.757
         INT  0.146E+05             1171.012      6.402     22.980
         TR   0.363E+27             1481.254      4.968     37.753
         TOT                        2652.2656    11.3702    60.7337   254.1100

   temp. (K)  partition function   enthalpy   heat capacity  entropy
                                   cal/mol     cal/K/mol   cal/K/mol   J/K/mol
 120.00  VIB   1.00                    2.239      0.142      0.021
         ROT  0.324E+04              357.707      2.981     19.044
         INT  0.324E+04              359.946      3.123     19.066
         TR   0.927E+26              596.178      4.968     33.234
         TOT                         956.1235     8.0911    52.2997   218.8221

   temp. (K)  partition function   enthalpy   heat capacity  entropy
                                   cal/mol     cal/K/mol   cal/K/mol   J/K/mol
 100.00  VIB   1.00                    0.496      0.044      0.006
         ROT  0.246E+04              298.089      2.981     18.501
         INT  0.247E+04              298.585      3.025     18.506
         TR   0.705E+26              496.815      4.968     32.329
         TOT                         795.4004     7.9934    50.8353   212.6947

   temp. (K)  partition function   enthalpy   heat capacity  entropy
                                   cal/mol     cal/K/mol   cal/K/mol   J/K/mol
  80.00  VIB   1.00                    0.054      0.007      0.001
         ROT  0.176E+04              238.471      2.981     17.836
         INT  0.176E+04              238.526      2.988     17.837
         TR   0.505E+26              397.452      4.968     31.221
         TOT                         635.9777     7.9565    49.0572   205.2554

   temp. (K)  partition function   enthalpy   heat capacity  entropy
                                   cal/mol     cal/K/mol   cal/K/mol   J/K/mol
  60.00  VIB   1.00                    0.001      0.000     -0.000
         ROT  0.115E+04              178.853      2.981     16.978
         INT  0.115E+04              178.855      2.981     16.978
         TR   0.328E+26              298.089      4.968     29.792
         TOT                         476.9439     7.9494    46.7704   195.6872

   temp. (K)  partition function   enthalpy   heat capacity  entropy
                                   cal/mol     cal/K/mol   cal/K/mol   J/K/mol
  40.00  VIB   1.00                    0.000      0.000     -0.000
         ROT   624.                  119.236      2.981     15.770
         INT   624.                  119.236      2.981     15.769
         TR   0.178E+26              198.726      4.968     27.779
         TOT                         317.9616     7.9490    43.5482   182.2058

   temp. (K)  partition function   enthalpy   heat capacity  entropy
                                   cal/mol     cal/K/mol   cal/K/mol   J/K/mol
  20.00  VIB   1.00                    0.000      0.000     -0.000
         ROT   220.                   59.618      2.981     13.703
         INT   220.                   59.618      2.981     13.703
         TR   0.631E+25               99.363      4.968     24.337
         TOT                         158.9808     7.9490    38.0400   159.1592

   temp. (K)  partition function   enthalpy   heat capacity  entropy
                                   cal/mol     cal/K/mol   cal/K/mol   J/K/mol
  10.00  VIB   1.00                    0.000      0.000     -0.000
         ROT   77.9                   29.809      2.981     11.637
         INT   77.9                   29.809      2.981     11.637
         TR   0.223E+25               49.681      4.968     20.895
         TOT                          79.4904     7.9490    32.5317   136.1127

       T/K    H(0)-H(T)+PV         H(T)/Eh          T*S/Eh         G(T)/Eh
   ------------------------------------------------------------------------
    298.15    0.422665E-02    0.169109E-01    0.288566E-01   -0.119457E-01
    120.00    0.152368E-02    0.142079E-01    0.100014E-01    0.420650E-02
    100.00    0.126755E-02    0.139518E-01    0.810111E-02    0.585065E-02
     80.00    0.101349E-02    0.136977E-01    0.625421E-02    0.744349E-02
     60.00    0.760058E-03    0.134443E-01    0.447200E-02    0.897227E-02
     40.00    0.506704E-03    0.131909E-01    0.277594E-02    0.104150E-01
     20.00    0.253352E-03    0.129376E-01    0.121241E-02    0.117252E-01
     10.00    0.126676E-03    0.128109E-01    0.518426E-03    0.122925E-01 (used)
   ------------------------------------------------------------------------

         :::::::::::::::::::::::::::::::::::::::::::::::::::::
         ::                  THERMODYNAMIC                  ::
         :::::::::::::::::::::::::::::::::::::::::::::::::::::
         :: total free energy         -10.106959963609 Eh   ::
         ::.................................................::
         :: total energy              -10.119252423477 Eh   ::
         :: zero point energy           0.012684209860 Eh   ::
         :: G(RRHO) w/o ZPVE           -0.000391749992 Eh   ::
         :: G(RRHO) contrib.            0.012292459868 Eh   ::
         :::::::::::::::::::::::::::::::::::::::::::::::::::::

optimized geometry written to: xtbopt.xyz


           -------------------------------------------------
          | TOTAL ENERGY              -10.119252423477 Eh   |
          | TOTAL ENTHALPY            -10.106441537602 Eh   |
          | TOTAL FREE ENERGY         -10.106959963609 Eh   |
          | GRADIENT NORM               0.000445060074 Eh/α |
          | HOMO-LUMO GAP               2.893346732926 eV   |
           -------------------------------------------------

------------------------------------------------------------------------
 * finished run on 2020/05/12 at 11:45:19.733     
------------------------------------------------------------------------
 total:
 * wall-time:     0 d,  0 h,  0 min,  0.117 sec
 *  cpu-time:     0 d,  0 h,  0 min,  0.117 sec
 * ratio c/w:     0.996 speedup
 SCF:
 * wall-time:     0 d,  0 h,  0 min,  0.005 sec
 *  cpu-time:     0 d,  0 h,  0 min,  0.005 sec
 * ratio c/w:     1.000 speedup
 ANC optimizer:
 * wall-time:     0 d,  0 h,  0 min,  0.026 sec
 *  cpu-time:     0 d,  0 h,  0 min,  0.026 sec
 * ratio c/w:     0.987 speedup
 numerical hessian:
 * wall-time:     0 d,  0 h,  0 min,  0.068 sec
 *  cpu-time:     0 d,  0 h,  0 min,  0.068 sec
 * ratio c/w:     0.998 speedup

