[Molden Format]
[Title]
[Atoms] AU
C      1     6 -0.83335731256345E+00  0.21517973729604E+00  0.99347855232606E-01
C      2     6  0.15909297127906E+01  0.16083896786522E+00  0.30406427237617E+00
H      3     1 -0.19873944158538E+01  0.15477247448102E+01  0.11330294263244E+01
H      4     1 -0.19282946157672E+01 -0.10510650826756E+01 -0.11150098419810E+01
H      5     1  0.31581166314005E+01 -0.87267836729254E+00 -0.42142982222619E+00
[GTO]
           1 0
 s           4   1.0000000000000000     
   51.049363095579913      -0.16312063210127389     
   8.7911227406887544      -0.19911024581000730     
  0.70640422258929825       0.31882047753655751     
  0.26922813413411617       0.12706504184240380     
 p           4   1.0000000000000000     
   5.8263656140800002       0.73716451545209605     
   1.5106896018720002       0.68216371614850257     
  0.53256483288000001       0.35783053929253711     
  0.21202323690600003        5.3983030275847881E-002

           2 0
 s           4   1.0000000000000000     
   51.049363095579913      -0.16312063210127389     
   8.7911227406887544      -0.19911024581000730     
  0.70640422258929825       0.31882047753655751     
  0.26922813413411617       0.12706504184240380     
 p           4   1.0000000000000000     
   5.8263656140800002       0.73716451545209605     
   1.5106896018720002       0.68216371614850257     
  0.53256483288000001       0.35783053929253711     
  0.21202323690600003        5.3983030275847881E-002

           3 0
 s           3   1.0000000000000000     
   3.3702276975336001       0.27359110588908298     
  0.61389118221497996       0.26460540653860526     
  0.16614291148415999        8.2465947534082318E-002

           4 0
 s           3   1.0000000000000000     
   3.3702276975336001       0.27359110588908298     
  0.61389118221497996       0.26460540653860526     
  0.16614291148415999        8.2465947534082318E-002

           5 0
 s           3   1.0000000000000000     
   3.3702276975336001       0.27359110588908298     
  0.61389118221497996       0.26460540653860526     
  0.16614291148415999        8.2465947534082318E-002

[MO]
Sym=     1a
Ene=  -0.60711385529564177     
Spin= Alpha
Occup=     2.00000000
           1  0.50516159751091194     
           2  0.14845008791944914     
           3  -6.9994965605932316E-003
           4   9.3109839753965848E-003
           5  0.44019926728260722     
           6 -0.17610521783750782     
           7  -5.4288715948012127E-003
           8  -2.2945464370695119E-002
           9  0.13890205295796898     
          10  0.14539782890257136     
          11  0.10444685927082559     
Sym=     2a
Ene=  -0.54130184329576114     
Spin= Alpha
Occup=     2.00000000
           1 -0.28503263510294663     
           2  0.30338235149878173     
           3  -3.8212481130757377E-002
           4  -1.2085123391077303E-003
           5  0.42826443798288855     
           6  0.16343752924429999     
           7  -6.7240843516283511E-002
           8  -4.0761334264626567E-002
           9 -0.25529549045091010     
          10 -0.22655390792444413     
          11  0.30735309903976654     
Sym=     3a
Ene=  -0.49349598280115359     
Spin= Alpha
Occup=     2.00000000
           1   1.9399379241777138E-002
           2 -0.19931909358332936     
           3 -0.34476386523558189     
           4 -0.31967544552319299     
           5  -7.3755275220573832E-002
           6  0.16760683568430237     
           7 -0.22879576583334121     
           8 -0.18057091167388015     
           9 -0.18666747745468454     
          10  0.42505716943441157     
          11  0.19618263369030770     
Sym=     4a
Ene=  -0.46634487818878728     
Spin= Alpha
Occup=     2.00000000
           1   2.2110614606619072E-002
           2  0.36340381269932975     
           3 -0.22815846380192692     
           4 -0.16072954630270514     
           5  -7.9380323636095429E-002
           6 -0.42333543315012062     
           7   1.4894685798261614E-002
           8  -3.2530677459007673E-002
           9 -0.40090327136742487     
          10   2.4674057881646567E-002
          11 -0.37029760705366965     
Sym=     5a
Ene=  -0.41478173830563969     
Spin= Alpha
Occup=     2.00000000
           1  -6.1377941579935486E-004
           2   5.1231935941660284E-002
           3  0.42958514095538636     
           4 -0.49514272595763409     
           5   1.1533768837059424E-003
           6   4.9464593771485980E-002
           7  0.40184682976759950     
           8 -0.46337507556383117     
           9   4.2835891486332436E-004
          10   2.8195861765028250E-004
          11   1.8962769731835892E-004
Sym=     6a
Ene=  -0.31860208192337053     
Spin= Alpha
Occup=     1.00000000
           1  -6.7816598216002416E-002
           2  -7.4166088532081606E-002
           3  -8.4950744959217589E-002
           4  -8.0320076684987918E-002
           5  0.33405829133041581     
           6  0.27283454082823821     
           7  0.60613889138528454     
           8  0.55428736071485962     
           9 -0.21848294207013788     
          10  0.34794108652799416     
          11 -0.15749560770942664     
Sym=     7a
Ene=  -0.19375382911987479     
Spin= Alpha
Occup=     0.00000000
           1   3.9284128990356220E-004
           2  -6.2585023012516783E-002
           3 -0.51660960318110472     
           4  0.59546092157836084     
           5   1.3477097346267940E-003
           6   6.5661637241115095E-002
           7  0.53719058770249717     
           8 -0.62143359829548972     
           9   3.4593338538372096E-004
          10  -5.7830433322931390E-004
          11  -1.0893169213283041E-003
Sym=     8a
Ene=   0.12445275953438005     
Spin= Alpha
Occup=     0.00000000
           1 -0.83360873228802668     
           2  0.20255803965929323     
           3 -0.20029787722862355     
           4 -0.15260686353953884     
           5  0.61160482679057526     
           6  0.12979987043944782     
           7 -0.25749898963804146     
           8 -0.20727174475621135     
           9  0.79988342357120568     
          10  0.28584632225497003     
          11 -0.70960586933311309     
Sym=     9a
Ene=   0.19580640860534343     
Spin= Alpha
Occup=     0.00000000
           1 -0.64356745645249280     
           2  0.47995809581530635     
           3  0.42130251413569214     
           4  0.41703521677911215     
           5 -0.46221825446093417     
           6 -0.34223020705945845     
           7  0.10806546021934432     
           8   5.5705593055453792E-002
           9   4.3375971086043165E-002
          10  0.96910838940801936     
          11  0.56112966841879730     
Sym=    10a
Ene=   0.34340479493848713     
Spin= Alpha
Occup=     0.00000000
           1  0.10521581459857501     
           2 -0.40623394720974704     
           3  0.71415868369867663     
           4  0.57632458705817313     
           5  0.55965691320842814     
           6  0.14016998080150939     
           7 -0.41260204814273682     
           8 -0.34124099670017011     
           9 -0.82764345397054440     
          10  0.43535455318419713     
          11 -0.59565169700739085     
Sym=    11a
Ene=   0.75403905325731979     
Spin= Alpha
Occup=     0.00000000
           1 -0.66805243679624204     
           2  -1.0396696483560710     
           3  -6.6781146568828387E-002
           4 -0.16587246473038200     
           5  0.56214840252463971     
           6  -1.1684670123033156     
           7  0.19825623703194586     
           8   4.9304717845155339E-002
           9  -9.8104208174829330E-002
          10 -0.23269863038749550     
          11  0.48070481389616648     
