$hessian                                                                        
        0.8486672413  -0.0531097971   0.0337925338  -0.6488563599   0.0276623102
       -0.0414520565  -0.1082706308   0.0909768979   0.0707156049  -0.0753333138
       -0.0596674922  -0.0568101368  -0.0162069367  -0.0058619187  -0.0062459453
       -0.0531097971   0.2947713348   0.1767986552   0.0148121021  -0.0390673230
       -0.0137697093   0.0927669326  -0.1428954823  -0.0872256646  -0.0693571087
       -0.1129508399  -0.0807409573   0.0148878711   0.0001423104   0.0049376760
        0.0337925338   0.1767986552   0.2413598364  -0.0524838531  -0.0124165109
       -0.0376352791   0.0722878211  -0.0874584422  -0.0991254531  -0.0651669924
       -0.0796866267  -0.1044818260   0.0115704906   0.0027629245  -0.0001172782
       -0.6488563599   0.0148121021  -0.0524838531   0.9349262137  -0.1464236718
       -0.0327713769  -0.0298068211   0.0056385282   0.0024789005  -0.0414189403
       -0.0106764531  -0.0146814326  -0.2148440924   0.1366494946   0.0974577621
        0.0276623102  -0.0390673230  -0.0124165109  -0.1464236718   0.1405309308
        0.0710354843   0.0166187659  -0.0021656844   0.0056455189  -0.0177696582
        0.0048533766  -0.0073035898   0.1199122539  -0.1041513000  -0.0569609026
       -0.0414520565  -0.0137697093  -0.0376352791  -0.0327713769   0.0710354843
        0.0980843730   0.0119624364   0.0045591313  -0.0015751219  -0.0209069238
       -0.0065946694   0.0033177613   0.0831679208  -0.0552302369  -0.0621917333
       -0.1082706308   0.0927669326   0.0722878211  -0.0298068211   0.0166187659
        0.0119624364   0.1361430439  -0.1049128728  -0.0784652183   0.0055104650
       -0.0071642388  -0.0065539226  -0.0035760570   0.0026914130   0.0007688834
        0.0909768979  -0.1428954823  -0.0874584422   0.0056385282  -0.0021656844
        0.0045591313  -0.1049128728   0.1535428301   0.1069583109   0.0084431252
       -0.0129086277  -0.0178795563  -0.0001456784   0.0044269643  -0.0061794437
        0.0707156049  -0.0872256646  -0.0991254531   0.0024789005   0.0056455189
       -0.0015751219  -0.0784652183   0.1069583109   0.1018897043   0.0069969215
       -0.0195361121  -0.0074612630  -0.0017262085  -0.0058420531   0.0062721337
       -0.0753333138  -0.0693571087  -0.0651669924  -0.0414189403  -0.0177696582
       -0.0209069238   0.0055104650   0.0084431252   0.0069969215   0.1102549020
        0.0771331430   0.0774732050   0.0009868871   0.0015504987   0.0016037897
       -0.0596674922  -0.1129508399  -0.0796866267  -0.0106764531   0.0048533766
       -0.0065946694  -0.0071642388  -0.0129086277  -0.0195361121   0.0771331430
        0.1212445437   0.1046669556   0.0003750410  -0.0002384527   0.0011504526
       -0.0568101368  -0.0807409573  -0.1044818260  -0.0146814326  -0.0073035898
        0.0033177613  -0.0065539226  -0.0178795563  -0.0074612630   0.0774732050
        0.1046669556   0.1089938141   0.0005722870   0.0012571478  -0.0003684863
       -0.0162069367   0.0148878711   0.0115704906  -0.2148440924   0.1199122539
        0.0831679208  -0.0035760570  -0.0001456784  -0.0017262085   0.0009868871
        0.0003750410   0.0005722870   0.2336401991  -0.1350294876  -0.0935844898
       -0.0058619187   0.0001423104   0.0027629245   0.1366494946  -0.1041513000
       -0.0552302369   0.0026914130   0.0044269643  -0.0058420531   0.0015504987
       -0.0002384527   0.0012571478  -0.1350294876   0.0998204781   0.0570522177
       -0.0062459453   0.0049376760  -0.0001172782   0.0974577621  -0.0569609026
       -0.0621917333   0.0007688834  -0.0061794437   0.0062721337   0.0016037897
        0.0011504526  -0.0003684863  -0.0935844898   0.0570522177   0.0564053641
