5
 energy: -5.556888369124 gnorm: 0.128273147389 xtb: 6.2.2 (9d81278992624c895f80dd42a50cac0aa55982e2)
C        -0.58611700000000   -0.06983500000000    0.32692500000000
C         0.90086000000000   -0.32508600000000    0.47252500000000
H        -0.76965900000000    1.01567700000000    0.18592700000000
H        -0.98094500000000   -0.63202000000000   -0.54483300000000
H         1.43586100000000    0.01126400000000   -0.44054300000000
5
 energy: -5.589346902691 gnorm: 0.127956723575 xtb: 6.2.2 (9d81278992624c895f80dd42a50cac0aa55982e2)
C        -0.50706081245981   -0.03249700474443    0.21988131174793
C         0.86252069958130   -0.30611954390080    0.44080564456156
H        -0.82092298191899    1.03128885255029    0.25095326490114
H        -1.04023160287323   -0.67886194349946   -0.50748669129609
H         1.50569469767073   -0.01381036040561   -0.40415252991453
5
 energy: -5.492682195439 gnorm: 0.966703471724 xtb: 6.2.2 (9d81278992624c895f80dd42a50cac0aa55982e2)
C        -0.27469592945294    0.03975675239505   -0.01018592361297
C         0.67871894893557   -0.23479186149664    0.33286796330051
H        -0.88614685440606    1.00899801871103    0.37899845808149
H        -1.11102986296344   -0.74427962725575   -0.39845867868398
H         1.59315369788686   -0.06968328235369   -0.30322081908505
5
 energy: -5.612330271415 gnorm: 0.105145610716 xtb: 6.2.2 (9d81278992624c895f80dd42a50cac0aa55982e2)
C        -0.38065556635234    0.06398594963110   -0.03415876481400
C         0.82585482266293   -0.27705446148994    0.38558167224242
H        -0.91454381318238    1.04637440365482    0.38963326027283
H        -1.14755616826103   -0.77030294800121   -0.41593153805961
H         1.61690072513282   -0.06300294379478   -0.32512362964164
5
 energy: -5.577272510512 gnorm: 0.179041378397 xtb: 6.2.2 (9d81278992624c895f80dd42a50cac0aa55982e2)
C        -0.49982719388250   -0.02030099814577    0.19028032616420
C         0.80141535807572   -0.28870169397247    0.41949705196592
H        -0.75736467554422    0.92298046790615    0.22855789742434
H        -0.95324379097977   -0.60560384154035   -0.44950005987569
H         1.40902030233077   -0.00837393424756   -0.38883421567876
5
 energy: -5.605950603437 gnorm: 0.079051742974 xtb: 6.2.2 (9d81278992624c895f80dd42a50cac0aa55982e2)
C        -0.44621284487659   -0.00287665232360    0.13557632572913
C         0.83215487220042   -0.28661692814080    0.40662686598557
H        -0.81254114694350    1.02624160469636    0.29241334265323
H        -1.03432803575462   -0.70745083489330   -0.47699215048437
H         1.46092715537430   -0.02929718933866   -0.35762338388356
5
 energy: -5.593586319485 gnorm: 0.195393236897 xtb: 6.2.2 (9d81278992624c895f80dd42a50cac0aa55982e2)
C        -0.36853199482964    0.07692427256847   -0.06752692522994
C         0.75531175599578   -0.26440952709060    0.38345431456320
H        -0.98412797166400    0.98821840704734    0.40220310072116
H        -1.20284045925787   -0.72606193762234   -0.36056187127468
H         1.80018866975573   -0.07467121490287   -0.35756761877974
5
 energy: -5.617987117407 gnorm: 0.105230850427 xtb: 6.2.2 (9d81278992624c895f80dd42a50cac0aa55982e2)
C        -0.39025987519461    0.04718739283449    0.00566000123864
C         0.80852504934291   -0.27529901528036    0.39753345041954
H        -0.92370474908665    0.99169620880444    0.35163894801600
H        -1.13810286946247   -0.70314995807025   -0.40483857877428
H         1.64354244440083   -0.06043462828833   -0.34999282089990
5
 energy: -5.612369390901 gnorm: 0.119701884285 xtb: 6.2.2 (9d81278992624c895f80dd42a50cac0aa55982e2)
C        -0.45654534412664    0.03188695297814    0.06024850746387
C         0.74835464844624   -0.24624810247332    0.39241157450385
H        -0.83298755511888    0.97574089263983    0.34832963501969
H        -1.02618397049610   -0.70072991990583   -0.42125931281724
H         1.56736222129538   -0.06064982323882   -0.37972940417017
5
 energy: -5.610265749190 gnorm: 0.129654550286 xtb: 6.2.2 (9d81278992624c895f80dd42a50cac0aa55982e2)
C        -0.39082047489066    0.04714239946539    0.00592394555737
C         0.84419412885211   -0.22535815065800    0.40672124320027
H        -0.87362203170119    0.97955610868580    0.36694812953435
H        -1.03689623653393   -0.69201935728558   -0.44297668623002
H         1.45714461427367   -0.10932100020762   -0.33661563206197
5
 energy: -5.624363334159 gnorm: 0.095646436588 xtb: 6.2.2 (9d81278992624c895f80dd42a50cac0aa55982e2)
C        -0.38944754285927    0.05200945336803   -0.00566280823975
C         0.83476235352300   -0.15610024654218    0.44430489631214
H        -0.96608645506014    0.97727869049185    0.42569460150978
H        -1.05828780688359   -0.67787699451397   -0.46904092900942
H         1.57905945128000   -0.19531090280374   -0.39529476057275
5
 energy: -5.627487434504 gnorm: 0.108049047094 xtb: 6.2.2 (9d81278992624c895f80dd42a50cac0aa55982e2)
C        -0.40666584190119    0.05912471581580    0.02580360370255
C         0.82839844290010   -0.07818696148409    0.47195734140559
H        -0.97165412098498    0.94988485330239    0.46096763588379
H        -0.96101131027387   -0.64933567677777   -0.52016449584067
H         1.51093283025994   -0.28148693085634   -0.43856308515125
5
 energy: -5.613737699869 gnorm: 0.178770791774 xtb: 6.2.2 (9d81278992624c895f80dd42a50cac0aa55982e2)
C        -0.43425133982427    0.10095757877423    0.10759993391527
C         0.77492924860265   -0.12402667314874    0.44046253757529
H        -0.88784804496662    0.88699010634599    0.40637508982710
H        -0.91228069821905   -0.64701650994193   -0.52246652427866
H         1.45945083440730   -0.21690450202956   -0.43197003703900
5
 energy: -5.632416481781 gnorm: 0.075745419237 xtb: 6.2.2 (9d81278992624c895f80dd42a50cac0aa55982e2)
C        -0.39534375456444    0.10173972811881    0.05564320701823
C         0.82404904305850   -0.11314101824038    0.45332514168615
H        -0.99113560298192    0.93774908235609    0.44768579901347
H        -0.92328230910440   -0.64826288508525   -0.52415825431681
H         1.48571262359228   -0.27808490714928   -0.43249489340103
5
 energy: -5.634196716464 gnorm: 0.078985186923 xtb: 6.2.2 (9d81278992624c895f80dd42a50cac0aa55982e2)
C        -0.38070962733959    0.13322070401062    0.06384957234877
C         0.84021508788526   -0.08065156310683    0.46745070151524
H        -1.03771516584856    0.91671405256542    0.47261600531846
H        -0.87780387517163   -0.62839270234029   -0.55361971102836
H         1.45601358047453   -0.34089049112893   -0.45029556815412
5
 energy: -5.635003986087 gnorm: 0.073135974729 xtb: 6.2.2 (9d81278992624c895f80dd42a50cac0aa55982e2)
C        -0.37005424284127    0.16116900499242    0.06782422628413
C         0.84675755199137   -0.08563098315533    0.46359930625972
H        -1.06662665719508    0.90391904946692    0.47707619511734
H        -0.84668122990196   -0.61742895243914   -0.55718086525199
H         1.43660457794694   -0.36202811886488   -0.45131786240920
5
 energy: -5.635446450341 gnorm: 0.066496079498 xtb: 6.2.2 (9d81278992624c895f80dd42a50cac0aa55982e2)
C        -0.36653611245915    0.17437162412578    0.06471313903086
C         0.85086468378777   -0.08339072568207    0.46209297117024
H        -1.06713217411190    0.88808738307454    0.47793106729256
H        -0.84076961436561   -0.61204976290945   -0.55730744821087
H         1.42357321714891   -0.36701851860881   -0.44742872928280
5
 energy: -5.635692808032 gnorm: 0.065681274985 xtb: 6.2.2 (9d81278992624c895f80dd42a50cac0aa55982e2)
C        -0.36576600650293    0.18295271978144    0.06124782323967
C         0.84973063267995   -0.07966398049794    0.46020752826493
H        -1.07023184728568    0.87861589320489    0.48152593746579
H        -0.83280805091696   -0.60813514317943   -0.55594054252116
H         1.41907527202561   -0.37376948930897   -0.44703974644922
5
 energy: -5.636203643032 gnorm: 0.065717203999 xtb: 6.2.2 (9d81278992624c895f80dd42a50cac0aa55982e2)
C        -0.36515920823768    0.19494460490400    0.04974278682323
C         0.84633856359539   -0.07330172724241    0.45494377480743
H        -1.07419895953380    0.86245948985037    0.48782311017178
H        -0.82825384285744   -0.60242318799399   -0.54858280251526
H         1.42127344703354   -0.38167917951797   -0.44392586928718
5
 energy: -5.636932854817 gnorm: 0.067229303654 xtb: 6.2.2 (9d81278992624c895f80dd42a50cac0aa55982e2)
C        -0.36743796875707    0.20634419947288    0.03502001481454
C         0.84131475871476   -0.06467940590790    0.44666090310434
H        -1.07771116290041    0.84812206372440    0.49711822241722
H        -0.82843109952906   -0.60014832005911   -0.53938981599383
H         1.43226547247180   -0.38963853723028   -0.43940832434226
5
 energy: -5.638423416256 gnorm: 0.069639913839 xtb: 6.2.2 (9d81278992624c895f80dd42a50cac0aa55982e2)
C        -0.37461032937925    0.21812317561973    0.01185319155109
C         0.83397909258068   -0.05076489354911    0.42912667161572
H        -1.07943086094824    0.83110801254918    0.51068829681019
H        -0.84115309293530   -0.60148970568099   -0.52356411476444
H         1.46121519068211   -0.39697658893882   -0.42810304521256
5
 energy: -5.650624539997 gnorm: 0.081375267655 xtb: 6.2.2 (9d81278992624c895f80dd42a50cac0aa55982e2)
C        -0.42120915211255    0.17616056849679    0.08051849743717
C         0.88776226071499    0.08951333648018    0.34554116808162
H        -1.12303753894611    0.83040349600456    0.56598938440660
H        -0.83889239125625   -0.57764644005453   -0.60981437872227
H         1.49537682159993   -0.51843096092702   -0.38223367120312
5
 energy: -5.658128011763 gnorm: 0.046008427653 xtb: 6.2.2 (9d81278992624c895f80dd42a50cac0aa55982e2)
C        -0.43621894728497    0.15137861311784    0.06975329270182
C         0.86197016127099    0.05303878286111    0.27974601094772
H        -1.10040183567343    0.84912050007027    0.57315877487832
H        -0.91479135211396   -0.57953085768562   -0.59112272943436
H         1.58944197380137   -0.47400703836361   -0.33153434909351
5
 energy: -5.660862834695 gnorm: 0.032478651603 xtb: 6.2.2 (9d81278992624c895f80dd42a50cac0aa55982e2)
C        -0.43437971964235    0.16172925141266    0.03562433397503
C         0.83827044409214    0.08790348554206    0.20280585247109
H        -1.08549549422022    0.80904285599439    0.60942813387510
H        -0.96098773287273   -0.56203906932779   -0.58249253913649
H         1.64259250264316   -0.49663652362134   -0.26536478118473
5
 energy: -5.662338695851 gnorm: 0.006623204806 xtb: 6.2.2 (9d81278992624c895f80dd42a50cac0aa55982e2)
C        -0.44094614704324    0.11171296677475    0.06547993102739
C         0.84126230978310    0.08131023156945    0.17539563556868
H        -1.05380888882591    0.83102835778506    0.59428111128754
H        -1.00421641310268   -0.56405966478499   -0.59668805639236
H         1.65770913918874   -0.45999189134427   -0.23846762149125
5
 energy: -5.662452406769 gnorm: 0.004016700554 xtb: 6.2.2 (9d81278992624c895f80dd42a50cac0aa55982e2)
C        -0.44156625134918    0.11471231751532    0.05778025310260
C         0.84163623298377    0.08631478744901    0.16510030262013
H        -1.05414523826640    0.82190732796653    0.59880069943583
H        -1.01397832655196   -0.55832792264608   -0.59301950523339
H         1.66805358318379   -0.46460651028479   -0.22866074992517
5
 energy: -5.662470756378 gnorm: 0.002126037168 xtb: 6.2.2 (9d81278992624c895f80dd42a50cac0aa55982e2)
C        -0.43998573074718    0.11576124819616    0.05278375135741
C         0.84174191110806    0.08535639427507    0.16275002807429
H        -1.05265983286555    0.81808225801621    0.59911540813652
H        -1.01729187375583   -0.55620706224125   -0.58982689340392
H         1.66819552626051   -0.46299283824620   -0.22482129416430
5
 energy: -5.662475337049 gnorm: 0.000431225401 xtb: 6.2.2 (9d81278992624c895f80dd42a50cac0aa55982e2)
C        -0.44099451898027    0.11386582299643    0.05257128519135
C         0.84188281894279    0.08511645157285    0.16090698580279
H        -1.05169031278856    0.81901418662959    0.59957116568395
H        -1.02040468934856   -0.55620405355944   -0.59004238570055
H         1.67120670217460   -0.46179240763944   -0.22300605097755
