 Entering Gaussian System
 *********************************************
 Gaussian 98:
 frequency output generated by the xtb code
 *********************************************
                         Standard orientation:
 --------------------------------------------------------------------
  Center     Atomic     Atomic              Coordinates (Angstroms)
  Number     Number      Type              X           Y           Z
 --------------------------------------------------------------------
    1          6             0       -0.440994    0.113868    0.052573
    2          6             0        0.841884    0.085112    0.160904
    3          1             0       -1.051684    0.819021    0.599573
    4          1             0       -1.020410   -0.556200   -0.590038
    5          1             0        1.671204   -0.461802   -0.223011
 --------------------------------------------------------------------
     1 basis functions        1 primitive gaussians
     1 alpha electrons        1 beta electrons

 Harmonic frequencies (cm**-1), IR intensities (KM/Mole),
 Raman scattering activities (A**4/amu), Raman depolarization ratios,
 reduced masses (AMU), force constants (mDyne/A) and normal coordinates:
                      1                      2                      3
                        a                      a                      a 
 Frequencies --   654.4994               736.1450               948.7904
 Red. masses --     1.7523                 4.2053                 2.4398
 Frc consts  --     0.0000                 0.0000                 0.0000
 IR Inten    --     0.2050                 0.0069                 0.2864
 Raman Activ --     0.0000                 0.0000                 0.0000
 Depolar     --     0.0000                 0.0000                 0.0000
 Atom AN      X      Y      Z        X      Y      Z        X      Y      Z
   1   6    -0.04  -0.04  -0.04    -0.03  -0.25   0.29     0.03   0.23  -0.26
   2   6    -0.09  -0.17  -0.16     0.03   0.25  -0.29     0.01   0.07  -0.08
   3   1     0.23   0.12   0.13     0.01   0.04  -0.05    -0.06  -0.46   0.54
   4   1    -0.32   0.15   0.10     0.04   0.36  -0.42    -0.03  -0.21   0.25
   5   1     0.52   0.48   0.47    -0.05  -0.41   0.48    -0.04  -0.33   0.38
                      4                      5                      6
                        a                      a                      a 
 Frequencies --   965.1156              1356.1062              1728.9931
 Red. masses --     4.9452                 1.6186                11.3278
 Frc consts  --     0.0000                 0.0000                 0.0000
 IR Inten    --     0.1933                 0.0902                 0.2536
 Raman Activ --     0.0000                 0.0000                 0.0000
 Depolar     --     0.0000                 0.0000                 0.0000
 Atom AN      X      Y      Z        X      Y      Z        X      Y      Z
   1   6    -0.04   0.34   0.29    -0.15  -0.01  -0.02    -0.70   0.01  -0.06
   2   6    -0.03  -0.29  -0.26    -0.18   0.00  -0.02     0.67   0.00   0.07
   3   1    -0.46  -0.14  -0.17     0.59   0.27   0.29    -0.04   0.08   0.07
   4   1     0.48  -0.19  -0.12     0.57  -0.28  -0.19    -0.03  -0.06  -0.05
   5   1     0.23   0.15   0.16    -0.02   0.03   0.02     0.18  -0.08  -0.05
                      7                      8                      9
                        a                      a                      a 
 Frequencies --  2832.6214              3034.6052              3190.4140
 Red. masses --     1.7438                 1.7402                 2.0199
 Frc consts  --     0.0000                 0.0000                 0.0000
 IR Inten    --     0.1558                 0.1069                 0.1868
 Raman Activ --     0.0000                 0.0000                 0.0000
 Depolar     --     0.0000                 0.0000                 0.0000
 Atom AN      X      Y      Z        X      Y      Z        X      Y      Z
   1   6    -0.11  -0.17  -0.16     0.17  -0.16  -0.12    -0.04  -0.00  -0.01
   2   6    -0.01  -0.01  -0.01     0.00  -0.01  -0.01     0.26  -0.13  -0.09
   3   1    -0.07   0.02   0.01    -0.54   0.63   0.49     0.02  -0.01  -0.01
   4   1     0.50   0.59   0.57    -0.01  -0.07  -0.06    -0.00   0.00   0.00
   5   1     0.01   0.00   0.00    -0.03   0.01   0.01    -0.76   0.47   0.33
