[Molden Format]
[Title]
[Atoms] AU
C      1     6  0.21377120057346E+01 -0.24413898559021E-01 -0.19844978800457E-01
N      2     7  0.33084778477973E+00  0.18479955814509E+01 -0.85103852587320E-01
C      3     6 -0.14023526074797E+01 -0.54717008712718E-02 -0.13364923791736E+01
C      4     6 -0.13874139887152E+01  0.12617887332999E+00  0.13517368344314E+01
C      5     6  0.32120491596126E+00 -0.19442888553374E+01  0.89706265862513E-01
[GTO]
           1 0
 s           4   1.0000000000000000     
   51.049363095579913      -0.16312063210127389     
   8.7911227406887544      -0.19911024581000730     
  0.70640422258929825       0.31882047753655751     
  0.26922813413411617       0.12706504184240380     
 p           4   1.0000000000000000     
   5.8263656140800002       0.73716451545209605     
   1.5106896018720002       0.68216371614850257     
  0.53256483288000001       0.35783053929253711     
  0.21202323690600003        5.3983030275847881E-002

           2 0
 s           4   1.0000000000000000     
   63.594024466941008      -0.19234388414721629     
   10.951417231523665      -0.23478107924953728     
  0.87999310257376984       0.37593753901700888     
  0.33538715296521110       0.14982889271862770     
 p           4   1.0000000000000000     
   7.2965040481495080       0.97658666315667420     
   1.8918745450712575       0.90372226730345739     
  0.66694432110824120       0.47404958461536373     
  0.26552202674130870        7.1516067715011844E-002

           3 0
 s           4   1.0000000000000000     
   51.049363095579913      -0.16312063210127389     
   8.7911227406887544      -0.19911024581000730     
  0.70640422258929825       0.31882047753655751     
  0.26922813413411617       0.12706504184240380     
 p           4   1.0000000000000000     
   5.8263656140800002       0.73716451545209605     
   1.5106896018720002       0.68216371614850257     
  0.53256483288000001       0.35783053929253711     
  0.21202323690600003        5.3983030275847881E-002

           4 0
 s           4   1.0000000000000000     
   51.049363095579913      -0.16312063210127389     
   8.7911227406887544      -0.19911024581000730     
  0.70640422258929825       0.31882047753655751     
  0.26922813413411617       0.12706504184240380     
 p           4   1.0000000000000000     
   5.8263656140800002       0.73716451545209605     
   1.5106896018720002       0.68216371614850257     
  0.53256483288000001       0.35783053929253711     
  0.21202323690600003        5.3983030275847881E-002

           5 0
 s           4   1.0000000000000000     
   51.049363095579913      -0.16312063210127389     
   8.7911227406887544      -0.19911024581000730     
  0.70640422258929825       0.31882047753655751     
  0.26922813413411617       0.12706504184240380     
 p           4   1.0000000000000000     
   5.8263656140800002       0.73716451545209605     
   1.5106896018720002       0.68216371614850257     
  0.53256483288000001       0.35783053929253711     
  0.21202323690600003        5.3983030275847881E-002

[MO]
Sym=     1a
Ene=  -0.77643214295566176     
Spin= Alpha
Occup=     2.00000000
           1  0.21295866165387375     
           2 -0.13192241906788665     
           3   9.9807786848656859E-003
           4   7.3881795179668943E-004
           5  0.28762305442297859     
           6  -5.9698079672148817E-002
           7 -0.22395101215161883     
           8   1.0231163129402306E-002
           9  0.26174923474299311     
          10   9.1069251777905591E-002
          11   1.7311831820481557E-002
          12  0.11526502376966299     
          13  0.26101234732787870     
          14   8.9296727220682576E-002
          15   6.0576448253742473E-003
          16 -0.11734320569579504     
          17  0.20914841580285792     
          18  -2.2051050652970791E-002
          19  0.12195924361767169     
          20  -5.7493084017095760E-003
Sym=     2a
Ene=  -0.67685270300563216     
Spin= Alpha
Occup=     2.00000000
           1  0.45737775444124651     
           2  -6.5603207641644012E-002
           3   4.4546957311836895E-002
           4  -1.3241569315495228E-003
           5   8.7938036238957795E-002
           6  0.37759614872415082     
           7  -6.9879130113240928E-002
           8  -7.4263721892585941E-004
           9 -0.27411931330829592     
          10  0.11699658349780605     
          11  -5.8529686044374370E-002
          12 -0.12802034910740362     
          13 -0.27645381448750023     
          14  0.11688433834006166     
          15  -4.6348609093431796E-002
          16  0.13073983271790474     
          17  0.11664041669737425     
          18  0.19072319556418310     
          19   4.8151160308661352E-002
          20  -4.2947691978515532E-003
Sym=     3a
Ene=  -0.65559826559277923     
Spin= Alpha
Occup=     2.00000000
           1   2.5025058674661354E-002
           2  -3.2464904644886267E-003
           3 -0.26508067614831921     
           4   1.1561215810045936E-002
           5 -0.51721848111517943     
           6   1.5618266232740277E-002
           7  -2.1113132386884285E-002
           8   3.3037624222207883E-004
           9   6.1444135630194130E-002
          10  -1.6759830442774615E-002
          11 -0.26136023468420211     
          12   2.8606012492656669E-002
          13   5.7604621115710561E-002
          14  -1.8376748133211468E-002
          15 -0.26200544101742584     
          16  -4.2120723599321898E-003
          17  0.43462878831717999     
          18  -3.4722227704975593E-002
          19   2.8304124910583931E-002
          20  -2.4448571267649249E-003
Sym=     4a
Ene=  -0.62530248297760482     
Spin= Alpha
Occup=     2.00000000
           1   8.3305287746895647E-004
           2   2.5584339492356585E-003
           3   1.0415433085254501E-002
           4  0.25788155130137325     
           5  -4.0113459416236117E-004
           6   4.1623120222049372E-003
           7   2.0456585948480654E-002
           8  0.45861534388735531     
           9 -0.37890356959430677     
          10 -0.12312330216728645     
          11  -3.5924191390709771E-002
          12  0.16751343412993452     
          13  0.37714560603105179     
          14  0.12679180785961683     
          15   4.8965784391788114E-002
          16  0.16187419827240465     
          17   2.8520032124544868E-003
          18   2.7411804413120704E-003
          19   1.1583490939474778E-002
          20  0.24124527615904823     
Sym=     5a
Ene=  -0.57676550679890071     
Spin= Alpha
Occup=     2.00000000
           1   8.9595623729729290E-002
           2   1.7991221403931629E-002
           3 -0.41955682437750097     
           4   1.8284224132736695E-002
           5  -6.0143865745779533E-002
           6 -0.41355232768779449     
           7  -2.5373910273786267E-003
           8   2.9822166480977129E-003
           9  -9.0852607300172861E-002
          10   7.4803413328672685E-002
          11  0.25995771494222619     
          12  -3.9188071763176659E-002
          13  -9.0374436247774470E-002
          14   7.4037762282473746E-002
          15  0.26311236190330728     
          16   1.2666481860390627E-002
          17  0.10759211775242242     
          18  0.38871058504202083     
          19  -6.0427050279625305E-003
          20  -3.6236431729170120E-003
Sym=     6a
Ene=  -0.52456078549128482     
Spin= Alpha
Occup=     2.00000000
           1 -0.51069020337845050     
           2 -0.29675853535763080     
           3  -2.0788552860821218E-002
           4   2.5726132033159384E-003
           5  0.28980935494121379     
           6 -0.11603521199217695     
           7  0.15285778694766591     
           8  -1.7000628326595390E-003
           9 -0.19520491794201633     
          10  0.33500149805361651     
          11  -7.6127160663714916E-002
          12  -9.1968027786781828E-002
          13 -0.19987255367432960     
          14  0.33667527780528012     
          15  -5.9734935267690449E-002
          16   9.1931125782004228E-002
          17  0.29678623087998529     
          18 -0.16547872562302260     
          19 -0.12692813135224520     
          20   3.0743957278558539E-003
Sym=     7a
Ene=  -0.50807344878431282     
Spin= Alpha
Occup=     2.00000000
           1  0.16579147662620689     
           2  0.17799674022677145     
           3  -8.2915330233041137E-002
           4   4.0327305000017293E-003
           5  0.48010518465561952     
           6   6.0252589457242683E-002
           7  0.59441277163756745     
           8  -1.6343671692433712E-002
           9   6.0452860175788256E-002
          10 -0.20604931410416333     
          11  -5.0138488607998251E-002
          12   5.4721738974607768E-002
          13   4.9683487894296337E-002
          14 -0.20231601807690699     
          15  -3.8501714296335372E-002
          16  -5.4891092633220617E-002
          17  0.38635220996933090     
          18   6.0111339655650811E-002
          19 -0.25664680843498999     
          20   2.1116983090915769E-003
Sym=     8a
Ene=  -0.50092961939328362     
Spin= Alpha
Occup=     2.00000000
           1  -1.1764066631118604E-003
           2  -5.4682958149900989E-005
           3  -5.7583730494340235E-003
           4  -8.4533963437226620E-002
           5   1.1904651139103163E-002
           6  -4.1189964625369070E-003
           7  -1.0923663501103482E-002
           8 -0.54732452163338630     
           9 -0.25396886055125989     
          10  0.10954204730967200     
          11  0.34221907391793072     
          12  0.15007852768726923     
          13  0.24780821353798868     
          14 -0.11087198060640334     
          15 -0.33007212210336739     
          16  0.17580257348575951     
          17   1.3798713146736400E-002
          18   3.3576705894065545E-003
          19   1.0185556461240529E-002
          20  0.39708038646588312     
Sym=     9a
Ene=  -0.47219209953739472     
Spin= Alpha
Occup=     1.99999580
           1  -3.1261284131160801E-003
           2   2.0458746991694559E-003
           3   2.1060321702609918E-002
           4  0.46812597566227043     
           5   6.4632705988946517E-004
           6   3.8845088029791457E-004
           7  -2.2003163017448044E-003
           8  -2.2799889318055655E-002
           9  0.35847533461266795     
          10 -0.25762768602809055     
          11  0.17015403702140805     
          12 -0.23936446853257987     
          13 -0.36591713368205830     
          14  0.25278623371792347     
          15 -0.19108366855156891     
          16 -0.23467228666358278     
          17   3.2223403697104235E-003
          18   4.6692938710194906E-003
          19   1.6711127889468630E-002
          20  0.39995755513522574     
Sym=    10a
Ene=  -0.44866664135411366     
Spin= Alpha
Occup=     1.00000420
           1  -1.5772636747179710E-002
           2  -7.2348110695779275E-002
           3  -3.2666540896688093E-002
           4   4.9364140877527895E-003
           5   1.9957508531500343E-002
           6   1.9721501213396980E-002
           7   8.4184926250056122E-002
           8  -6.7693293310508223E-003
           9  0.40886189504523857     
          10  -2.7346915594683555E-002
          11  -6.9138463399126366E-003
          12 -0.57796153913945736     
          13  0.40652455286860567     
          14  -1.6839569817411353E-002
          15   3.9383356772304409E-002
          16  0.57428093563194016     
          17  -1.8612542028640836E-002
          18   2.7462159182837960E-002
          19   6.6127037468996286E-002
          20   3.2954505015790063E-003
Sym=    11a
Ene=  -0.40580639333264551     
Spin= Alpha
Occup=     1.00000000
           1 -0.15853123449162385     
           2 -0.30056958222058200     
           3  0.18234462618519662     
           4  -5.6854882037142424E-003
           5 -0.11205241962519165     
           6  0.17873347854903310     
           7 -0.43754979340601580     
           8   1.9667653880077549E-002
           9   2.7537553622295916E-002
          10 -0.21407870556202457     
          11  0.18564986016226945     
          12  -2.4364824267786103E-002
          13   3.0526530421164006E-002
          14 -0.21757610621729895     
          15  0.19130577822942046     
          16   1.0388673308125929E-002
          17  0.36784671309589256     
          18  0.13276591170936253     
          19 -0.60509423818902253     
          20   2.4190917904918879E-002
Sym=    12a
Ene=  -0.39643733105623863     
Spin= Alpha
Occup=     1.00000000
           1 -0.29688491028476094     
           2 -0.63667518727426364     
           3 -0.18865467442048109     
           4   1.7631403628091919E-002
           5   9.6638276443613363E-002
           6  0.24347232986701225     
           7  0.18537068014608477     
           8  -1.0639829817114796E-002
           9  -3.0512149445307304E-002
          10 -0.27682965936337917     
          11  -4.5677226992191095E-002
          12   9.2862558743973450E-002
          13  -2.7949455200449808E-002
          14 -0.28430830685309544     
          15  -5.2470723082972924E-002
          16  -8.2181619986811505E-002
          17 -0.16820519276852933     
          18  0.29744432047503072     
          19  0.37661465871948979     
          20  -2.2845563513117513E-002
Sym=    13a
Ene=  -0.31497549469227298     
Spin= Alpha
Occup=     0.00000000
           1  -4.4005988734121718E-004
           2  -1.2472960821514369E-002
           3  -4.0322000978750279E-002
           4 -0.84833710792892214     
           5   6.4183229435375464E-004
           6   4.5743472504643362E-003
           7   1.0933108052438134E-002
           8  0.23974150118725465     
           9   2.9971167655077971E-002
          10 -0.42224259486240023     
          11   8.4449464881567723E-002
          12  -6.4982408507562761E-002
          13  -3.1122955062516004E-002
          14  0.41678491034610948     
          15  -9.1801807150098447E-002
          16  -6.4291049926025690E-002
          17   5.4612416411269844E-005
          18   5.2218102950463228E-003
          19   1.2746648024355657E-002
          20  0.26962911310969329     
Sym=    14a
Ene=  -0.15358502980295827     
Spin= Alpha
Occup=     0.00000000
           1   9.8426225989727435E-004
           2   4.6852191045406366E-004
           3   8.2152223909172668E-003
           4  0.19020160297176586     
           5   4.5493152296979880E-003
           6  -1.0799436499057308E-002
           7  -3.4949607206144449E-002
           8 -0.65195493218969514     
           9  -6.2830944035377548E-002
          10 -0.58891383443367795     
          11 -0.24204780367751771     
          12  0.31162528240571297     
          13   5.9616166076839019E-002
          14  0.58805329841850085     
          15  0.25980490049481625     
          16  0.28435241293867175     
          17  -2.7703904336992867E-003
          18  -1.3926296412778062E-004
          19  -1.7082004061684714E-002
          20 -0.33596525859443560     
Sym=    15a
Ene=  -0.13397735168331937     
Spin= Alpha
Occup=     0.00000000
           1   4.6021709086360840E-003
           2  -4.5796953530108315E-003
           3  -1.7340122681103215E-003
           4 -0.12107845158449103     
           5  -2.8159589491319310E-003
           6  -7.4276735663763053E-003
           7  -1.2761407568487411E-002
           8 -0.29338317865063240     
           9   3.2636248370373232E-002
          10  0.15621350011420249     
          11 -0.67107889899275786     
          12  -7.3995508328644807E-002
          13  -3.9394891201163219E-002
          14 -0.16565058396085483     
          15  0.66695402157759065     
          16 -0.13175198054450377     
          17   4.5959590900702249E-003
          18  -1.0286569788906109E-003
          19   4.0772636956103524E-002
          20  0.73435864616723201     
Sym=    16a
Ene=   -5.6607810235431877E-002
Spin= Alpha
Occup=     0.00000000
           1  -4.4476408424999503E-002
           2  -6.0292856794800934E-003
           3  0.10126776552401813     
           4  -3.0209180569910638E-003
           5 -0.58996152530624935     
           6  0.52375016532173557     
           7  0.48433567062966099     
           8  -3.0237917691749449E-002
           9  0.10456960373658956     
          10  0.16137120681694936     
          11  0.57513418203473510     
          12   7.3196791442225864E-002
          13  0.10254860825629840     
          14  0.17379509026988502     
          15  0.56750748312206412     
          16 -0.11687587571579169     
          17  0.36824660800544895     
          18 -0.28282372715555049     
          19  0.28037498962938279     
          20  -1.5991398358515055E-002
Sym=    17a
Ene=   -1.7111217440179776E-002
Spin= Alpha
Occup=     0.00000000
           1  0.45405485374716498     
           2 -0.32107660165660795     
           3   4.3707998313591671E-002
           4   1.8882432858536159E-003
           5   4.2734698271891254E-002
           6 -0.50003522598290906     
           7  -6.1658369143568884E-002
           8   1.2382487026594372E-002
           9 -0.38462066263541078     
          10 -0.38396400871950326     
          11  0.15132637627736917     
          12 -0.19619390090815308     
          13 -0.38418409394346931     
          14 -0.37871076086948369     
          15  0.15182327529535916     
          16  0.18858707890288917     
          17  0.28917973424178722     
          18 -0.72858355062631386     
          19  0.29335851053604595     
          20  -1.6005251269572696E-002
Sym=    18a
Ene=   0.11707137999426548     
Spin= Alpha
Occup=     0.00000000
           1  0.12152181074293100     
           2 -0.20098610226798860     
           3   1.0010836096981610     
           4  -4.3682767044760346E-002
           5 -0.46051539500270050     
           6 -0.58914547392852301     
           7  0.39374399047891939     
           8  -1.1176235299100255E-002
           9   2.9786441902264409E-002
          10   3.6007500980304717E-002
          11 -0.12498268367741026     
          12   2.8926507084910364E-002
          13   3.1894044345028037E-002
          14   3.7103109068777826E-002
          15 -0.13165416739313676     
          16  -2.0040045126206402E-002
          17  0.24720475790956226     
          18  0.56891579902655165     
          19  0.13396886705525798     
          20  -1.3710004602634281E-002
Sym=    19a
Ene=   0.26732079994093910     
Spin= Alpha
Occup=     0.00000000
           1  -1.2970283750379195E-003
           2   1.2898375447935755E-003
           3  -9.8087548705608403E-004
           4  -6.4415512619174442E-002
           5   3.0451169509767132E-003
           6  -1.4982406106010865E-003
           7   9.8558788803096414E-003
           8  0.26577452610404434     
           9  0.73061629727308808     
          10  0.13772301634571926     
          11   5.0357820419753820E-002
          12  0.84964329941046524     
          13 -0.73122038949382273     
          14 -0.12959785678117930     
          15   2.7570197208998126E-002
          16  0.85322731758646853     
          17  -5.2593109309742050E-004
          18   5.5679760531505218E-003
          19   1.0712253763619197E-002
          20  0.23658140875864986     
Sym=    20a
Ene=   0.39598652861480699     
Spin= Alpha
Occup=     0.00000000
           1  0.77071361189795173     
           2 -0.75575400643362844     
           3 -0.24512292832681834     
           4   2.0329575606608270E-002
           5 -0.40791408170249194     
           6 -0.10829795305516554     
           7  0.46032807681002197     
           8  -1.9846392131937743E-002
           9  0.18110449105272391     
          10  0.22231652892730860     
          11  -5.2973373560185728E-002
          12  0.11645653096878243     
          13  0.17787637445287291     
          14  0.22095358756942415     
          15  -6.1425520537492194E-002
          16 -0.11037694545768804     
          17 -0.74431258859182237     
          18 -0.28639333724725879     
          19 -0.75026265603149722     
          20   4.0173068109608689E-002
