$hessian                                                                        
        0.4853082645   0.0238965931  -0.0074219310  -0.1487780740   0.1445664896
       -0.0043676774  -0.0808663299   0.0008497777  -0.0086810894  -0.0816831203
        0.0010081880   0.0095700720  -0.1739807403  -0.1703210485   0.0109006258
        0.0238965931   0.3316633078  -0.0153392317   0.1295040011  -0.1829103313
        0.0065265246  -0.0056322592   0.0260115039   0.0128972941  -0.0040957575
        0.0224030194  -0.0161752600  -0.1436725775  -0.1971674997   0.0120906730
       -0.0074219310  -0.0153392317  -0.0082797485  -0.0039895341   0.0072206731
        0.0104200409   0.0022607660  -0.0037083655  -0.0051285461   0.0008096017
        0.0011216940  -0.0031653237   0.0083410974   0.0107052302   0.0061535775
       -0.1487780740   0.1295040011  -0.0039895341   0.2688786596  -0.0188569174
       -0.0026093284  -0.0704472491  -0.0655607594  -0.0622391257  -0.0694483982
       -0.0618003309   0.0689906051   0.0197950617   0.0167140066  -0.0001526170
        0.1445664896  -0.1829103313   0.0072206731  -0.0188569174   0.5095930311
       -0.0215095487  -0.0522993061  -0.0992758255  -0.0474533948  -0.0484170340
       -0.0940118765   0.0548707976  -0.0249932321  -0.1333949979   0.0068714729
       -0.0043676774   0.0065265246   0.0104200409  -0.0026093284  -0.0215095487
        0.0309256019  -0.0424209665  -0.0015459396  -0.0262950407   0.0481661526
        0.0088453447  -0.0337554492   0.0012318197   0.0076836190   0.0187048471
       -0.0808663299  -0.0056322592   0.0022607660  -0.0704472491  -0.0522993061
       -0.0424209665   0.1415674444   0.0223724047   0.1084614030   0.0576167461
       -0.0120876785  -0.0440276797  -0.0478706115   0.0476468391  -0.0242735229
        0.0008497777   0.0260115039  -0.0037083655  -0.0655607594  -0.0992758255
       -0.0015459396   0.0223724047   0.0737179079   0.0241433394  -0.0088041860
        0.0825708319  -0.0097813260   0.0511427630  -0.0830244182  -0.0091077082
       -0.0086810894   0.0128972941  -0.0051285461  -0.0622391257  -0.0474533948
       -0.0262950407   0.1084614030   0.0241433394   0.4136555972   0.0393325817
       -0.0337527525  -0.3683157680  -0.0768737697   0.0441655139  -0.0139162424
       -0.0816831203  -0.0040957575   0.0008096017  -0.0694483982  -0.0484170340
        0.0481661526   0.0576167461  -0.0088041860   0.0393325817   0.1402199419
        0.0148821516  -0.1063634245  -0.0467051696   0.0464348259   0.0180550885
        0.0010081880   0.0224030194   0.0011216940  -0.0618003309  -0.0940118765
        0.0088453447  -0.0120876785   0.0825708319  -0.0337527525   0.0148821516
        0.0717098133   0.0079500668   0.0579976698  -0.0826717881   0.0158356470
        0.0095700720  -0.0161752600  -0.0031653237   0.0689906051   0.0548707976
       -0.0337554492  -0.0440276797  -0.0097813260  -0.3683157680  -0.1063634245
        0.0079500668   0.4174649033   0.0718304271  -0.0368642783  -0.0122283624
       -0.1739807403  -0.1436725775   0.0083410974   0.0197950617  -0.0249932321
        0.0012318197  -0.0478706115   0.0511427630  -0.0768737697  -0.0467051696
        0.0579976698   0.0718304271   0.2487614597   0.0595253769  -0.0045295745
       -0.1703210485  -0.1971674997   0.0107052302   0.0167140066  -0.1333949979
        0.0076836190   0.0476468391  -0.0830244182   0.0441655139   0.0464348259
       -0.0826717881  -0.0368642783   0.0595253769   0.4962587040  -0.0256900847
        0.0109006258   0.0120906730   0.0061535775  -0.0001526170   0.0068714729
        0.0187048471  -0.0242735229  -0.0091077082  -0.0139162424   0.0180550885
        0.0158356470  -0.0122283624  -0.0045295745  -0.0256900847   0.0012861803
