      -----------------------------------------------------------      
     |                   =====================                   |     
     |                           x T B                           |     
     |                   =====================                   |     
     |                         S. Grimme                         |     
     |          Mulliken Center for Theoretical Chemistry        |     
     |                    University of Bonn                     |     
      -----------------------------------------------------------      

   * xtb version 6.2.2 (9d81278992624c895f80dd42a50cac0aa55982e2) compiled by '@Darwin' on 04/03/2020

   xtb is free software: you can redistribute it and/or modify it under
   the terms of the GNU Lesser General Public License as published by
   the Free Software Foundation, either version 3 of the License, or
   (at your option) any later version.
   
   xtb is distributed in the hope that it will be useful,
   but WITHOUT ANY WARRANTY; without even the implied warranty of
   MERCHANTABILITY or FITNESS FOR A PARTICULAR PURPOSE.  See the
   GNU Lesser General Public License for more details.
   
   Cite this work as:
   * S. Grimme, C. Bannwarth, P. Shushkov, J. Chem. Theory Comput., 2017,
     13, 1989-2009. DOI: 10.1021/acs.jctc.7b00118
   * C. Bannwarth, S. Ehlert and S. Grimme., J. Chem. Theory Comput., 2019,
     15, 1652-1671. DOI: 10.1021/acs.jctc.8b01176
   * P. Pracht, E. Caldeweyher, S. Ehlert, S. Grimme, ChemRxiv, 2019, preprint.
     DOI: 10.26434/chemrxiv.8326202.v1
   
   for DFT-D4:
   * E. Caldeweyher, C. Bannwarth and S. Grimme, J. Chem. Phys., 2017,
     147, 034112. DOI: 10.1063/1.4993215
   * E. Caldeweyher, S. Ehlert, A. Hansen, H. Neugebauer, S. Spicher,
     C. Bannwarth and S. Grimme, J. Chem. Phys., 2019, 150, 154122.
     DOI: 10.1063/1.5090222
   
   for sTDA-xTB:
   * S. Grimme and C. Bannwarth, J. Chem. Phys., 2016, 145, 054103.
     DOI: 10.1063/1.4959605
   
   in the mass-spec context:
   * V. Asgeirsson, C. Bauer and S. Grimme, Chem. Sci., 2017, 8, 4879.
     DOI: 10.1039/c7sc00601b
   
   for metadynamics refer to:
   * S. Grimme, J. Chem. Theory Comput., 2019, 155, 2847-2862
     DOI: 10.1021/acs.jctc.9b00143
   
   with help from (in alphabetical order)
   C. Bannwarth, F. Bohle, G. Brandenburg, E. Caldeweyher, M. Checinski,
   S. Dohm, S. Ehlert, S. Ehrlich, F. März, H. Neugebauer, J. Pisarek,
   P. Pracht, P. Shushkov, and S. Spicher.
   
 * started run on 2020/05/12 at 11:44:28.840     

           -------------------------------------------------
          |                Calculation Setup                |
           -------------------------------------------------

          program call               : xtb --input H1C1_0_S_1.input H1C1_0_S_1.xyz --ohess --molden --namespace H1C1_0_S_1 output.out
          calculation namespace      : H1C1_0_S_1
          coordinate file            : H1C1_0_S_1.xyz
          number of atoms            :                     2
          number of electrons        :                     5
          charge                     :                     0
          spin                       :                   0.5
          first test random number   :      0.29666160243707

   ID    Z sym.   atoms
    1    6 C      1
    2    1 H      2

           -------------------------------------------------
          |                 G F N 2 - x T B                 |
           -------------------------------------------------

        Reference                      10.1021/acs.jctc.8b01176
      * Hamiltonian:
        H0-scaling (s, p, d)           1.850000    2.230000    2.230000
        zeta-weighting                 0.500000
      * Dispersion:
        s8                             2.700000
        a1                             0.520000
        a2                             5.000000
        s9                             5.000000
      * Repulsion:
        kExp                           1.500000    1.000000
        rExp                           1.000000
      * Coulomb:
        alpha                          2.000000
        third order                    shell-resolved
        anisotropic                    true
        a3                             3.000000
        a5                             4.000000
        cn-shift                       1.200000
        cn-exp                         4.000000
        max-rad                        5.000000


          ...................................................
          :                      SETUP                      :
          :.................................................:
          :  # basis functions                   5          :
          :  # atomic orbitals                   5          :
          :  # shells                            3          :
          :  # electrons                         5          :
          :  max. iterations                   250          :
          :  Hamiltonian                  GFN2-xTB          :
          :  restarted?                      false          :
          :  GBSA solvation                  false          :
          :  PC potential                    false          :
          :  electronic temp.          300.0000000     K    :
          :  accuracy                    1.0000000          :
          :  -> integral cutoff          0.2500000E+02      :
          :  -> integral neglect         0.1000000E-07      :
          :  -> SCF convergence          0.1000000E-05 Eh   :
          :  -> wf. convergence          0.1000000E-03 e    :
          :  Broyden damping             0.4000000          :
          ...................................................

 iter      E             dE          RMSdq      gap      omega  full diag
   1     -2.3844591 -0.238446E+01  0.134E+01    0.00       0.0  T
   2     -2.3912834 -0.682429E-02  0.817E+00    0.00       1.0  T
   3     -2.3940833 -0.279987E-02  0.157E+00    0.00       1.0  T
   4     -2.3927160  0.136726E-02  0.200E+00    0.00       1.0  T
   5     -2.3940061 -0.129010E-02  0.149E+00    0.00       1.0  T
   6     -2.3952812 -0.127504E-02  0.677E-02    0.00       1.0  T
   7     -2.3952827 -0.155516E-05  0.219E-02    0.00       3.2  T
   8     -2.3952831 -0.363566E-06  0.200E-03    0.00      35.3  T
   9     -2.3952831 -0.169955E-08  0.164E-04    0.00     430.2  T
  10     -2.3952831 -0.798250E-11  0.152E-05    0.00    4640.5  T

   *** convergence criteria satisfied after 10 iterations ***

         #    Occupation            Energy/Eh            Energy/eV
      -------------------------------------------------------------
         1        2.0000           -0.6318609             -17.1938
         2        2.0000           -0.4644051             -12.6371
         3        0.5000           -0.3954102             -10.7597 (HOMO)
         4        0.5000           -0.3954102             -10.7597 (LUMO)
         5                          0.1143994               3.1130
      -------------------------------------------------------------
                  HL-Gap            0.0000000 Eh            0.0000 eV
             Fermi-level           -0.4126589 Eh          -11.2290 eV

 SCC (total)                   0 d,  0 h,  0 min,  0.001 sec
 SCC setup                      ...        0 min,  0.000 sec (  9.583%)
 Dispersion                     ...        0 min,  0.000 sec (  0.822%)
 integral evaluation            ...        0 min,  0.000 sec ( 14.885%)
 zeroth order Hamiltonian       ...        0 min,  0.000 sec (  1.077%)
 iterations                     ...        0 min,  0.000 sec ( 57.896%)
 molecular gradient             ...        0 min,  0.000 sec (  9.640%)
 printout                       ...        0 min,  0.000 sec (  5.103%)

         :::::::::::::::::::::::::::::::::::::::::::::::::::::
         ::                     SUMMARY                     ::
         :::::::::::::::::::::::::::::::::::::::::::::::::::::
         :: total energy              -2.380909137160 Eh    ::
         :: gradient norm              0.003028433531 Eh/a0 ::
         :: HOMO-LUMO gap              0.000000000000 eV    ::
         ::.................................................::
         :: SCC energy                -2.395283084178 Eh    ::
         :: -> isotropic ES           -0.017906158072 Eh    ::
         :: -> anisotropic ES         -0.001745305372 Eh    ::
         :: -> anisotropic XC          0.006071282766 Eh    ::
         :: -> dispersion             -0.000105352237 Eh    ::
         :: repulsion energy           0.014373947153 Eh    ::
         :: add. restraining           0.000000000000 Eh    ::
         :::::::::::::::::::::::::::::::::::::::::::::::::::::

      ----------------------------------------------------------- 
     |                   =====================                   |
     |                        A N C O P T                        |
     |                   =====================                   |
     |               Approximate Normal Coordinate               |
     |                Rational Function Optimizer                |
      ----------------------------------------------------------- 

          ...................................................
          :                      SETUP                      :
          :.................................................:
          :   optimization level            normal          :
          :   max. optcycles                   200          :
          :   ANC micro-cycles                  20          :
          :   degrees of freedom                 1          :
          :.................................................:
          :   RF solver                   davidson          :
          :   write xtbopt.log                true          :
          :   linear (good luck)              true          :
          :   energy convergence         0.5000000E-05 Eh   :
          :   grad. convergence          0.1000000E-02 Eh/α :
          :   maximium RF displ.         1.0000000          :
          :   Hlow (freq-cutoff)         0.1000000E-01      :
          :   Hmax (freq-cutoff)         5.0000000          :
          :   S6 in model hess.         20.0000000          :
          ...................................................

generating ANC from model Hessian ...
Using Lindh-Hessian (1995)
 Shifting diagonal of input Hessian by    9.9909531757555927E-003
 Lowest  eigenvalues of input Hessian
   -0.000000    0.000000    0.000000    0.010000    0.010000    0.814745
 Highest eigenvalues
   -0.000000    0.000000    0.000000    0.010000    0.010000    0.814745


........................................................................
.............................. CYCLE    1 ..............................
........................................................................
   1     -2.3952831 -0.239528E+01  0.730E-07    0.00       0.0  T
   2     -2.3952831 -0.888178E-15  0.473E-07    0.00  100000.0  T
   3     -2.3952831  0.799361E-14  0.284E-08    0.00  100000.0  T
     SCC iter.                  ...        0 min,  0.000 sec
     gradient                   ...        0 min,  0.000 sec
 * total energy  :    -2.3809091 Eh     change        0.1355360E-09 Eh
   gradient norm :     0.0030285 Eh/α   predicted     0.0000000E+00 (-100.00%)
   displ. norm   :     0.0037171 α      lambda       -0.1125835E-04
   maximum displ.:     0.0037171 α      in ANC's #1, #1, #1, ...

........................................................................
.............................. CYCLE    2 ..............................
........................................................................
   1     -2.3949847 -0.239498E+01  0.231E-02    0.00       0.0  T
   2     -2.3949849 -0.177404E-06  0.134E-02    0.00       5.3  T
   3     -2.3949849 -0.261833E-07  0.601E-03    0.00      11.8  T
   4     -2.3949849 -0.429962E-08  0.906E-04    0.00      78.0  T
   5     -2.3949849 -0.279452E-10  0.151E-06    0.00   46933.5  T
     SCC iter.                  ...        0 min,  0.000 sec
     gradient                   ...        0 min,  0.000 sec
 * total energy  :    -2.3809166 Eh     change       -0.7459725E-05 Eh
   gradient norm :     0.0009912 Eh/α   predicted    -0.5628798E-05 ( -24.54%)
   displ. norm   :     0.0027126 α      lambda       -0.1793714E-05
   maximum displ.:     0.0027126 α      in ANC's #1, #1, #1, ...

........................................................................
.............................. CYCLE    3 ..............................
........................................................................
   1     -2.3947665 -0.239477E+01  0.169E-02    0.00       0.0  T
   2     -2.3947666 -0.949430E-07  0.979E-03    0.00       7.2  T
   3     -2.3947666 -0.138462E-07  0.440E-03    0.00      16.1  T
   4     -2.3947666 -0.229285E-08  0.664E-04    0.00     106.5  T
   5     -2.3947666 -0.149494E-10  0.743E-07    0.00   95130.2  T
     SCC iter.                  ...        0 min,  0.000 sec
     gradient                   ...        0 min,  0.000 sec
 * total energy  :    -2.3809173 Eh     change       -0.6985895E-06 Eh
   gradient norm :     0.0004730 Eh/α   predicted    -0.8962256E-06 (  28.29%)
   displ. norm   :     0.0008762 α      lambda       -0.2735135E-06
   maximum displ.:     0.0008762 α      in ANC's #1, #1, #1, ...

   *** GEOMETRY OPTIMIZATION CONVERGED AFTER 3 ITERATIONS ***

------------------------------------------------------------------------
 total energy gain   :        -0.0000082 Eh       -0.0051 kcal/mol
 total RMSD          :         0.0045465 a0        0.0024 Å
 total power (kW/mol):        -0.0071398 (step)  -16.3641 (real)
------------------------------------------------------------------------

 ANCopt (total)                0 d,  0 h,  0 min,  0.001 sec
 optimizer setup                ...        0 min,  0.000 sec (  5.164%)
 model hessian                  ...        0 min,  0.000 sec (  1.522%)
 ANC generation                 ...        0 min,  0.000 sec (  2.138%)
 coordinate transformation      ...        0 min,  0.000 sec (  0.525%)
 single point calculation       ...        0 min,  0.001 sec ( 70.828%)
 optimization log               ...        0 min,  0.000 sec (  4.077%)
 hessian update                 ...        0 min,  0.000 sec (  0.689%)
 rational function              ...        0 min,  0.000 sec (  6.142%)

================
 final structure:
================
2
 xtb: 6.2.2 (9d81278992624c895f80dd42a50cac0aa55982e2)
C         0.55710589519544   -0.00000000000000    0.00000000000000
H        -0.55710589519544    0.00000000000000    0.00000000000000

 Bond Distances (Angstroems)
 ---------------------------
C1-H2=1.1142         H2-C1=1.1142         
 C  H  Rav=1.1142 sigma=0.0000  Rmin=1.1142  Rmax=1.1142     1

 selected bond angles (degree)
 --------------------


 selected dihedral angles (degree)
 ---------------------------------

           -------------------------------------------------
          |                Final Singlepoint                |
           -------------------------------------------------

          ...................................................
          :                      SETUP                      :
          :.................................................:
          :  # basis functions                   5          :
          :  # atomic orbitals                   5          :
          :  # shells                            3          :
          :  # electrons                         5          :
          :  max. iterations                   250          :
          :  Hamiltonian                  GFN2-xTB          :
          :  restarted?                      false          :
          :  GBSA solvation                  false          :
          :  PC potential                    false          :
          :  electronic temp.          300.0000000     K    :
          :  accuracy                    1.0000000          :
          :  -> integral cutoff          0.2500000E+02      :
          :  -> integral neglect         0.1000000E-07      :
          :  -> SCF convergence          0.1000000E-05 Eh   :
          :  -> wf. convergence          0.1000000E-03 e    :
          :  Broyden damping             0.4000000          :
          ...................................................

 iter      E             dE          RMSdq      gap      omega  full diag
   1     -2.3947666 -0.239477E+01  0.143E-07    0.00       0.0  T
   2     -2.3947666  0.621725E-14  0.922E-08    0.00  100000.0  T
   3     -2.3947666 -0.444089E-15  0.752E-09    0.00  100000.0  T

   *** convergence criteria satisfied after 3 iterations ***

         #    Occupation            Energy/Eh            Energy/eV
      -------------------------------------------------------------
         1        2.0000           -0.6319055             -17.1950
         2        2.0000           -0.4646421             -12.6436
         3        0.5000           -0.3955756             -10.7642 (HOMO)
         4        0.5000           -0.3955756             -10.7642 (LUMO)
         5                          0.1072591               2.9187
      -------------------------------------------------------------
                  HL-Gap            0.0000000 Eh            0.0000 eV
             Fermi-level           -0.4128422 Eh          -11.2340 eV

 SCC (total)                   0 d,  0 h,  0 min,  0.000 sec
 SCC setup                      ...        0 min,  0.000 sec ( 10.238%)
 Dispersion                     ...        0 min,  0.000 sec (  0.793%)
 integral evaluation            ...        0 min,  0.000 sec ( 30.383%)
 zeroth order Hamiltonian       ...        0 min,  0.000 sec (  0.793%)
 iterations                     ...        0 min,  0.000 sec ( 34.346%)
 molecular gradient             ...        0 min,  0.000 sec ( 13.474%)
 printout                       ...        0 min,  0.000 sec (  7.794%)

         :::::::::::::::::::::::::::::::::::::::::::::::::::::
         ::                     SUMMARY                     ::
         :::::::::::::::::::::::::::::::::::::::::::::::::::::
         :: total energy              -2.380917295333 Eh    ::
         :: gradient norm              0.000472954018 Eh/a0 ::
         :: HOMO-LUMO gap              0.000000000000 eV    ::
         ::.................................................::
         :: SCC energy                -2.394766573476 Eh    ::
         :: -> isotropic ES           -0.018054479742 Eh    ::
         :: -> anisotropic ES         -0.001747642595 Eh    ::
         :: -> anisotropic XC          0.006091658532 Eh    ::
         :: -> dispersion             -0.000105357254 Eh    ::
         :: repulsion energy           0.013849278142 Eh    ::
         :: add. restraining           0.000000000000 Eh    ::
         :::::::::::::::::::::::::::::::::::::::::::::::::::::

           ------------------------------------------------- 
          |                Numerical Hessian                |
           ------------------------------------------------- 
step length          :   0.00500
SCC accuracy         :   0.30000
Hessian scale factor :   1.00000
frozen atoms in %    :   0.00000    0
RMS gradient         :   0.00047

writing file <hessian>.

 vibrational frequencies (cm-1)
eigval :        0.00     0.00     0.00     0.00     0.00  2760.42
           -------------------------------------------------
          |                Property Printout                |
           -------------------------------------------------

    * Orbital Energies and Occupations

         #    Occupation            Energy/Eh            Energy/eV
      -------------------------------------------------------------
         1        2.0000           -0.6319055             -17.1950
         2        2.0000           -0.4646421             -12.6436
         3        0.5000           -0.3955756             -10.7642 (HOMO)
         4        0.5000           -0.3955756             -10.7642 (LUMO)
         5                          0.1072591               2.9187
      -------------------------------------------------------------
                  HL-Gap            0.0000000 Eh            0.0000 eV
             Fermi-level           -0.4128422 Eh          -11.2340 eV

     #   Z        covCN         q      C6AA      α(0)
     1   6 C      0.921    -0.130    39.671    10.546
     2   1 H      0.921     0.130     1.535     1.938

 Mol. C6AA /au·bohr⁶  :         56.797390
 Mol. C8AA /au·bohr⁸  :       1457.433963
 Mol. α(0) /au        :         12.483997

Molecule has the following symmetry elements: (Cinf) (sigma) 
It seems to be the Cinfv point group

Wiberg/Mayer (AO) data.
largest (>0.10) Wiberg bond orders for each atom
          total WBO             WBO to atom ...
     1  C   0.983        H    2 0.983
     2  H   0.983        C    1 0.983

MOs/occ written to file <molden.input>


molecular dipole:
                 x           y           z       tot (Debye)
 q only:       -0.274       0.000       0.000
   full:       -0.648       0.000       0.000       1.647
molecular quadrupole (traceless):
                xx          xy          yy          xz          yz          zz
 q only:        0.000      -0.000      -0.000      -0.000       0.000      -0.000
  q+dip:       -0.158       0.000       0.079       0.000      -0.000       0.079
   full:       -1.323       0.000       0.661       0.000       0.000       0.661

           -------------------------------------------------
          |                Geometry Summary                 |
           -------------------------------------------------

      molecular mass/u    :       13.0186766
   center of mass at/Å    :        0.4708406      -0.0000025      -0.0000016
  moments of inertia/u·Å² :        0.8732175E-17   0.1154445E+01   0.1154445E+01
rotational constants/cm⁻¹ :        0.1930519E+19   0.1460237E+02   0.1460237E+02

           -------------------------------------------------
          |               Frequency Printout                |
           -------------------------------------------------
 vibrational frequencies (cm-1)
eigval :        0.00     0.00     0.00     0.00     0.00  2760.42
 reduced masses (amu)
   1: 11.16   2: 11.16   3: 11.16   4:  1.86   5:  1.86   6:  1.86
 IR intensities (amu)
   1:  0.11   2:  0.20   3:  0.21   4:  0.38   5:  0.38   6:  0.15
 Raman intensities (amu)
   1:  0.00   2:  0.00   3:  0.00   4:  0.00   5:  0.00   6:  0.00
 output can be read by thermo (or use thermo option).
 writing <g98.out> molden fake output.
 recommended (thermochemical) frequency scaling factor: 1.0
           -------------------------------------------------
          |             Thermodynamic Functions             |
           -------------------------------------------------

cin symmetry found (for desy threshold:  0.10E+00) used in thermo

          ...................................................
          :                      SETUP                      :
          :.................................................:
          :  # frequencies                           1      :
          :  # imaginary freq.                       0      :
          :  linear?                              true      :
          :  only rotor calc.                    false      :
          :  symmetry                              cin      :
          :  rotational number                       1      :
          :  scaling factor                  1.0000000      :
          :  rotor cutoff                   50.0000000 cm⁻¹ :
          :  imag. cutoff                  -20.0000000 cm⁻¹ :
          :.................................................:

    mode    ω/cm⁻¹     T·S(HO)/kcal·mol⁻¹    T·S(FR)/kcal·mol⁻¹   T·S(vib)
   ------------------------------------------------------------------------
   ------------------------------------------------------------------------

   temp. (K)  partition function   enthalpy   heat capacity  entropy
                                   cal/mol     cal/K/mol   cal/K/mol   J/K/mol
 298.15  VIB   1.00                    0.013      0.001      0.000
         ROT   14.2                  592.502      1.987      7.259
         INT   14.2                  592.515      1.988      7.259
         TR   0.454E+26             1481.254      4.968     33.626
         TOT                        2073.7684     6.9560    40.8843   171.0600

   temp. (K)  partition function   enthalpy   heat capacity  entropy
                                   cal/mol     cal/K/mol   cal/K/mol   J/K/mol
 120.00  VIB   1.00                    0.000      0.000     -0.000
         ROT   5.71                  238.471      1.987      5.450
         INT   5.71                  238.471      1.987      5.450
         TR   0.116E+26              596.178      4.968     29.106
         TOT                         834.6492     6.9554    34.5563   144.5836

   temp. (K)  partition function   enthalpy   heat capacity  entropy
                                   cal/mol     cal/K/mol   cal/K/mol   J/K/mol
 100.00  VIB   1.00                    0.000      0.000     -0.000
         ROT   4.76                  198.726      1.987      5.088
         INT   4.76                  198.726      1.987      5.088
         TR   0.883E+25              496.815      4.968     28.201
         TOT                         695.5410     6.9554    33.2886   139.2797

   temp. (K)  partition function   enthalpy   heat capacity  entropy
                                   cal/mol     cal/K/mol   cal/K/mol   J/K/mol
  80.00  VIB   1.00                    0.000      0.000     -0.000
         ROT   3.81                  158.981      1.987      4.644
         INT   3.81                  158.981      1.987      4.644
         TR   0.632E+25              397.452      4.968     27.093
         TOT                         556.4328     6.9554    31.7371   132.7881

   temp. (K)  partition function   enthalpy   heat capacity  entropy
                                   cal/mol     cal/K/mol   cal/K/mol   J/K/mol
  60.00  VIB   1.00                    0.000      0.000     -0.000
         ROT   2.86                  119.236      1.987      4.073
         INT   2.86                  119.236      1.987      4.073
         TR   0.410E+25              298.089      4.968     25.664
         TOT                         417.3246     6.9554    29.7369   124.4191

   temp. (K)  partition function   enthalpy   heat capacity  entropy
                                   cal/mol     cal/K/mol   cal/K/mol   J/K/mol
  40.00  VIB   1.00                    0.000      0.000     -0.000
         ROT   1.90                   79.490      1.987      3.267
         INT   1.90                   79.490      1.987      3.267
         TR   0.223E+25              198.726      4.968     23.651
         TOT                         278.2164     6.9554    26.9177   112.6236

   temp. (K)  partition function   enthalpy   heat capacity  entropy
                                   cal/mol     cal/K/mol   cal/K/mol   J/K/mol
  20.00  VIB   1.00                    0.000      0.000     -0.000
         ROT  0.952                   39.745      1.987      1.889
         INT  0.952                   39.745      1.987      1.889
         TR   0.790E+24               99.363      4.968     20.209
         TOT                         139.1082     6.9554    22.0982    92.4591

   temp. (K)  partition function   enthalpy   heat capacity  entropy
                                   cal/mol     cal/K/mol   cal/K/mol   J/K/mol
  10.00  VIB   1.00                    0.000      0.000     -0.000
         ROT  0.476                   19.873      1.987      0.512
         INT  0.476                   19.873      1.987      0.512
         TR   0.279E+24               49.681      4.968     16.767
         TOT                          69.5541     6.9554    17.2788    72.2945

       T/K    H(0)-H(T)+PV         H(T)/Eh          T*S/Eh         G(T)/Eh
   ------------------------------------------------------------------------
    298.15    0.330476E-02    0.959346E-02    0.194255E-01   -0.983200E-02
    120.00    0.133010E-02    0.761879E-02    0.660828E-02    0.101051E-02
    100.00    0.110842E-02    0.739711E-02    0.530488E-02    0.209223E-02
     80.00    0.886732E-03    0.717543E-02    0.404611E-02    0.312932E-02
     60.00    0.665049E-03    0.695374E-02    0.284332E-02    0.411042E-02
     40.00    0.443366E-03    0.673206E-02    0.171584E-02    0.501622E-02
     20.00    0.221683E-03    0.651038E-02    0.704316E-03    0.580606E-02
     10.00    0.110842E-03    0.639954E-02    0.275355E-03    0.612418E-02 (used)
   ------------------------------------------------------------------------

         :::::::::::::::::::::::::::::::::::::::::::::::::::::
         ::                  THERMODYNAMIC                  ::
         :::::::::::::::::::::::::::::::::::::::::::::::::::::
         :: total free energy          -2.374793113606 Eh   ::
         ::.................................................::
         :: total energy               -2.380917295333 Eh   ::
         :: zero point energy           0.006288695480 Eh   ::
         :: G(RRHO) w/o ZPVE           -0.000164513752 Eh   ::
         :: G(RRHO) contrib.            0.006124181728 Eh   ::
         :::::::::::::::::::::::::::::::::::::::::::::::::::::

optimized geometry written to: xtbopt.xyz


           -------------------------------------------------
          | TOTAL ENERGY               -2.380917295333 Eh   |
          | TOTAL ENTHALPY             -2.374517758340 Eh   |
          | TOTAL FREE ENERGY          -2.374793113606 Eh   |
          | GRADIENT NORM               0.000472954081 Eh/α |
          | HOMO-LUMO GAP               0.000000000007 eV   |
           -------------------------------------------------

------------------------------------------------------------------------
 * finished run on 2020/05/12 at 11:44:28.862     
------------------------------------------------------------------------
 total:
 * wall-time:     0 d,  0 h,  0 min,  0.022 sec
 *  cpu-time:     0 d,  0 h,  0 min,  0.022 sec
 * ratio c/w:     0.998 speedup
 SCF:
 * wall-time:     0 d,  0 h,  0 min,  0.001 sec
 *  cpu-time:     0 d,  0 h,  0 min,  0.001 sec
 * ratio c/w:     0.999 speedup
 ANC optimizer:
 * wall-time:     0 d,  0 h,  0 min,  0.002 sec
 *  cpu-time:     0 d,  0 h,  0 min,  0.002 sec
 * ratio c/w:     1.000 speedup
 numerical hessian:
 * wall-time:     0 d,  0 h,  0 min,  0.004 sec
 *  cpu-time:     0 d,  0 h,  0 min,  0.004 sec
 * ratio c/w:     0.996 speedup

