$hessian                                                                        
        0.1312975314   0.0919059586   0.0516044819  -0.0378995708   0.0313725500
        0.0199758272   0.0244842630  -0.0168578248  -0.0035022176  -0.0425217342
        0.0047315210   0.0045633721  -0.0753604894  -0.1111522048  -0.0726414637
        0.0919059586   0.4069894296   0.1975590690   0.0741233293  -0.0643411786
       -0.0177938515   0.0153830687  -0.0617203191   0.0073010352   0.0040311833
       -0.0077040648  -0.0022057815  -0.1854435399  -0.2732238671  -0.1848604713
        0.0516044819   0.1975590690   0.1238446214   0.0453612273  -0.0252213112
       -0.0283956991  -0.0027203822  -0.0122944284   0.0202898172  -0.0036020657
       -0.0044442846   0.0013158014  -0.0906432613  -0.1555990448  -0.1170545408
       -0.0378995708   0.0741233293   0.0453612273   0.8100809272  -0.0051498999
       -0.0538110945  -0.0400052493  -0.0771622516   0.0412010439  -0.6243893594
        0.0048910510   0.0324301049  -0.1077867476   0.0032977711  -0.0651812817
        0.0313725500  -0.0643411786  -0.0252213112  -0.0051498999   0.0963990380
        0.0014226887  -0.0330201054  -0.0646813583   0.0221825392   0.0051146058
       -0.0061402375   0.0001847235   0.0016828496   0.0387637364   0.0014313597
        0.0199758272  -0.0177938515  -0.0283956991  -0.0538110945   0.0014226887
        0.0663147965   0.0183687174   0.0151800355  -0.0259681244   0.0253285352
        0.0002488480  -0.0227164787  -0.0098619853   0.0009422792   0.0107655057
        0.0244842630   0.0153830687  -0.0027203822  -0.0400052493  -0.0330201054
        0.0183687174   0.1279043485  -0.0892394378   0.0425511964  -0.0426167973
       -0.0043512035   0.0043135424  -0.0697665649   0.1112276781  -0.0625130740
       -0.0168578248  -0.0617203191  -0.0122944284  -0.0771622516  -0.0646813583
        0.0151800355  -0.0892394378   0.4332418138  -0.1798899753  -0.0032221644
       -0.0079592029   0.0015812573   0.1864816786  -0.2988809335   0.1754231109
       -0.0035022176   0.0073010352   0.0202898172   0.0412010439   0.0221825392
       -0.0259681244   0.0425511964  -0.1798899753   0.1010582520  -0.0037090511
        0.0039587967   0.0016737061  -0.0765409717   0.1464476042  -0.0970536509
       -0.0425217342   0.0040311833  -0.0036020657  -0.6243893594   0.0051146058
        0.0253285352  -0.0426167973  -0.0032221644  -0.0037090511   0.7189374424
       -0.0054876448  -0.0410275258  -0.0094095515  -0.0004359800   0.0230101074
        0.0047315210  -0.0077040648  -0.0044442846   0.0048910510  -0.0061402375
        0.0002488480  -0.0043512035  -0.0079592029   0.0039587967  -0.0054876448
        0.0099100251   0.0002543123   0.0002162763   0.0118934800  -0.0000176725
        0.0045633721  -0.0022057815   0.0013158014   0.0324301049   0.0001847235
       -0.0227164787   0.0043135424   0.0015812573   0.0016737061  -0.0410275258
        0.0002543123   0.0144696546  -0.0002794937   0.0001854883   0.0052573165
       -0.0753604894  -0.1854435399  -0.0906432613  -0.1077867476   0.0016828496
       -0.0098619853  -0.0697665649   0.1864816786  -0.0765409717  -0.0094095515
        0.0002162763  -0.0002794937   0.2623233534  -0.0029372645   0.1773257120
       -0.1111522048  -0.2732238671  -0.1555990448   0.0032977711   0.0387637364
        0.0009422792   0.1112276781  -0.2988809335   0.1464476042  -0.0004359800
        0.0118934800   0.0001854883  -0.0029372645   0.5214475841   0.0080236732
       -0.0726414637  -0.1848604713  -0.1170545408  -0.0651812817   0.0014313597
        0.0107655057  -0.0625130740   0.1754231109  -0.0970536509   0.0230101074
       -0.0000176725   0.0052573165   0.1773257120   0.0080236732   0.1980853696
