[Molden Format]
[Title]
[Atoms] AU
C      1     6 -0.10647662450024E+01  0.19983550995979E+01  0.54730925157458E+00
C      2     6  0.98473008198236E+00 -0.62222772874801E-02 -0.10209644311485E+00
C      3     6 -0.11026330735131E+01 -0.20073242950894E+01  0.42613399772966E+00
C      4     6  0.33771969040938E+01 -0.24155204634509E-01 -0.25633582555987E+00
C      5     6 -0.21945276675672E+01  0.39346677410236E-01 -0.61501287035546E+00
[GTO]
           1 0
 s           4   1.0000000000000000     
   51.049363095579913      -0.16312063210127389     
   8.7911227406887544      -0.19911024581000730     
  0.70640422258929825       0.31882047753655751     
  0.26922813413411617       0.12706504184240380     
 p           4   1.0000000000000000     
   5.8263656140800002       0.73716451545209605     
   1.5106896018720002       0.68216371614850257     
  0.53256483288000001       0.35783053929253711     
  0.21202323690600003        5.3983030275847881E-002

           2 0
 s           4   1.0000000000000000     
   51.049363095579913      -0.16312063210127389     
   8.7911227406887544      -0.19911024581000730     
  0.70640422258929825       0.31882047753655751     
  0.26922813413411617       0.12706504184240380     
 p           4   1.0000000000000000     
   5.8263656140800002       0.73716451545209605     
   1.5106896018720002       0.68216371614850257     
  0.53256483288000001       0.35783053929253711     
  0.21202323690600003        5.3983030275847881E-002

           3 0
 s           4   1.0000000000000000     
   51.049363095579913      -0.16312063210127389     
   8.7911227406887544      -0.19911024581000730     
  0.70640422258929825       0.31882047753655751     
  0.26922813413411617       0.12706504184240380     
 p           4   1.0000000000000000     
   5.8263656140800002       0.73716451545209605     
   1.5106896018720002       0.68216371614850257     
  0.53256483288000001       0.35783053929253711     
  0.21202323690600003        5.3983030275847881E-002

           4 0
 s           4   1.0000000000000000     
   51.049363095579913      -0.16312063210127389     
   8.7911227406887544      -0.19911024581000730     
  0.70640422258929825       0.31882047753655751     
  0.26922813413411617       0.12706504184240380     
 p           4   1.0000000000000000     
   5.8263656140800002       0.73716451545209605     
   1.5106896018720002       0.68216371614850257     
  0.53256483288000001       0.35783053929253711     
  0.21202323690600003        5.3983030275847881E-002

           5 0
 s           4   1.0000000000000000     
   51.049363095579913      -0.16312063210127389     
   8.7911227406887544      -0.19911024581000730     
  0.70640422258929825       0.31882047753655751     
  0.26922813413411617       0.12706504184240380     
 p           4   1.0000000000000000     
   5.8263656140800002       0.73716451545209605     
   1.5106896018720002       0.68216371614850257     
  0.53256483288000001       0.35783053929253711     
  0.21202323690600003        5.3983030275847881E-002

[MO]
Sym=     1a
Ene=  -0.75195770675961149     
Spin= Alpha
Occup=     2.00000000
           1  0.30247009860123214     
           2   8.7873918225524171E-003
           3 -0.13220810606271705     
           4  -4.5512722850992171E-002
           5  0.29010396260898796     
           6 -0.13020899126567875     
           7   8.5109961006264278E-004
           8   1.2575148405181138E-002
           9  0.30246796161001910     
          10   1.1308771083405101E-002
          11  0.13452706041673862     
          12  -3.7443335767566865E-002
          13   6.4154063461496061E-002
          14  -4.7413124620503178E-002
          15   3.3408777767495254E-004
          16   3.7685876852771492E-003
          17  0.35828230560597374     
          18  0.14754455367837116     
          19  -4.0114138231201061E-003
          20   8.6517776104662408E-002
Sym=     2a
Ene=  -0.69124794444970639     
Spin= Alpha
Occup=     2.00000000
           1   6.7466430777537612E-002
           2  -9.4064076156986878E-002
           3  -2.0840755671269903E-002
           4  -7.9620356371012824E-003
           5 -0.39683566190031888     
           6 -0.28508777709212707     
           7   2.3347288621280876E-003
           8   1.1812774115468421E-002
           9   6.7470452731138802E-002
          10  -9.3647500516379337E-002
          11   2.3056848409056255E-002
          12  -6.6346486780861150E-003
          13 -0.53543830285564187     
          14  0.16211757263594809     
          15  -1.1880898420096018E-003
          16  -1.1355168823079822E-002
          17  0.17092780784540398     
          18  -2.0616402326516500E-002
          19  -1.0194789691356032E-003
          20   4.0104272310484648E-002
Sym=     3a
Ene=  -0.66436116397738310     
Spin= Alpha
Occup=     2.00000000
           1 -0.47348511884323058     
           2   8.6051554471830386E-003
           3   5.3070093395028465E-003
           4   7.1298858868961701E-002
           5   3.1379213955576347E-006
           6  -2.4284777038276082E-003
           7 -0.25707049986364661     
           8  -7.7766397138063856E-003
           9  0.47348574449714970     
          10  -8.4611211844626208E-003
          11   9.7697206697787663E-003
          12  -7.0842643599511437E-002
          13   2.4709761978831886E-006
          14  -5.4658577969717524E-004
          15  -5.7781478032863078E-002
          16  -1.7479095494618900E-003
          17  -1.3378619058574907E-007
          18  -3.5584400345017248E-003
          19 -0.37648819077592344     
          20  -1.1389123282028703E-002
Sym=     4a
Ene=  -0.59290370414795057     
Spin= Alpha
Occup=     2.00000000
           1  -2.6411483835168323E-002
           2 -0.30681543631250380     
           3  -5.5769426260238496E-003
           4  -7.9326349602107563E-002
           5 -0.21313228851722785     
           6  0.24361152552214016     
           7   1.8586586635830995E-003
           8 -0.13758134293487004     
           9  -2.6410392618504263E-002
          10 -0.30660730813780002     
          11   1.6155153836410918E-002
          12  -7.8668239045217692E-002
          13  0.34394794278924495     
          14   5.8758890090999022E-002
          15   9.9035629945629805E-004
          16  -5.1125945138282489E-002
          17  0.47988304113074282     
          18 -0.27912236074717789     
          19   2.3414785593579308E-003
          20   9.8379406499809682E-003
Sym=     5a
Ene=  -0.57298365073799518     
Spin= Alpha
Occup=     2.00000000
           1  0.19816444553080595     
           2  -7.6119773366257970E-002
           3  -2.4018146704268484E-002
           4  0.30654582661792801     
           5  -9.6967708738944572E-002
           6  0.10920540972708197     
           7  -1.2725333053798889E-002
           8  0.38655562774014696     
           9  0.19816354538243658     
          10  -7.5827984059461992E-002
          11   6.8799984743139093E-003
          12  0.30747782659337713     
          13  0.10557866707248253     
          14   4.3998378545452847E-002
          15  -5.3120663658525521E-003
          16  0.16185846218557601     
          17 -0.14710570338816917     
          18 -0.16994102005185491     
          19  -1.1033292692319382E-002
          20  0.41781452298332872     
Sym=     6a
Ene=  -0.54516254975181155     
Spin= Alpha
Occup=     2.00000000
           1   8.1864277639187230E-003
           2 -0.37518057659287468     
           3  -8.0499237960792117E-003
           4  -6.3061616828590017E-002
           5   3.2879222666673696E-006
           6  -4.5788649615845986E-003
           7 -0.48456830452823102     
           8  -1.4658166201926606E-002
           9  -8.1875039217536878E-003
          10  0.37492647706968935     
          11  -1.8930066505105349E-002
          12   6.2246857106610765E-002
          13  -9.3487125324019054E-007
          14  -2.6974398081954756E-003
          15 -0.28545096122751301     
          16  -8.6350394986002919E-003
          17  -1.7986632210026338E-006
          18   3.0758572548151742E-003
          19  0.32528130229973895     
          20   9.8411135204775641E-003
Sym=     7a
Ene=  -0.49694938766936436     
Spin= Alpha
Occup=     2.00000000
           1  0.48888039033473002     
           2   5.1103132339926196E-003
           3  0.43094726451140969     
           4  -1.4174706807341347E-002
           5 -0.10876810882685189     
           6   1.2812534694642773E-002
           7   5.9491597933375726E-003
           8 -0.20068049924109113     
           9  0.48888273286999789     
          10  -3.0196245877258747E-003
          11 -0.42932077439986599     
          12  -4.0197341855619850E-002
          13  0.11747724606408032     
          14   8.9858835371376691E-002
          15   4.4008522700458652E-003
          16 -0.17352606203770135     
          17 -0.16424388180044402     
          18   5.8405215961606034E-002
          19   8.8354734996167893E-004
          20  -4.7432635031391446E-002
Sym=     8a
Ene=  -0.47251472622923152     
Spin= Alpha
Occup=     2.00000000
           1   9.3670234095845378E-002
           2  -3.3327170461043593E-003
           3  0.18680795501129838     
           4  -7.2394543770301953E-002
           5  0.15652593973666465     
           6  0.16023785944412020     
           7  -9.0793428231874217E-003
           8  0.25004015716901962     
           9   9.3667380191050323E-002
          10  -6.8203744480796885E-003
          11 -0.18199092811616577     
          12  -8.3553881145095502E-002
          13 -0.44269026206771073     
          14 -0.46056170875381569     
          15  -5.6567921905572409E-003
          16  0.33075552462080837     
          17  0.23271856069947144     
          18 -0.30592071119939374     
          19   1.0803426413276715E-002
          20 -0.26157062294786287     
Sym=     9a
Ene=  -0.46769601903345914     
Spin= Alpha
Occup=     2.00000000
           1   1.9906262827463130E-002
           2  0.12946920430467632     
           3   5.2083615530528045E-002
           4 -0.13949531621033751     
           5 -0.14841270448697455     
           6 -0.10163120464881080     
           7  -1.0597993419152603E-002
           8  0.38208523407044787     
           9   1.9909947280393112E-002
          10  0.12854440122176092     
          11  -4.5995918351574801E-002
          12 -0.14245852073681933     
          13  0.37413905571526068     
          14  0.45491766156083147     
          15  -1.6953330308618342E-002
          16  0.41840496045242692     
          17  0.13192066546069875     
          18   6.2147590926854311E-002
          19   9.8685269716084056E-003
          20 -0.34558171787048980     
Sym=    10a
Ene=  -0.45355887475959156     
Spin= Alpha
Occup=     2.00000000
           1 -0.36679180920473548     
           2  -2.2889068513477179E-002
           3 -0.31298690201498358     
           4 -0.42502419033082789     
           5   7.0243339279704185E-007
           6   1.6215443981214845E-003
           7  0.17144852568662577     
           8   5.1868171267956276E-003
           9  0.36679184252106917     
          10   1.6729522411073228E-002
          11 -0.33847988518584277     
          12  0.40531805094826062     
          13  -3.6032776485914163E-006
          14   2.3495364669019578E-003
          15  0.24922113431886903     
          16   7.5394907997608316E-003
          17  -1.6121434861934315E-007
          18   2.4501928337983927E-003
          19  0.25942129936033126     
          20   7.8492777193926305E-003
Sym=    11a
Ene=  -0.38012523593988845     
Spin= Alpha
Occup=     0.00000000
           1   2.8786523695666432E-002
           2  0.32409521643247574     
           3  0.11839957812669023     
           4 -0.36104681542119071     
           5  -1.4091654558111223E-006
           6   1.4636333987385868E-004
           7   1.5393924738448316E-002
           8   4.6565097126563537E-004
           9  -2.8785559078129519E-002
          10 -0.32201124987941526     
          11  0.10246097955936977     
          12  0.36772539351210604     
          13  -5.1703223841374027E-007
          14  -7.0157852905473597E-003
          15 -0.74278866576596725     
          16  -2.2467265699309198E-002
          17  -2.2609931896971608E-006
          18  -4.5636974918759400E-004
          19  -4.8765112594029575E-002
          20  -1.4732506417821599E-003
Sym=    12a
Ene=  -0.35793869397156663     
Spin= Alpha
Occup=     0.00000000
           1   1.8574237970337189E-002
           2  0.27419408617124913     
           3  -4.9909283395601106E-002
           4  0.30051354433384819     
           5  0.11198022695270199     
           6 -0.14835526622707668     
           7  -1.9242240410881194E-003
           8  0.10984145919995303     
           9   1.8573292008683195E-002
          10  0.27491712954748182     
          11   2.6495017575546124E-002
          12  0.30284831593448963     
          13   5.0076258287218844E-002
          14  0.12823416626853840     
          15   1.4030363760142580E-002
          16 -0.50364513654644616     
          17  0.30091972778228604     
          18 -0.52050890258080651     
          19   1.5866354235762749E-002
          20 -0.36193807901429315     
Sym=    13a
Ene=  -0.35504471063592857     
Spin= Alpha
Occup=     0.00000000
           1   3.0547314370466933E-003
           2  -9.2472460683592148E-002
           3  0.56842338737797671     
           4 -0.34971840324392894     
           5  -2.1058163087958286E-006
           6  -1.2398409000773287E-003
           7 -0.13157509199341974     
           8  -3.9830739025143768E-003
           9  -3.0567905802366571E-003
          10  0.10297865855740500     
          11  0.54439861796041655     
          12  0.38336739951815296     
          13  -8.8937928534361918E-007
          14   4.0535807065034896E-003
          15  0.42948369910435152     
          16   1.3005726656444597E-002
          17  -7.5893364414067781E-006
          18  -1.1541605625196858E-003
          19 -0.12336931142530690     
          20  -3.7215703027511514E-003
Sym=    14a
Ene=  -0.26094321263260306     
Spin= Alpha
Occup=     0.00000000
           1  -4.4468185481496635E-002
           2  0.24263984200300800     
           3   7.5358165502471805E-002
           4 -0.49314431396882213     
           5  0.11202115287493290     
           6  -8.8943232457912288E-002
           7  -4.0546943326442708E-003
           8  0.16181447223856271     
           9  -4.4468481038936580E-002
          10  0.24145345897015977     
          11  -4.9984019418323901E-002
          12 -0.49693577710106207     
          13  -7.7707046391596113E-003
          14  0.11517693423779235     
          15   4.0046023004751477E-003
          16 -0.16838994326217116     
          17  -9.2502126669767287E-002
          18 -0.52537819923075069     
          19  -1.3516501960520001E-002
          20  0.61099372043887723     
Sym=    15a
Ene=  -0.21595132078041149     
Spin= Alpha
Occup=     0.00000000
           1   1.6581408696597823E-002
           2 -0.12343733490324894     
           3  -1.9249612200207246E-002
           4 -0.18539202564357771     
           5 -0.25049572194390723     
           6  0.24333372118769042     
           7  -2.5599542076693269E-002
           8  0.77023812959758298     
           9   1.6582360578014297E-002
          10 -0.12294393306009732     
          11   3.2749249861062764E-002
          12 -0.18381888472016714     
          13  -5.7154039687546208E-003
          14 -0.18531006456527477     
          15   2.1390822028333228E-002
          16 -0.64922135782683676     
          17  -2.8639324381264222E-002
          18  0.40206759273288778     
          19   5.0517047258096925E-004
          20 -0.14234569587320939     
Sym=    16a
Ene=   -1.0213302594024110E-002
Spin= Alpha
Occup=     0.00000000
           1 -0.15038607869372914     
           2 -0.54815068097981412     
           3  0.18095395399119696     
           4  -2.7968235684746835E-003
           5  0.90152392872085862     
           6 -0.48735011821531515     
           7  -2.9870583475546221E-003
           8  0.24285564180008798     
           9 -0.15049018816417217     
          10 -0.55175543327454180     
          11 -0.17015205797455848     
          12  -1.3408062189951060E-002
          13  -4.6876318425879152E-002
          14  0.28368395325529339     
          15   7.7218089743805770E-004
          16 -0.11051470572262412     
          17 -0.33127387962258270     
          18 -0.15369354073959421     
          19   6.1833243935780977E-003
          20 -0.15421747392640520     
Sym=    17a
Ene=   -3.4810495533143916E-003
Spin= Alpha
Occup=     0.00000000
           1 -0.20338134313041853     
           2 -0.55579980130728424     
           3  0.17103670716905517     
           4   2.3822585654670478E-002
           5   2.3118913490884573E-004
           6   8.9818200952829427E-003
           7  0.96406797451728732     
           8   2.9226153871425478E-002
           9  0.20330298707411482     
          10  0.55866059749984509     
          11  0.16154911511326936     
          12  -1.3765907177614887E-002
          13  -1.1226043733586919E-005
          14  -3.9098073931333561E-003
          15 -0.42136309308128206     
          16  -1.2774268834665613E-002
          17  -8.7045226262856478E-005
          18  -2.4687938674416627E-003
          19 -0.25678670543854493     
          20  -7.8082543996056165E-003
Sym=    18a
Ene=   0.35357606851763085     
Spin= Alpha
Occup=     0.00000000
           1  0.59336555313899497     
           2 -0.28540090137693841     
           3 -0.45012712796994542     
           4 -0.38219341601086387     
           5   3.9629135770839209E-006
           6  -1.9140239815230206E-003
           7 -0.20272727813132135     
           8  -6.1305767025704111E-003
           9 -0.59338056234642933     
          10  0.27663500919017342     
          11 -0.47773476833291478     
          12  0.35413138944996603     
          13  -1.9294333363458062E-006
          14   7.5020323075879246E-004
          15   7.9127327554143062E-002
          16   2.3928090345224952E-003
          17   1.4932281560749571E-005
          18  -1.0399877467955034E-002
          19  -1.1010837232247221     
          20  -3.3300269253305266E-002
Sym=    19a
Ene=   0.48092221867932022     
Spin= Alpha
Occup=     0.00000000
           1 -0.54038694779940877     
           2  0.16751683495804107     
           3  0.61607463876960566     
           4  0.25314417670834588     
           5  0.26431310187047519     
           6  -3.4826397216447826E-003
           7  -3.7913071930155352E-003
           8  0.12659346898560644     
           9 -0.54036517081052127     
          10  0.15569854441331468     
          11 -0.63328575141561405     
          12  0.21533761237602697     
          13  -8.8257784979578646E-002
          14  0.12697408101048241     
          15   3.7419685105058963E-004
          16  -5.2078301215888641E-002
          17  0.99934523574356560     
          18  0.56423366791390994     
          19  -2.2139652702144429E-002
          20  0.55613121221512918     
Sym=    20a
Ene=   0.73563055052679849     
Spin= Alpha
Occup=     0.00000000
           1 -0.16664568968155277     
           2  -5.6315147308540155E-002
           3  0.16988533995438951     
           4   3.4357913737383922E-002
           5 -0.62317440117764344     
           6  -1.2038766532947451     
           7   8.2686157856513808E-003
           8  0.10256546131638253     
           9 -0.16664879432281618     
          10  -5.9536607887326058E-002
          11 -0.17055935854105309     
          12   2.4060357750626721E-002
          13  0.87802721730265731     
          14 -0.97941332170423534     
          15   7.5199868337169655E-003
          16   5.7235951328134700E-002
          17  -1.7656980599661695E-002
          18 -0.10222810623726114     
          19  -7.1664081285244155E-004
          20   5.5624607521107879E-002
