 Entering Gaussian System
 *********************************************
 Gaussian 98:
 frequency output generated by the xtb code
 *********************************************
                         Standard orientation:
 --------------------------------------------------------------------
  Center     Atomic     Atomic              Coordinates (Angstroms)
  Number     Number      Type              X           Y           Z
 --------------------------------------------------------------------
    1          6             0       -0.563450    1.057484    0.289624
    2          6             0        0.521097   -0.003293   -0.054027
    3          6             0       -0.583488   -1.062230    0.225500
    4          6             0        1.787136   -0.012782   -0.135647
    5          6             0       -1.161294    0.020821   -0.325451
 --------------------------------------------------------------------
     1 basis functions        1 primitive gaussians
     1 alpha electrons        1 beta electrons

 Harmonic frequencies (cm**-1), IR intensities (KM/Mole),
 Raman scattering activities (A**4/amu), Raman depolarization ratios,
 reduced masses (AMU), force constants (mDyne/A) and normal coordinates:
                      1                      2                      3
                        a                      a                      a 
 Frequencies --   235.2310               317.9048               404.6313
 Red. masses --    12.0107                12.0107                12.0107
 Frc consts  --     0.0000                 0.0000                 0.0000
 IR Inten    --     0.3499                 0.1392                 0.3350
 Raman Activ --     0.0000                 0.0000                 0.0000
 Depolar     --     0.0000                 0.0000                 0.0000
 Atom AN      X      Y      Z        X      Y      Z        X      Y      Z
   1   6     0.39  -0.08  -0.06    -0.15  -0.11   0.18    -0.06   0.47  -0.30
   2   6    -0.00  -0.53  -0.02     0.03  -0.02   0.58    -0.03  -0.01   0.39
   3   6    -0.40  -0.08   0.06    -0.15   0.10   0.18    -0.07  -0.45  -0.32
   4   6     0.01   0.62   0.02    -0.02   0.01  -0.46    -0.08   0.01  -0.13
   5   6     0.00   0.07   0.00     0.29   0.01  -0.48     0.25  -0.01   0.36
                      4                      5                      6
                        a                      a                      a 
 Frequencies --   519.6192               612.0534               722.4423
 Red. masses --    12.0107                12.0107                12.0107
 Frc consts  --     0.0000                 0.0000                 0.0000
 IR Inten    --     0.1805                 0.0271                 0.5444
 Raman Activ --     0.0000                 0.0000                 0.0000
 Depolar     --     0.0000                 0.0000                 0.0000
 Atom AN      X      Y      Z        X      Y      Z        X      Y      Z
   1   6    -0.10   0.20   0.25    -0.42   0.24   0.05     0.48  -0.07  -0.06
   2   6    -0.24   0.02  -0.47    -0.01  -0.69  -0.02    -0.46  -0.00   0.20
   3   6    -0.10  -0.21   0.24     0.43   0.23  -0.03     0.48   0.07  -0.05
   4   6    -0.22  -0.00   0.10     0.00  -0.01  -0.00    -0.51   0.00   0.02
   5   6     0.65  -0.00  -0.12     0.00   0.22   0.01     0.01   0.00  -0.11
                      7                      8                      9
                        a                      a                      a 
 Frequencies --  1428.9707              1474.3434              1774.0053
 Red. masses --    12.0107                12.0107                12.0107
 Frc consts  --     0.0000                 0.0000                 0.0000
 IR Inten    --     0.7518                 0.5368                 0.2203
 Raman Activ --     0.0000                 0.0000                 0.0000
 Depolar     --     0.0000                 0.0000                 0.0000
 Atom AN      X      Y      Z        X      Y      Z        X      Y      Z
   1   6    -0.15  -0.45  -0.23     0.14   0.41   0.23    -0.03  -0.12  -0.07
   2   6     0.11  -0.00   0.01    -0.00  -0.09  -0.00    -0.72   0.01   0.05
   3   6    -0.14   0.47  -0.20    -0.13   0.42  -0.20    -0.02   0.12  -0.06
   4   6    -0.26   0.00   0.02    -0.00  -0.02  -0.00     0.64  -0.01  -0.04
   5   6     0.44  -0.01   0.41    -0.01  -0.72  -0.02     0.13  -0.00   0.12
