5
 energy: -10.228044657687 gnorm: 0.000751759760 xtb: 6.2.2 (9d81278992624c895f80dd42a50cac0aa55982e2)
C        -0.56345008407087    1.05748407611223    0.28962361012089
C         0.52109676662300   -0.00329268764595   -0.05402711602326
C        -0.58348834862704   -1.06223037040685    0.22550042131143
C         1.78713580418882   -0.01278238500323   -0.13564708980961
C        -1.16129413811740    0.02082136694205   -0.32545082559944
