5
 energy: -10.084195630418 gnorm: 0.263367863421 xtb: 6.2.2 (9d81278992624c895f80dd42a50cac0aa55982e2)
C        -0.42815000000000    1.07096900000000    0.12035700000000
C         0.53308200000000   -0.02146200000000    0.54300700000000
C        -0.44835500000000   -1.06801700000000    0.05564500000000
C         1.75513800000000   -0.00580200000000   -0.35618300000000
C        -1.41171500000000    0.02431200000000   -0.36282700000000
5
 energy: -10.159987488763 gnorm: 0.150299397019 xtb: 6.2.2 (9d81278992624c895f80dd42a50cac0aa55982e2)
C        -0.48828563462218    0.98357121583769    0.19325535412425
C         0.60432464679339   -0.01867290859706    0.42858328625823
C        -0.50687239750928   -0.98406542638600    0.13372641036657
C         1.75595709304289   -0.00663729695739   -0.32883562929200
C        -1.36512370770483    0.02580441610275   -0.42673042145705
5
 energy: -10.185114776277 gnorm: 0.123221872484 xtb: 6.2.2 (9d81278992624c895f80dd42a50cac0aa55982e2)
C        -0.53217824229096    0.88373821741441    0.18491766888690
C         0.65376678722383   -0.01409082648031    0.26169806270515
C        -0.54886805605659   -0.88309914222662    0.13146282257977
C         1.79563534555658   -0.01027223699398   -0.22109240009948
C        -1.36835583443286    0.02372398828650   -0.35698715407235
5
 energy: -10.193742142115 gnorm: 0.056570797938 xtb: 6.2.2 (9d81278992624c895f80dd42a50cac0aa55982e2)
C        -0.57086678451634    0.89478788210884    0.24383815362278
C         0.66374089296652   -0.01152917405022    0.17395448690848
C        -0.58778950127427   -0.89695785743572    0.18962833123320
C         1.91032213594169   -0.01165779813659   -0.21115425787440
C        -1.41540674311760    0.02535694751369   -0.39626771389006
5
 energy: -10.197589133113 gnorm: 0.043722049245 xtb: 6.2.2 (9d81278992624c895f80dd42a50cac0aa55982e2)
C        -0.55168626364785    0.90397199191652    0.24312779230295
C         0.65067634385412   -0.01093685352132    0.15847013570768
C        -0.56878412953831   -0.90644271498760    0.18835283362706
C         1.87201058702371   -0.01165171683020   -0.19941596384169
C        -1.40221653769166    0.02505929342259   -0.39053579779600
5
 energy: -10.213930618875 gnorm: 0.117619356126 xtb: 6.2.2 (9d81278992624c895f80dd42a50cac0aa55982e2)
C        -0.51835233511810    0.96357612922972    0.26653252520649
C         0.58065269411306   -0.00511204003479   -0.01213770891057
C        -0.53658968109925   -0.96797174690601    0.20809138889343
C         1.79443104873229   -0.01336138323977   -0.11876938232107
C        -1.32014172662801    0.02286904095085   -0.34371782286828
5
 energy: -10.212105671059 gnorm: 0.114321925066 xtb: 6.2.2 (9d81278992624c895f80dd42a50cac0aa55982e2)
C        -0.49001574316353    1.03454323792668    0.25978564247156
C         0.47860450430881    0.00373914507678   -0.27278608486218
C        -0.50958956917810   -1.03892376940339    0.19704954801858
C         1.78898378448301   -0.01767522486661    0.02544227267017
C        -1.26798297645020    0.01831661126654   -0.20949237829814
5
 energy: -10.223127255286 gnorm: 0.064174500004 xtb: 6.2.2 (9d81278992624c895f80dd42a50cac0aa55982e2)
C        -0.51679863481503    1.02547578145780    0.31657624579878
C         0.50642937715336    0.00016496137320   -0.16338248827568
C        -0.53623302584810   -1.03280023382067    0.25430019338306
C         1.75095275409707   -0.01422926277110   -0.07652538592575
C        -1.20435047058730    0.02138875376076   -0.33096956498041
5
 energy: -10.222026671940 gnorm: 0.055098127247 xtb: 6.2.2 (9d81278992624c895f80dd42a50cac0aa55982e2)
C        -0.52518810347222    0.99306037540074    0.25319378433990
C         0.54108382660228   -0.00307157534846   -0.06728581716877
C        -0.54397814710902   -0.99646075666853    0.19299988270410
C         1.79837258247284   -0.01428164346555   -0.08949789118076
C        -1.27029015849387    0.02075360008181   -0.28941095869448
5
 energy: -10.225823795076 gnorm: 0.024804830378 xtb: 6.2.2 (9d81278992624c895f80dd42a50cac0aa55982e2)
C        -0.53036221047307    1.01518044003786    0.29069132424778
C         0.52166248839565   -0.00130209552487   -0.11970772108182
C        -0.54958889854374   -1.02070569963561    0.22909462544460
C         1.78274310467971   -0.01420846752352   -0.08704999623792
C        -1.22445448405855    0.02103582264614   -0.31302923237263
5
 energy: -10.226756161682 gnorm: 0.017535199292 xtb: 6.2.2 (9d81278992624c895f80dd42a50cac0aa55982e2)
C        -0.53784337490372    1.02807676873610    0.29993410769162
C         0.51410722291969   -0.00133872215640   -0.11618691331036
C        -0.55731997197872   -1.03399424902749    0.23754667292850
C         1.77944884505843   -0.01381431868870   -0.09898494215374
C        -1.19839272109568    0.02107052113650   -0.32230992515601
5
 energy: -10.227762979044 gnorm: 0.011290970155 xtb: 6.2.2 (9d81278992624c895f80dd42a50cac0aa55982e2)
C        -0.55568779957718    1.04460433957511    0.30290929688273
C         0.51456707545103   -0.00244891278217   -0.07966472560656
C        -0.57547461410183   -1.05033103406027    0.23952808916444
C         1.78586507074686   -0.01299933201725   -0.12791698308214
C        -1.16926973251887    0.02117493928459   -0.33485667735847
5
 energy: -10.227994688623 gnorm: 0.007458992557 xtb: 6.2.2 (9d81278992624c895f80dd42a50cac0aa55982e2)
C        -0.56284864346651    1.05146598102001    0.29640520845888
C         0.51821583163484   -0.00318732153856   -0.05637685511936
C        -0.58275735534657   -1.05665086772527    0.23262485350551
C         1.78873333869270   -0.01268916017854   -0.13910351120065
C        -1.16134317151445    0.02106136842237   -0.33355069564439
5
 energy: -10.228035112182 gnorm: 0.002911877379 xtb: 6.2.2 (9d81278992624c895f80dd42a50cac0aa55982e2)
C        -0.56346266558140    1.05431043725491    0.29227870022919
C         0.51984376837154   -0.00332884876559   -0.05218901463972
C        -0.58342181480269   -1.05922723114638    0.22833334085586
C         1.78733201627053   -0.01268590153945   -0.13880698723425
C        -1.16029130425798    0.02093154419651   -0.32961703921107
5
 energy: -10.228042612725 gnorm: 0.000909168295 xtb: 6.2.2 (9d81278992624c895f80dd42a50cac0aa55982e2)
C        -0.56363651956432    1.05587781423449    0.29063956950221
C         0.52099562557278   -0.00334324248693   -0.05217606628752
C        -0.58363151404610   -1.06069009732207    0.22660556338006
C         1.78716326660392   -0.01271902774431   -0.13750538121572
C        -1.16089085856628    0.02087455331883   -0.32756468537903
5
 energy: -10.228044657014 gnorm: 0.000751616350 xtb: 6.2.2 (9d81278992624c895f80dd42a50cac0aa55982e2)
C        -0.56345663201051    1.05748062039325    0.28962348894027
C         0.52109697244337   -0.00328986489768   -0.05402530279400
C        -0.58348357393524   -1.06223381909744    0.22549653062349
C         1.78713634457952   -0.01277279084390   -0.13564087382069
C        -1.16129311107714    0.02081585444577   -0.32545484294907
