      -----------------------------------------------------------      
     |                   =====================                   |     
     |                           x T B                           |     
     |                   =====================                   |     
     |                         S. Grimme                         |     
     |          Mulliken Center for Theoretical Chemistry        |     
     |                    University of Bonn                     |     
      -----------------------------------------------------------      

   * xtb version 6.2.2 (9d81278992624c895f80dd42a50cac0aa55982e2) compiled by '@Darwin' on 04/03/2020

   xtb is free software: you can redistribute it and/or modify it under
   the terms of the GNU Lesser General Public License as published by
   the Free Software Foundation, either version 3 of the License, or
   (at your option) any later version.
   
   xtb is distributed in the hope that it will be useful,
   but WITHOUT ANY WARRANTY; without even the implied warranty of
   MERCHANTABILITY or FITNESS FOR A PARTICULAR PURPOSE.  See the
   GNU Lesser General Public License for more details.
   
   Cite this work as:
   * S. Grimme, C. Bannwarth, P. Shushkov, J. Chem. Theory Comput., 2017,
     13, 1989-2009. DOI: 10.1021/acs.jctc.7b00118
   * C. Bannwarth, S. Ehlert and S. Grimme., J. Chem. Theory Comput., 2019,
     15, 1652-1671. DOI: 10.1021/acs.jctc.8b01176
   * P. Pracht, E. Caldeweyher, S. Ehlert, S. Grimme, ChemRxiv, 2019, preprint.
     DOI: 10.26434/chemrxiv.8326202.v1
   
   for DFT-D4:
   * E. Caldeweyher, C. Bannwarth and S. Grimme, J. Chem. Phys., 2017,
     147, 034112. DOI: 10.1063/1.4993215
   * E. Caldeweyher, S. Ehlert, A. Hansen, H. Neugebauer, S. Spicher,
     C. Bannwarth and S. Grimme, J. Chem. Phys., 2019, 150, 154122.
     DOI: 10.1063/1.5090222
   
   for sTDA-xTB:
   * S. Grimme and C. Bannwarth, J. Chem. Phys., 2016, 145, 054103.
     DOI: 10.1063/1.4959605
   
   in the mass-spec context:
   * V. Asgeirsson, C. Bauer and S. Grimme, Chem. Sci., 2017, 8, 4879.
     DOI: 10.1039/c7sc00601b
   
   for metadynamics refer to:
   * S. Grimme, J. Chem. Theory Comput., 2019, 155, 2847-2862
     DOI: 10.1021/acs.jctc.9b00143
   
   with help from (in alphabetical order)
   C. Bannwarth, F. Bohle, G. Brandenburg, E. Caldeweyher, M. Checinski,
   S. Dohm, S. Ehlert, S. Ehrlich, F. März, H. Neugebauer, J. Pisarek,
   P. Pracht, P. Shushkov, and S. Spicher.
   
 * started run on 2020/05/12 at 11:44:33.202     

           -------------------------------------------------
          |                Calculation Setup                |
           -------------------------------------------------

          program call               : xtb --input C5_5_S_0.input C5_5_S_0.xyz --ohess --molden --namespace C5_5_S_0 output.out
          calculation namespace      : C5_5_S_0
          coordinate file            : C5_5_S_0.xyz
          number of atoms            :                     5
          number of electrons        :                    20
          charge                     :                     0
          spin                       :                   0.0
          first test random number   :      0.17739398165993

   ID    Z sym.   atoms
    1    6 C      1-5

           -------------------------------------------------
          |                 G F N 2 - x T B                 |
           -------------------------------------------------

        Reference                      10.1021/acs.jctc.8b01176
      * Hamiltonian:
        H0-scaling (s, p, d)           1.850000    2.230000    2.230000
        zeta-weighting                 0.500000
      * Dispersion:
        s8                             2.700000
        a1                             0.520000
        a2                             5.000000
        s9                             5.000000
      * Repulsion:
        kExp                           1.500000    1.000000
        rExp                           1.000000
      * Coulomb:
        alpha                          2.000000
        third order                    shell-resolved
        anisotropic                    true
        a3                             3.000000
        a5                             4.000000
        cn-shift                       1.200000
        cn-exp                         4.000000
        max-rad                        5.000000


          ...................................................
          :                      SETUP                      :
          :.................................................:
          :  # basis functions                  20          :
          :  # atomic orbitals                  20          :
          :  # shells                           10          :
          :  # electrons                        20          :
          :  max. iterations                   250          :
          :  Hamiltonian                  GFN2-xTB          :
          :  restarted?                      false          :
          :  GBSA solvation                  false          :
          :  PC potential                    false          :
          :  electronic temp.          300.0000000     K    :
          :  accuracy                    1.0000000          :
          :  -> integral cutoff          0.2500000E+02      :
          :  -> integral neglect         0.1000000E-07      :
          :  -> SCF convergence          0.1000000E-05 Eh   :
          :  -> wf. convergence          0.1000000E-03 e    :
          :  Broyden damping             0.4000000          :
          ...................................................

 iter      E             dE          RMSdq      gap      omega  full diag
   1     -9.9264697 -0.992647E+01  0.130E+01    0.42       0.0  T
   2     -8.0057173  0.192075E+01  0.153E+01    0.53       1.0  T
   3     -6.7418288  0.126389E+01  0.158E+01    0.11       1.0  T
   4     -9.8520692 -0.311024E+01  0.915E+00    0.23       1.0  T
   5     -9.6177936  0.234276E+00  0.860E+00    0.32       1.0  T
   6     -9.8707486 -0.252955E+00  0.618E+00    0.11       1.0  T
   7    -10.0989377 -0.228189E+00  0.337E+00    0.01       1.0  T
   8    -10.0853873  0.135504E-01  0.454E+00    0.11       1.0  T
   9    -10.1465737 -0.611865E-01  0.235E+00    0.02       1.0  T
  10    -10.0555196  0.910542E-01  0.510E+00    0.10       1.0  T
  11    -10.0419094  0.136102E-01  0.540E+00    0.12       1.0  T
  12    -10.0840024 -0.420930E-01  0.417E+00    0.07       1.0  T
  13    -10.0884791 -0.447672E-02  0.381E+00    0.07       1.0  T
  14    -10.1048160 -0.163369E-01  0.332E+00    0.05       1.0  T
  15    -10.1133723 -0.855636E-02  0.303E+00    0.05       1.0  T
  16    -10.1541867 -0.408144E-01  0.105E+00    0.00       1.0  T
  17    -10.1555007 -0.131404E-02  0.116E+00    0.02       1.0  T
  18    -10.1511998  0.430088E-02  0.168E+00    0.03       1.0  T
  19    -10.1580649 -0.686508E-02  0.486E-01    0.01       1.0  T
  20    -10.1580998 -0.348861E-04  0.408E-01    0.01       1.0  T
  21    -10.1583799 -0.280075E-03  0.620E-02    0.01       1.0  T
  22    -10.1583346  0.453005E-04  0.127E-01    0.01       1.0  T
  23    -10.1583015  0.330416E-04  0.147E-01    0.01       1.0  T
  24    -10.1583325 -0.310018E-04  0.124E-01    0.01       1.0  T
  25    -10.1583747 -0.421303E-04  0.555E-02    0.01       1.0  T
  26    -10.1583794 -0.474637E-05  0.395E-02    0.01       1.1  T
  27    -10.1583826 -0.317076E-05  0.260E-02    0.01       1.7  T
  28    -10.1583845 -0.187490E-05  0.116E-02    0.01       3.9  T
  29    -10.1583849 -0.392381E-06  0.466E-03    0.01       9.6  T
  30    -10.1583849 -0.584213E-07  0.217E-03    0.01      20.7  T
  31    -10.1583849 -0.153260E-07  0.471E-04    0.01      94.9  T
  32    -10.1583849  0.126105E-09  0.351E-04    0.01     127.4  T

   *** convergence criteria satisfied after 32 iterations ***

         #    Occupation            Energy/Eh            Energy/eV
      -------------------------------------------------------------
         1        2.0000           -0.7296443             -19.8546
       ...           ...                  ...                  ...
         4        2.0000           -0.6040487             -16.4370
         5        2.0000           -0.5536684             -15.0661
         6        2.0000           -0.5303603             -14.4318
         7        2.0000           -0.5128492             -13.9553
         8        2.0000           -0.4947027             -13.4615
         9        1.8776           -0.4289940             -11.6735
        10        1.1280           -0.4266443             -11.6096 (HOMO)
        11        0.9944           -0.4263892             -11.6026 (LUMO)
        12        0.0000           -0.4118863             -11.2080
        13                         -0.3777085             -10.2780
        14                         -0.3471813              -9.4473
        15                         -0.2817961              -7.6681
       ...                                ...                  ...
        20                          0.2687560               7.3132
      -------------------------------------------------------------
                  HL-Gap            0.0002551 Eh            0.0069 eV
             Fermi-level           -0.4263998 Eh          -11.6029 eV

 SCC (total)                   0 d,  0 h,  0 min,  0.006 sec
 SCC setup                      ...        0 min,  0.000 sec (  1.550%)
 Dispersion                     ...        0 min,  0.000 sec (  0.326%)
 integral evaluation            ...        0 min,  0.001 sec ( 21.518%)
 zeroth order Hamiltonian       ...        0 min,  0.000 sec (  0.359%)
 iterations                     ...        0 min,  0.003 sec ( 52.736%)
 molecular gradient             ...        0 min,  0.001 sec ( 22.003%)
 printout                       ...        0 min,  0.000 sec (  1.350%)

         :::::::::::::::::::::::::::::::::::::::::::::::::::::
         ::                     SUMMARY                     ::
         :::::::::::::::::::::::::::::::::::::::::::::::::::::
         :: total energy             -10.084195632889 Eh    ::
         :: gradient norm              0.263364352580 Eh/a0 ::
         :: HOMO-LUMO gap              0.006942569972 eV    ::
         ::.................................................::
         :: SCC energy               -10.158384935747 Eh    ::
         :: -> isotropic ES           -0.024879615951 Eh    ::
         :: -> anisotropic ES         -0.000428144354 Eh    ::
         :: -> anisotropic XC          0.007307610107 Eh    ::
         :: -> dispersion             -0.003086765967 Eh    ::
         :: repulsion energy           0.074189224423 Eh    ::
         :: add. restraining           0.000000000000 Eh    ::
         :::::::::::::::::::::::::::::::::::::::::::::::::::::

      ----------------------------------------------------------- 
     |                   =====================                   |
     |                        A N C O P T                        |
     |                   =====================                   |
     |               Approximate Normal Coordinate               |
     |                Rational Function Optimizer                |
      ----------------------------------------------------------- 

          ...................................................
          :                      SETUP                      :
          :.................................................:
          :   optimization level            normal          :
          :   max. optcycles                   200          :
          :   ANC micro-cycles                  20          :
          :   degrees of freedom                 9          :
          :.................................................:
          :   RF solver                   davidson          :
          :   write xtbopt.log                true          :
          :   linear?                        false          :
          :   energy convergence         0.5000000E-05 Eh   :
          :   grad. convergence          0.1000000E-02 Eh/α :
          :   maximium RF displ.         1.0000000          :
          :   Hlow (freq-cutoff)         0.1000000E-01      :
          :   Hmax (freq-cutoff)         5.0000000          :
          :   S6 in model hess.         20.0000000          :
          ...................................................

generating ANC from model Hessian ...
Using Lindh-Hessian (1995)
 Shifting diagonal of input Hessian by    0.0000000000000000     
 Lowest  eigenvalues of input Hessian
   -0.000000   -0.000000    0.000000    0.000000    0.000000    0.000000
    0.016457    0.062538    0.083337    0.215682    0.680202    0.821483
    0.888795    0.895070    1.057285
 Highest eigenvalues
    0.215682    0.680202    0.821483    0.888795    0.895070    1.057285


........................................................................
.............................. CYCLE    1 ..............................
........................................................................
   1    -10.1583849 -0.101584E+02  0.825E-05    0.01       0.0  T
   2    -10.1583849  0.342719E-08  0.777E-04    0.01      57.6  T
   3    -10.1583849 -0.323297E-08  0.183E-04    0.01     243.8  T
     SCC iter.                  ...        0 min,  0.000 sec
     gradient                   ...        0 min,  0.001 sec
 * total energy  :   -10.0841956 Eh     change        0.2470918E-08 Eh
   gradient norm :     0.2633679 Eh/α   predicted     0.0000000E+00 (-100.00%)
   displ. norm   :     0.4563586 α      lambda       -0.9457481E-01
   maximum displ.:     0.2784186 α      in ANC's #3, #5, #1, ...

........................................................................
.............................. CYCLE    2 ..............................
........................................................................
   1    -10.1781078 -0.101781E+02  0.508E+00    0.15       0.0  T
   2     -9.6345917  0.543516E+00  0.103E+01    0.50       1.0  T
   3    -10.2669679 -0.632376E+00  0.270E+00    0.04       1.0  T
   4    -10.2599916  0.697627E-02  0.188E+00    0.01       1.0  T
   5    -10.2613277 -0.133611E-02  0.159E+00    0.00       1.0  T
   6    -10.2766077 -0.152800E-01  0.712E-01    0.02       1.0  T
   7    -10.2783991 -0.179143E-02  0.217E-01    0.01       1.0  T
   8    -10.2782875  0.111626E-03  0.237E-01    0.01       1.0  T
   9    -10.2784203 -0.132814E-03  0.148E-01    0.01       1.0  T
  10    -10.2784956 -0.752973E-04  0.429E-02    0.01       1.0  T
  11    -10.2784735  0.220939E-04  0.885E-02    0.01       1.0  T
  12    -10.2784676  0.586034E-05  0.945E-02    0.00       1.0  T
  13    -10.2784858 -0.181122E-04  0.594E-02    0.00       1.0  T
  14    -10.2784974 -0.116227E-04  0.661E-03    0.01       6.8  T
  15    -10.2784975 -0.131987E-06  0.140E-03    0.01      32.0  T
  16    -10.2784975 -0.555665E-08  0.271E-04    0.01     164.9  T
  17    -10.2784975 -0.229800E-09  0.191E-05    0.01    2336.2  T
     SCC iter.                  ...        0 min,  0.002 sec
     gradient                   ...        0 min,  0.001 sec
 * total energy  :   -10.1599875 Eh     change       -0.7579186E-01 Eh
   gradient norm :     0.1502778 Eh/α   predicted    -0.5713563E-01 ( -24.62%)
   displ. norm   :     0.5081815 α      lambda       -0.6393495E-01
   maximum displ.:     0.2926314 α      in ANC's #5, #3, #7, ...

........................................................................
.............................. CYCLE    3 ..............................
........................................................................
   1    -10.3052033 -0.103052E+02  0.543E+00    0.18       0.0  T
   2     -8.7913937  0.151381E+01  0.125E+01    0.50       1.0  T
   3    -10.2411044 -0.144971E+01  0.721E+00    0.31       1.0  T
   4    -10.3878325 -0.146728E+00  0.287E+00    0.09       1.0  T
   5    -10.3996207 -0.117882E-01  0.249E+00    0.02       1.0  T
   6    -10.4150319 -0.154111E-01  0.742E-01    0.03       1.0  T
   7    -10.4178041 -0.277228E-02  0.209E-01    0.03       1.0  T
   8    -10.4178945 -0.903740E-04  0.143E-01    0.02       1.0  T
   9    -10.4176134  0.281143E-03  0.413E-01    0.02       1.0  T
  10    -10.4180187 -0.405335E-03  0.976E-02    0.02       1.0  T
  11    -10.4179327  0.860477E-04  0.207E-01    0.03       1.0  T
  12    -10.4180394 -0.106695E-03  0.559E-02    0.03       1.0  T
  13    -10.4180469 -0.752482E-05  0.174E-02    0.03       2.6  T
  14    -10.4180476 -0.721956E-06  0.656E-03    0.03       6.8  T
  15    -10.4180477 -0.949079E-07  0.547E-04    0.03      81.8  T
  16    -10.4180477  0.979938E-09  0.633E-04    0.03      70.7  T
     SCC iter.                  ...        0 min,  0.002 sec
     gradient                   ...        0 min,  0.001 sec
 * total energy  :   -10.1851148 Eh     change       -0.2512729E-01 Eh
   gradient norm :     0.1228473 Eh/α   predicted    -0.4022303E-01 (  60.08%)
   displ. norm   :     0.3535295 α      lambda       -0.2437038E-01
   maximum displ.:     0.3428936 α      in ANC's #3, #7, #1, ...

........................................................................
.............................. CYCLE    4 ..............................
........................................................................
   1    -10.3189471 -0.103189E+02  0.332E+00    0.16       0.0  T
   2    -10.0612448  0.257702E+00  0.809E+00    0.51       1.0  T
   3    -10.2979842 -0.236739E+00  0.302E+00    0.11       1.0  T
   4    -10.3513550 -0.533708E-01  0.102E+00    0.04       1.0  T
   5    -10.3563629 -0.500790E-02  0.369E-01    0.04       1.0  T
   6    -10.3517893  0.457363E-02  0.118E+00    0.01       1.0  T
   7    -10.3523522 -0.562939E-03  0.103E+00    0.02       1.0  T
   8    -10.3552516 -0.289937E-02  0.667E-01    0.05       1.0  T
   9    -10.3560788 -0.827181E-03  0.385E-01    0.05       1.0  T
  10    -10.3561862 -0.107379E-03  0.335E-01    0.05       1.0  T
  11    -10.3565180 -0.331822E-03  0.477E-02    0.04       1.0  T
  12    -10.3565188 -0.803054E-06  0.567E-02    0.04       1.0  T
  13    -10.3565277 -0.890641E-05  0.106E-02    0.04       4.2  T
  14    -10.3565280 -0.323515E-06  0.209E-03    0.04      21.4  T
  15    -10.3565280 -0.125126E-07  0.101E-04    0.04     441.9  T
  16    -10.3565280  0.782952E-09  0.538E-04    0.04      83.2  T
     SCC iter.                  ...        0 min,  0.001 sec
     gradient                   ...        0 min,  0.001 sec
 * total energy  :   -10.1937421 Eh     change       -0.8627366E-02 Eh
   gradient norm :     0.0565697 Eh/α   predicted    -0.1370813E-01 (  58.89%)
   displ. norm   :     0.1057035 α      lambda       -0.5179472E-02
   maximum displ.:     0.0626331 α      in ANC's #5, #3, #4, ...

........................................................................
.............................. CYCLE    5 ..............................
........................................................................
   1    -10.3657276 -0.103657E+02  0.196E+00    0.13       0.0  T
   2    -10.1680068  0.197721E+00  0.725E+00    0.25       1.0  T
   3    -10.3536873 -0.185680E+00  0.235E+00    0.18       1.0  T
   4    -10.3683951 -0.147079E-01  0.120E+00    0.10       1.0  T
   5    -10.3684053 -0.102017E-04  0.111E+00    0.09       1.0  T
   6    -10.3731704 -0.476510E-02  0.502E-01    0.08       1.0  T
   7    -10.3733051 -0.134665E-03  0.409E-01    0.08       1.0  T
   8    -10.3735865 -0.281389E-03  0.608E-02    0.07       1.0  T
   9    -10.3735892 -0.271237E-05  0.171E-02    0.07       2.6  T
  10    -10.3735867  0.250085E-05  0.264E-02    0.07       1.7  T
  11    -10.3735887 -0.204771E-05  0.142E-02    0.07       3.1  T
  12    -10.3735896 -0.861385E-06  0.226E-03    0.07      19.8  T
  13    -10.3735896 -0.144833E-07  0.802E-04    0.07      55.8  T
  14    -10.3735896 -0.225120E-08  0.156E-04    0.07     286.7  T
     SCC iter.                  ...        0 min,  0.001 sec
     gradient                   ...        0 min,  0.001 sec
 * total energy  :   -10.1975891 Eh     change       -0.3846991E-02 Eh
   gradient norm :     0.0436879 Eh/α   predicted    -0.2618671E-02 ( -31.93%)
   displ. norm   :     0.4852077 α      lambda       -0.1807912E-01
   maximum displ.:     0.4000977 α      in ANC's #4, #5, #1, ...

........................................................................
.............................. CYCLE    6 ..............................
........................................................................
   1    -10.4178770 -0.104179E+02  0.225E+00    1.11       0.0  T
   2    -10.3963954  0.214816E-01  0.216E+00    0.91       1.0  T
   3    -10.3703246  0.260708E-01  0.239E+00    1.11       1.0  T
   4    -10.4019387 -0.316142E-01  0.161E+00    1.18       1.0  T
   5    -10.4218486 -0.199099E-01  0.249E-01    1.03       1.0  T
   6    -10.4221586 -0.310019E-03  0.104E-01    1.05       1.0  T
   7    -10.4221619 -0.323517E-05  0.946E-02    1.05       1.0  T
   8    -10.4221688 -0.695787E-05  0.637E-03    1.05       7.0  T
   9    -10.4221689 -0.650657E-07  0.425E-03    1.05      10.5  T
  10    -10.4221689  0.426122E-08  0.309E-03    1.05      14.5  T
  11    -10.4221689 -0.432676E-07  0.376E-04    1.05     118.9  T
  12    -10.4221689 -0.910836E-09  0.656E-05    1.05     682.2  T
     SCC iter.                  ...        0 min,  0.001 sec
     gradient                   ...        0 min,  0.001 sec
 * total energy  :   -10.2139306 Eh     change       -0.1634149E-01 Eh
   gradient norm :     0.1161606 Eh/α   predicted    -0.1116773E-01 ( -31.66%)
   displ. norm   :     0.6860582 α      lambda       -0.2413197E-01
   maximum displ.:     0.5159442 α      in ANC's #4, #5, #1, ...

........................................................................
.............................. CYCLE    7 ..............................
........................................................................
   1    -10.3551495 -0.103551E+02  0.354E+00    1.69       0.0  T
   2    -10.1516776  0.203472E+00  0.498E+00    0.91       1.0  T
   3    -10.2899587 -0.138281E+00  0.339E+00    2.01       1.0  T
   4    -10.3639947 -0.740360E-01  0.114E+00    1.62       1.0  T
   5    -10.3682271 -0.423240E-02  0.726E-01    1.56       1.0  T
   6    -10.3699188 -0.169169E-02  0.404E-01    1.52       1.0  T
   7    -10.3708523 -0.933463E-03  0.126E-01    1.48       1.0  T
   8    -10.3709186 -0.663111E-04  0.141E-02    1.46       3.2  T
   9    -10.3709190 -0.367208E-06  0.477E-03    1.46       9.4  T
  10    -10.3709190 -0.229407E-07  0.252E-03    1.46      17.8  T
  11    -10.3709190 -0.422618E-07  0.111E-03    1.46      40.1  T
  12    -10.3709190 -0.268189E-09  0.247E-04    1.46     180.7  T
  13    -10.3709190 -0.125148E-09  0.131E-04    1.46     341.6  T
     SCC iter.                  ...        0 min,  0.001 sec
     gradient                   ...        0 min,  0.001 sec
 * total energy  :   -10.2121057 Eh     change        0.1824948E-02 Eh
   gradient norm :     0.1090836 Eh/α   predicted    -0.1774517E-01 (*******%)
   displ. norm   :     0.4287502 α      lambda       -0.2652434E-01
   maximum displ.:     0.3805001 α      in ANC's #1, #5, #4, ...

........................................................................
.............................. CYCLE    8 ..............................
........................................................................
   1    -10.4008164 -0.104008E+02  0.204E+00    1.81       0.0  T
   2    -10.3638099  0.370065E-01  0.240E+00    2.40       1.0  T
   3    -10.4005678 -0.367579E-01  0.138E+00    1.84       1.0  T
   4    -10.4061002 -0.553239E-02  0.845E-01    2.00       1.0  T
   5    -10.4101122 -0.401198E-02  0.113E-01    2.01       1.0  T
   6    -10.4101352 -0.230415E-04  0.306E-02    2.03       1.5  T
   7    -10.4101374 -0.217526E-05  0.108E-02    2.02       4.1  T
   8    -10.4101377 -0.334771E-06  0.489E-03    2.02       9.1  T
   9    -10.4101378 -0.433879E-07  0.993E-04    2.02      45.0  T
  10    -10.4101378 -0.600333E-08  0.410E-04    2.02     109.1  T
     SCC iter.                  ...        0 min,  0.001 sec
     gradient                   ...        0 min,  0.001 sec
 * total energy  :   -10.2231273 Eh     change       -0.1102158E-01 Eh
   gradient norm :     0.0638596 Eh/α   predicted    -0.1570011E-01 (  42.45%)
   displ. norm   :     0.3230007 α      lambda       -0.6891119E-02
   maximum displ.:     0.2121860 α      in ANC's #4, #1, #5, ...

........................................................................
.............................. CYCLE    9 ..............................
........................................................................
   1    -10.4252667 -0.104253E+02  0.186E+00    1.67       0.0  T
   2    -10.4120319  0.132349E-01  0.168E+00    1.56       1.0  T
   3    -10.4030560  0.897590E-02  0.183E+00    1.49       1.0  T
   4    -10.4205764 -0.175204E-01  0.120E+00    1.78       1.0  T
   5    -10.4292109 -0.863457E-02  0.132E-01    1.65       1.0  T
   6    -10.4292287 -0.177487E-04  0.986E-02    1.65       1.0  T
   7    -10.4292370 -0.830788E-05  0.649E-02    1.65       1.0  T
   8    -10.4292445 -0.753106E-05  0.514E-03    1.65       8.7  T
   9    -10.4292445 -0.216617E-07  0.592E-04    1.65      75.5  T
  10    -10.4292445  0.135433E-08  0.509E-04    1.65      87.9  T
     SCC iter.                  ...        0 min,  0.001 sec
     gradient                   ...        0 min,  0.001 sec
 * total energy  :   -10.2220267 Eh     change        0.1100583E-02 Eh
   gradient norm :     0.0550234 Eh/α   predicted    -0.3805033E-02 (-445.73%)
   displ. norm   :     0.1878518 α      lambda       -0.6186240E-02
   maximum displ.:     0.1300557 α      in ANC's #4, #1, #5, ...

........................................................................
.............................. CYCLE   10 ..............................
........................................................................
   1    -10.4176227 -0.104176E+02  0.113E+00    1.85       0.0  T
   2    -10.4154360  0.218673E-02  0.848E-01    1.79       1.0  T
   3    -10.4105991  0.483693E-02  0.104E+00    1.98       1.0  T
   4    -10.4158789 -0.527988E-02  0.588E-01    1.76       1.0  T
   5    -10.4184242 -0.254522E-02  0.549E-02    1.86       1.0  T
   6    -10.4184293 -0.514789E-05  0.354E-02    1.86       1.3  T
   7    -10.4184337 -0.433318E-05  0.115E-02    1.85       3.9  T
   8    -10.4184339 -0.198578E-06  0.232E-03    1.85      19.3  T
   9    -10.4184339 -0.222592E-08  0.109E-03    1.85      40.9  T
  10    -10.4184339 -0.914332E-08  0.905E-05    1.85     494.0  T
  11    -10.4184339 -0.995648E-11  0.523E-05    1.85     854.8  T
     SCC iter.                  ...        0 min,  0.001 sec
     gradient                   ...        0 min,  0.001 sec
 * total energy  :   -10.2258238 Eh     change       -0.3797123E-02 Eh
   gradient norm :     0.0247584 Eh/α   predicted    -0.3202272E-02 ( -15.67%)
   displ. norm   :     0.0756783 α      lambda       -0.1231432E-02
   maximum displ.:     0.0536249 α      in ANC's #1, #4, #5, ...

........................................................................
.............................. CYCLE   11 ..............................
........................................................................
   1    -10.4154997 -0.104155E+02  0.460E-01    1.90       0.0  T
   2    -10.4151211  0.378618E-03  0.384E-01    1.98       1.0  T
   3    -10.4147841  0.337028E-03  0.355E-01    1.88       1.0  T
   4    -10.4152925 -0.508409E-03  0.235E-01    1.96       1.0  T
   5    -10.4156615 -0.368999E-03  0.261E-02    1.93       1.7  T
   6    -10.4156653 -0.379016E-05  0.112E-02    1.94       4.0  T
   7    -10.4156656 -0.364340E-06  0.176E-03    1.94      25.4  T
   8    -10.4156656 -0.111234E-07  0.606E-04    1.94      73.8  T
   9    -10.4156656 -0.673630E-09  0.150E-04    1.94     297.9  T
     SCC iter.                  ...        0 min,  0.001 sec
     gradient                   ...        0 min,  0.001 sec
 * total energy  :   -10.2267562 Eh     change       -0.9323666E-03 Eh
   gradient norm :     0.0175258 Eh/α   predicted    -0.6192402E-03 ( -33.58%)
   displ. norm   :     0.1256438 α      lambda       -0.1583688E-02
   maximum displ.:     0.1010278 α      in ANC's #5, #1, #7, ...

........................................................................
.............................. CYCLE   12 ..............................
........................................................................
   1    -10.4123524 -0.104124E+02  0.534E-01    1.95       0.0  T
   2    -10.4107243  0.162809E-02  0.613E-01    2.09       1.0  T
   3    -10.4124775 -0.175321E-02  0.314E-01    1.97       1.0  T
   4    -10.4127026 -0.225103E-03  0.152E-01    2.00       1.0  T
   5    -10.4127927 -0.900936E-04  0.372E-02    2.00       1.2  T
   6    -10.4128010 -0.827413E-05  0.102E-02    2.00       4.4  T
   7    -10.4128011 -0.613081E-07  0.121E-03    2.00      37.0  T
   8    -10.4128011 -0.120823E-08  0.523E-04    2.00      85.5  T
   9    -10.4128011  0.141014E-08  0.516E-04    2.00      86.6  T
     SCC iter.                  ...        0 min,  0.001 sec
     gradient                   ...        0 min,  0.001 sec
 * total energy  :   -10.2277630 Eh     change       -0.1006817E-02 Eh
   gradient norm :     0.0109629 Eh/α   predicted    -0.8043462E-03 ( -20.11%)
   displ. norm   :     0.0608096 α      lambda       -0.3861643E-03
   maximum displ.:     0.0537159 α      in ANC's #5, #3, #7, ...

........................................................................
.............................. CYCLE   13 ..............................
........................................................................
   1    -10.4144000 -0.104144E+02  0.237E-01    1.98       0.0  T
   2    -10.4137743  0.625643E-03  0.341E-01    2.05       1.0  T
   3    -10.4145356 -0.761304E-03  0.123E-01    2.00       1.0  T
   4    -10.4145328  0.283880E-05  0.477E-02    2.00       1.0  T
   5    -10.4145442 -0.114384E-04  0.161E-02    2.00       2.8  T
   6    -10.4145455 -0.128146E-05  0.585E-03    2.00       7.7  T
   7    -10.4145456 -0.110065E-06  0.991E-04    2.00      45.1  T
   8    -10.4145456 -0.266877E-08  0.322E-04    2.00     138.8  T
     SCC iter.                  ...        0 min,  0.001 sec
     gradient                   ...        0 min,  0.001 sec
 * total energy  :   -10.2279947 Eh     change       -0.2317096E-03 Eh
   gradient norm :     0.0071684 Eh/α   predicted    -0.1937954E-03 ( -16.36%)
   displ. norm   :     0.0179125 α      lambda       -0.6483782E-04
   maximum displ.:     0.0101250 α      in ANC's #3, #5, #1, ...

........................................................................
.............................. CYCLE   14 ..............................
........................................................................
   1    -10.4167444 -0.104167E+02  0.101E-01    1.99       0.0  T
   2    -10.4165890  0.155360E-03  0.155E-01    2.03       1.0  T
   3    -10.4167728 -0.183775E-03  0.490E-02    2.00       1.0  T
   4    -10.4167770 -0.419304E-05  0.133E-02    2.00       3.4  T
   5    -10.4167778 -0.820776E-06  0.517E-03    2.00       8.6  T
   6    -10.4167779 -0.921808E-07  0.330E-03    2.00      13.6  T
   7    -10.4167779 -0.371719E-07  0.910E-04    2.00      49.1  T
   8    -10.4167779 -0.573879E-09  0.756E-04    2.00      59.1  T
     SCC iter.                  ...        0 min,  0.001 sec
     gradient                   ...        0 min,  0.001 sec
 * total energy  :   -10.2280351 Eh     change       -0.4042356E-04 Eh
   gradient norm :     0.0028325 Eh/α   predicted    -0.3242771E-04 ( -19.78%)
   displ. norm   :     0.0080104 α      lambda       -0.1203265E-04
   maximum displ.:     0.0057088 α      in ANC's #1, #9, #4, ...

........................................................................
.............................. CYCLE   15 ..............................
........................................................................
   1    -10.4172711 -0.104173E+02  0.456E-02    1.99       0.0  T
   2    -10.4172520  0.190141E-04  0.543E-02    2.01       1.0  T
   3    -10.4172710 -0.189763E-04  0.310E-02    2.00       1.4  T
   4    -10.4172751 -0.407102E-05  0.119E-02    2.00       3.8  T
   5    -10.4172756 -0.484840E-06  0.355E-03    2.00      12.6  T
   6    -10.4172756 -0.702344E-07  0.180E-03    2.00      24.8  T
   7    -10.4172757 -0.123409E-07  0.181E-04    2.00     247.6  T
   8    -10.4172757 -0.102585E-09  0.621E-05    2.00     719.8  T
     SCC iter.                  ...        0 min,  0.001 sec
     gradient                   ...        0 min,  0.001 sec
 * total energy  :   -10.2280426 Eh     change       -0.7500542E-05 Eh
   gradient norm :     0.0009092 Eh/α   predicted    -0.6017373E-05 ( -19.77%)
   displ. norm   :     0.0081933 α      lambda       -0.2848367E-05
   maximum displ.:     0.0057347 α      in ANC's #1, #4, #9, ...

........................................................................
.............................. CYCLE   16 ..............................
........................................................................
   1    -10.4172029 -0.104172E+02  0.398E-02    2.00       0.0  T
   2    -10.4172006  0.235844E-05  0.286E-02    2.00       1.6  T
   3    -10.4171964  0.413097E-05  0.348E-02    1.99       1.3  T
   4    -10.4172028 -0.639523E-05  0.146E-02    2.00       3.1  T
   5    -10.4172040 -0.115828E-05  0.242E-03    2.00      18.5  T
   6    -10.4172040 -0.376285E-07  0.974E-04    2.00      45.9  T
   7    -10.4172040 -0.202825E-08  0.221E-04    2.00     202.5  T
     SCC iter.                  ...        0 min,  0.001 sec
     gradient                   ...        0 min,  0.001 sec
 * total energy  :   -10.2280447 Eh     change       -0.2044289E-05 Eh
   gradient norm :     0.0007361 Eh/α   predicted    -0.1423066E-05 ( -30.39%)
   displ. norm   :     0.0018156 α      lambda       -0.4328910E-06
   maximum displ.:     0.0015966 α      in ANC's #3, #5, #1, ...

   *** GEOMETRY OPTIMIZATION CONVERGED AFTER 16 ITERATIONS ***

------------------------------------------------------------------------
 total energy gain   :        -0.1438490 Eh      -90.2666 kcal/mol
 total RMSD          :         0.6352608 a0        0.3362 Å
 total power (kW/mol):       -23.6047226 (step)-6168.7758 (real)
------------------------------------------------------------------------

 ANCopt (total)                0 d,  0 h,  0 min,  0.061 sec
 optimizer setup                ...        0 min,  0.000 sec (  0.129%)
 model hessian                  ...        0 min,  0.000 sec (  0.152%)
 ANC generation                 ...        0 min,  0.000 sec (  0.083%)
 coordinate transformation      ...        0 min,  0.000 sec (  0.055%)
 single point calculation       ...        0 min,  0.060 sec ( 97.580%)
 optimization log               ...        0 min,  0.000 sec (  0.633%)
 hessian update                 ...        0 min,  0.000 sec (  0.057%)
 rational function              ...        0 min,  0.000 sec (  0.542%)

================
 final structure:
================
5
 xtb: 6.2.2 (9d81278992624c895f80dd42a50cac0aa55982e2)
C        -0.56345663201051    1.05748062039325    0.28962348894027
C         0.52109697244337   -0.00328986489768   -0.05402530279400
C        -0.58348357393524   -1.06223381909744    0.22549653062349
C         1.78713634457952   -0.01277279084390   -0.13564087382069
C        -1.16129311107714    0.02081585444577   -0.32545484294907

 Bond Distances (Angstroems)
 ---------------------------
C1-C2=1.5555         C1-C5=1.3455         C2-C1=1.5555         C2-C3=1.5555         C2-C4=1.2687         C2-C5=1.7043         
C3-C2=1.5555         C3-C5=1.3455         C4-C2=1.2687         C5-C1=1.3455         C5-C2=1.7043         C5-C3=1.3455         
 C  C  Rav=1.4625 sigma=0.1531  Rmin=1.2687  Rmax=1.7043     6

 selected bond angles (degree)
 --------------------
C5-C1-C2= 71.54                C3-C2-C1= 85.95                C4-C2-C1=135.65                C4-C2-C3=135.65                
C5-C2-C1= 48.49                C5-C2-C3= 48.49                C5-C2-C4=167.14                C5-C3-C2= 71.54                
C2-C5-C1= 59.97                C3-C5-C1=104.02                C3-C5-C2= 59.97                

 selected dihedral angles (degree)
 ---------------------------------
C3-C2-C1-C5=325.55            C4-C2-C1-C5=163.15            C5-C3-C2-C1= 34.45            C5-C3-C2-C4=196.85            
C3-C5-C1-C2= 42.25            C1-C5-C2-C3=131.10            C1-C5-C2-C4=245.55            C3-C5-C2-C1=228.90            
C3-C5-C2-C4=114.45            C1-C5-C3-C2=317.75            
           -------------------------------------------------
          |                Final Singlepoint                |
           -------------------------------------------------

          ...................................................
          :                      SETUP                      :
          :.................................................:
          :  # basis functions                  20          :
          :  # atomic orbitals                  20          :
          :  # shells                           10          :
          :  # electrons                        20          :
          :  max. iterations                   250          :
          :  Hamiltonian                  GFN2-xTB          :
          :  restarted?                      false          :
          :  GBSA solvation                  false          :
          :  PC potential                    false          :
          :  electronic temp.          300.0000000     K    :
          :  accuracy                    1.0000000          :
          :  -> integral cutoff          0.2500000E+02      :
          :  -> integral neglect         0.1000000E-07      :
          :  -> SCF convergence          0.1000000E-05 Eh   :
          :  -> wf. convergence          0.1000000E-03 e    :
          :  Broyden damping             0.4000000          :
          ...................................................

 iter      E             dE          RMSdq      gap      omega  full diag
   1    -10.4172040 -0.104172E+02  0.100E-04    2.00       0.0  T
   2    -10.4172040  0.100682E-09  0.113E-04    2.00     394.1  T
   3    -10.4172040 -0.972236E-10  0.748E-05    2.00     597.6  T

   *** convergence criteria satisfied after 3 iterations ***

         #    Occupation            Energy/Eh            Energy/eV
      -------------------------------------------------------------
         1        2.0000           -0.7519575             -20.4618
       ...           ...                  ...                  ...
         4        2.0000           -0.5929036             -16.1337
         5        2.0000           -0.5729835             -15.5917
         6        2.0000           -0.5451625             -14.8346
         7        2.0000           -0.4969493             -13.5227
         8        2.0000           -0.4725147             -12.8578
         9        2.0000           -0.4676961             -12.7267
        10        2.0000           -0.4535588             -12.3420 (HOMO)
        11                         -0.3801253             -10.3437 (LUMO)
        12                         -0.3579386              -9.7400
        13                         -0.3550448              -9.6613
        14                         -0.2609430              -7.1006
        15                         -0.2159513              -5.8763
       ...                                ...                  ...
        20                          0.7356304              20.0175
      -------------------------------------------------------------
                  HL-Gap            0.0734335 Eh            1.9982 eV
             Fermi-level           -0.4168421 Eh          -11.3429 eV

 SCC (total)                   0 d,  0 h,  0 min,  0.003 sec
 SCC setup                      ...        0 min,  0.000 sec (  2.081%)
 Dispersion                     ...        0 min,  0.000 sec (  0.286%)
 integral evaluation            ...        0 min,  0.001 sec ( 40.622%)
 zeroth order Hamiltonian       ...        0 min,  0.000 sec (  0.473%)
 iterations                     ...        0 min,  0.000 sec ( 11.940%)
 molecular gradient             ...        0 min,  0.001 sec ( 42.801%)
 printout                       ...        0 min,  0.000 sec (  1.503%)

         :::::::::::::::::::::::::::::::::::::::::::::::::::::
         ::                     SUMMARY                     ::
         :::::::::::::::::::::::::::::::::::::::::::::::::::::
         :: total energy             -10.228044657687 Eh    ::
         :: gradient norm              0.000751759760 Eh/a0 ::
         :: HOMO-LUMO gap              1.998227451459 eV    ::
         ::.................................................::
         :: SCC energy               -10.417204021556 Eh    ::
         :: -> isotropic ES           -0.019729546451 Eh    ::
         :: -> anisotropic ES          0.001214734801 Eh    ::
         :: -> anisotropic XC          0.009528648252 Eh    ::
         :: -> dispersion             -0.002878146722 Eh    ::
         :: repulsion energy           0.189159290787 Eh    ::
         :: add. restraining           0.000000000000 Eh    ::
         :::::::::::::::::::::::::::::::::::::::::::::::::::::

           ------------------------------------------------- 
          |                Numerical Hessian                |
           ------------------------------------------------- 
step length          :   0.00500
SCC accuracy         :   0.30000
Hessian scale factor :   1.00000
frozen atoms in %    :   0.00000    0
RMS gradient         :   0.00075
estimated CPU  time      0.00 min
estimated wall time      0.00 min

writing file <hessian>.

 projected vibrational frequencies (cm-1)
eigval :       -0.00    -0.00    -0.00    -0.00    -0.00     0.00
eigval :      235.23   317.90   404.63   519.62   612.05   722.44
eigval :     1428.97  1474.34  1774.01
           -------------------------------------------------
          |                Property Printout                |
           -------------------------------------------------

    * Orbital Energies and Occupations

         #    Occupation            Energy/Eh            Energy/eV
      -------------------------------------------------------------
         1        2.0000           -0.7519577             -20.4618
         2        2.0000           -0.6912479             -18.8098
         3        2.0000           -0.6643612             -18.0782
         4        2.0000           -0.5929037             -16.1337
         5        2.0000           -0.5729837             -15.5917
         6        2.0000           -0.5451625             -14.8346
         7        2.0000           -0.4969494             -13.5227
         8        2.0000           -0.4725147             -12.8578
         9        2.0000           -0.4676960             -12.7267
        10        2.0000           -0.4535589             -12.3420 (HOMO)
        11                         -0.3801252             -10.3437 (LUMO)
        12                         -0.3579387              -9.7400
        13                         -0.3550447              -9.6613
        14                         -0.2609432              -7.1006
        15                         -0.2159513              -5.8763
        16                         -0.0102133              -0.2779
        17                         -0.0034810              -0.0947
        18                          0.3535761               9.6213
        19                          0.4809222              13.0866
        20                          0.7356306              20.0175
      -------------------------------------------------------------
                  HL-Gap            0.0734336 Eh            1.9982 eV
             Fermi-level           -0.4168421 Eh          -11.3428 eV

     #   Z        covCN         q      C6AA      α(0)
     1   6 C      2.209    -0.070    32.254     9.192
     2   6 C      3.848     0.148    18.177     6.064
     3   6 C      2.209    -0.070    32.254     9.192
     4   6 C      0.982    -0.106    39.301    10.530
     5   6 C      2.885     0.097    25.842     8.334

 Mol. C6AA /au·bohr⁶  :        726.249086
 Mol. C8AA /au·bohr⁸  :      21004.385614
 Mol. α(0) /au        :         43.312129


Wiberg/Mayer (AO) data.
largest (>0.10) Wiberg bond orders for each atom
          total WBO             WBO to atom ...
     1  C   2.923        C    5 1.519    C    2 0.713    C    3 0.502    C    4 0.189
     2  C   3.896        C    4 2.083    C    1 0.713    C    3 0.713    C    5 0.386
     3  C   2.923        C    5 1.519    C    2 0.713    C    1 0.502    C    4 0.189
     4  C   2.730        C    2 2.083    C    5 0.268    C    1 0.189    C    3 0.189
     5  C   3.692        C    1 1.519    C    3 1.519    C    2 0.386    C    4 0.268

MOs/occ written to file <molden.input>


molecular dipole:
                 x           y           z       tot (Debye)
 q only:       -0.275       0.006      -0.115
   full:       -0.741       0.020      -0.439       2.188
Molecule has the following symmetry elements: (sigma) 
It seems to be the Cs point group
molecular quadrupole (traceless):
                xx          xy          yy          xz          yz          zz
 q only:       -0.480      -0.010      -0.177       0.422      -0.029       0.657
  q+dip:       -1.028      -0.038      -1.106       1.242      -0.110       2.135
   full:       -2.260      -0.012      -1.094       0.761      -0.142       3.354

           -------------------------------------------------
          |                Geometry Summary                 |
           -------------------------------------------------

      molecular mass/u    :       60.0536795
   center of mass at/Å    :       -0.0000000      -0.0000000      -0.0000002
  moments of inertia/u·Å² :        0.3005358E+02   0.6884874E+02   0.9281588E+02
rotational constants/cm⁻¹ :        0.5609193E+00   0.2448503E+00   0.1816244E+00

 * 3 selected distances

     #   Z        #   Z                                     value/Å
     2   6 C      4   6 C                                 1.2687028 (min)
     1   6 C      5   6 C                                 1.3455124
     3   6 C      5   6 C                                 1.3455140 (max)

 * 1 distinct bonds (by element types)

   Z      Z             #   av. dist./Å        max./Å        min./Å
   6 C    6 C           3     1.3199097     1.3455140     1.2687028

           -------------------------------------------------
          |               Frequency Printout                |
           -------------------------------------------------
 projected vibrational frequencies (cm-1)
eigval :       -0.00    -0.00    -0.00    -0.00    -0.00     0.00
eigval :      235.23   317.90   404.63   519.62   612.05   722.44
eigval :     1428.97  1474.34  1774.01
 reduced masses (amu)
   1: 12.01   2: 12.01   3: 12.01   4: 12.01   5: 12.01   6: 12.01   7: 12.01   8: 12.01
   9: 12.01  10: 12.01  11: 12.01  12: 12.01  13: 12.01  14: 12.01  15: 12.01
 IR intensities (amu)
   1:  0.20   2:  0.17   3:  0.06   4:  0.14   5:  0.05   6:  0.07   7:  0.35   8:  0.14
   9:  0.34  10:  0.18  11:  0.03  12:  0.54  13:  0.75  14:  0.54  15:  0.22
 Raman intensities (amu)
   1:  0.00   2:  0.00   3:  0.00   4:  0.00   5:  0.00   6:  0.00   7:  0.00   8:  0.00
   9:  0.00  10:  0.00  11:  0.00  12:  0.00  13:  0.00  14:  0.00  15:  0.00
 output can be read by thermo (or use thermo option).
 writing <g98.out> molden fake output.
 recommended (thermochemical) frequency scaling factor: 1.0
           -------------------------------------------------
          |             Thermodynamic Functions             |
           -------------------------------------------------

cs  symmetry found (for desy threshold:  0.10E+00) used in thermo

          ...................................................
          :                      SETUP                      :
          :.................................................:
          :  # frequencies                           9      :
          :  # imaginary freq.                       0      :
          :  linear?                             false      :
          :  only rotor calc.                    false      :
          :  symmetry                               cs      :
          :  rotational number                       1      :
          :  scaling factor                  1.0000000      :
          :  rotor cutoff                   50.0000000 cm⁻¹ :
          :  imag. cutoff                  -20.0000000 cm⁻¹ :
          :.................................................:

    mode    ω/cm⁻¹     T·S(HO)/kcal·mol⁻¹    T·S(FR)/kcal·mol⁻¹   T·S(vib)
   ------------------------------------------------------------------------
       1    235.23    -0.00000 ( 99.80%)     0.01369 (  0.20%)     0.00003
   ------------------------------------------------------------------------

   temp. (K)  partition function   enthalpy   heat capacity  entropy
                                   cal/mol     cal/K/mol   cal/K/mol   J/K/mol
 298.15  VIB   2.60                 1061.578      8.092      5.460
         ROT  0.335E+05              888.752      2.981     23.685
         INT  0.870E+05             1950.330     11.073     29.145
         TR   0.450E+27             1481.254      4.968     38.181
         TOT                        3431.5842    16.0410    67.3258   281.6911

   temp. (K)  partition function   enthalpy   heat capacity  entropy
                                   cal/mol     cal/K/mol   cal/K/mol   J/K/mol
 120.00  VIB   1.10                   76.710      2.352      0.829
         ROT  0.855E+04              357.707      2.981     20.972
         INT  0.939E+04              434.417      5.333     21.801
         TR   0.115E+27              596.178      4.968     33.661
         TOT                        1030.5947    10.3011    55.4625   232.0551

   temp. (K)  partition function   enthalpy   heat capacity  entropy
                                   cal/mol     cal/K/mol   cal/K/mol   J/K/mol
 100.00  VIB   1.05                   37.678      1.558      0.475
         ROT  0.650E+04              298.089      2.981     20.429
         INT  0.683E+04              335.767      4.539     20.904
         TR   0.875E+26              496.815      4.968     32.756
         TOT                         832.5824     9.5070    53.6599   224.5131

   temp. (K)  partition function   enthalpy   heat capacity  entropy
                                   cal/mol     cal/K/mol   cal/K/mol   J/K/mol
  80.00  VIB   1.02                   13.889      0.840      0.212
         ROT  0.465E+04              238.471      2.981     19.764
         INT  0.474E+04              252.360      3.821     19.976
         TR   0.626E+26              397.452      4.968     31.648
         TOT                         649.8120     8.7895    51.6239   215.9945

   temp. (K)  partition function   enthalpy   heat capacity  entropy
                                   cal/mol     cal/K/mol   cal/K/mol   J/K/mol
  60.00  VIB   1.00                    2.918      0.295      0.058
         ROT  0.302E+04              178.853      2.981     18.906
         INT  0.303E+04              181.772      3.276     18.964
         TR   0.406E+26              298.089      4.968     30.219
         TOT                         479.8606     8.2445    49.1832   205.7823

   temp. (K)  partition function   enthalpy   heat capacity  entropy
                                   cal/mol     cal/K/mol   cal/K/mol   J/K/mol
  40.00  VIB   1.00                    0.153      0.033      0.004
         ROT  0.165E+04              119.236      2.981     17.698
         INT  0.165E+04              119.388      3.014     17.701
         TR   0.221E+26              198.726      4.968     28.206
         TOT                         318.1143     7.9822    45.9074   192.0766

   temp. (K)  partition function   enthalpy   heat capacity  entropy
                                   cal/mol     cal/K/mol   cal/K/mol   J/K/mol
  20.00  VIB   1.00                    0.000      0.000     -0.003
         ROT   582.                   59.618      2.981     15.631
         INT   582.                   59.618      2.981     15.629
         TR   0.782E+25               99.363      4.968     24.764
         TOT                         158.9808     7.9491    40.3929   169.0038

   temp. (K)  partition function   enthalpy   heat capacity  entropy
                                   cal/mol     cal/K/mol   cal/K/mol   J/K/mol
  10.00  VIB   1.00                    0.000      0.000     -0.005
         ROT   206.                   29.809      2.981     13.565
         INT   206.                   29.809      2.981     13.561
         TR   0.277E+25               49.681      4.968     21.322
         TOT                          79.4904     7.9490    34.8826   145.9489

       T/K    H(0)-H(T)+PV         H(T)/Eh          T*S/Eh         G(T)/Eh
   ------------------------------------------------------------------------
    298.15    0.546858E-02    0.225302E-01    0.319887E-01   -0.945842E-02
    120.00    0.164236E-02    0.187040E-01    0.106062E-01    0.809780E-02
    100.00    0.132680E-02    0.183885E-01    0.855125E-02    0.983721E-02
     80.00    0.103554E-02    0.180972E-01    0.658144E-02    0.115158E-01
     60.00    0.764707E-03    0.178264E-01    0.470270E-02    0.131237E-01
     40.00    0.506947E-03    0.175686E-01    0.292632E-02    0.146423E-01
     20.00    0.253352E-03    0.173150E-01    0.128740E-02    0.160276E-01
     10.00    0.126676E-03    0.171883E-01    0.555890E-03    0.166324E-01 (used)
   ------------------------------------------------------------------------

         :::::::::::::::::::::::::::::::::::::::::::::::::::::
         ::                  THERMODYNAMIC                  ::
         :::::::::::::::::::::::::::::::::::::::::::::::::::::
         :: total free energy         -10.211412215919 Eh   ::
         ::.................................................::
         :: total energy              -10.228044658150 Eh   ::
         :: zero point energy           0.017061656112 Eh   ::
         :: G(RRHO) w/o ZPVE           -0.000429213880 Eh   ::
         :: G(RRHO) contrib.            0.016632442232 Eh   ::
         :::::::::::::::::::::::::::::::::::::::::::::::::::::

optimized geometry written to: xtbopt.xyz


           -------------------------------------------------
          | TOTAL ENERGY              -10.228044658150 Eh   |
          | TOTAL ENTHALPY            -10.210856326023 Eh   |
          | TOTAL FREE ENERGY         -10.211412215919 Eh   |
          | GRADIENT NORM               0.000751707081 Eh/α |
          | HOMO-LUMO GAP               1.998231021546 eV   |
           -------------------------------------------------

------------------------------------------------------------------------
 * finished run on 2020/05/12 at 11:44:33.397     
------------------------------------------------------------------------
 total:
 * wall-time:     0 d,  0 h,  0 min,  0.194 sec
 *  cpu-time:     0 d,  0 h,  0 min,  0.194 sec
 * ratio c/w:     0.999 speedup
 SCF:
 * wall-time:     0 d,  0 h,  0 min,  0.007 sec
 *  cpu-time:     0 d,  0 h,  0 min,  0.007 sec
 * ratio c/w:     0.999 speedup
 ANC optimizer:
 * wall-time:     0 d,  0 h,  0 min,  0.065 sec
 *  cpu-time:     0 d,  0 h,  0 min,  0.065 sec
 * ratio c/w:     1.000 speedup
 numerical hessian:
 * wall-time:     0 d,  0 h,  0 min,  0.107 sec
 *  cpu-time:     0 d,  0 h,  0 min,  0.107 sec
 * ratio c/w:     0.998 speedup

