      -----------------------------------------------------------      
     |                   =====================                   |     
     |                           x T B                           |     
     |                   =====================                   |     
     |                         S. Grimme                         |     
     |          Mulliken Center for Theoretical Chemistry        |     
     |                    University of Bonn                     |     
      -----------------------------------------------------------      

   * xtb version 6.2.2 (9d81278992624c895f80dd42a50cac0aa55982e2) compiled by '@Darwin' on 04/03/2020

   xtb is free software: you can redistribute it and/or modify it under
   the terms of the GNU Lesser General Public License as published by
   the Free Software Foundation, either version 3 of the License, or
   (at your option) any later version.
   
   xtb is distributed in the hope that it will be useful,
   but WITHOUT ANY WARRANTY; without even the implied warranty of
   MERCHANTABILITY or FITNESS FOR A PARTICULAR PURPOSE.  See the
   GNU Lesser General Public License for more details.
   
   Cite this work as:
   * S. Grimme, C. Bannwarth, P. Shushkov, J. Chem. Theory Comput., 2017,
     13, 1989-2009. DOI: 10.1021/acs.jctc.7b00118
   * C. Bannwarth, S. Ehlert and S. Grimme., J. Chem. Theory Comput., 2019,
     15, 1652-1671. DOI: 10.1021/acs.jctc.8b01176
   * P. Pracht, E. Caldeweyher, S. Ehlert, S. Grimme, ChemRxiv, 2019, preprint.
     DOI: 10.26434/chemrxiv.8326202.v1
   
   for DFT-D4:
   * E. Caldeweyher, C. Bannwarth and S. Grimme, J. Chem. Phys., 2017,
     147, 034112. DOI: 10.1063/1.4993215
   * E. Caldeweyher, S. Ehlert, A. Hansen, H. Neugebauer, S. Spicher,
     C. Bannwarth and S. Grimme, J. Chem. Phys., 2019, 150, 154122.
     DOI: 10.1063/1.5090222
   
   for sTDA-xTB:
   * S. Grimme and C. Bannwarth, J. Chem. Phys., 2016, 145, 054103.
     DOI: 10.1063/1.4959605
   
   in the mass-spec context:
   * V. Asgeirsson, C. Bauer and S. Grimme, Chem. Sci., 2017, 8, 4879.
     DOI: 10.1039/c7sc00601b
   
   for metadynamics refer to:
   * S. Grimme, J. Chem. Theory Comput., 2019, 155, 2847-2862
     DOI: 10.1021/acs.jctc.9b00143
   
   with help from (in alphabetical order)
   C. Bannwarth, F. Bohle, G. Brandenburg, E. Caldeweyher, M. Checinski,
   S. Dohm, S. Ehlert, S. Ehrlich, F. März, H. Neugebauer, J. Pisarek,
   P. Pracht, P. Shushkov, and S. Spicher.
   
 * started run on 2020/05/12 at 11:44:09.356     

           -------------------------------------------------
          |                Calculation Setup                |
           -------------------------------------------------

          program call               : xtb --input C4N1_26_S_1.input C4N1_26_S_1.xyz --ohess --molden --namespace C4N1_26_S_1 output.out
          calculation namespace      : C4N1_26_S_1
          coordinate file            : C4N1_26_S_1.xyz
          number of atoms            :                     5
          number of electrons        :                    21
          charge                     :                     0
          spin                       :                   0.5
          first test random number   :      0.04778140397125

   ID    Z sym.   atoms
    1    6 C      1-3, 5
    2    7 N      4

           -------------------------------------------------
          |                 G F N 2 - x T B                 |
           -------------------------------------------------

        Reference                      10.1021/acs.jctc.8b01176
      * Hamiltonian:
        H0-scaling (s, p, d)           1.850000    2.230000    2.230000
        zeta-weighting                 0.500000
      * Dispersion:
        s8                             2.700000
        a1                             0.520000
        a2                             5.000000
        s9                             5.000000
      * Repulsion:
        kExp                           1.500000    1.000000
        rExp                           1.000000
      * Coulomb:
        alpha                          2.000000
        third order                    shell-resolved
        anisotropic                    true
        a3                             3.000000
        a5                             4.000000
        cn-shift                       1.200000
        cn-exp                         4.000000
        max-rad                        5.000000


          ...................................................
          :                      SETUP                      :
          :.................................................:
          :  # basis functions                  20          :
          :  # atomic orbitals                  20          :
          :  # shells                           10          :
          :  # electrons                        21          :
          :  max. iterations                   250          :
          :  Hamiltonian                  GFN2-xTB          :
          :  restarted?                      false          :
          :  GBSA solvation                  false          :
          :  PC potential                    false          :
          :  electronic temp.          300.0000000     K    :
          :  accuracy                    1.0000000          :
          :  -> integral cutoff          0.2500000E+02      :
          :  -> integral neglect         0.1000000E-07      :
          :  -> SCF convergence          0.1000000E-05 Eh   :
          :  -> wf. convergence          0.1000000E-03 e    :
          :  Broyden damping             0.4000000          :
          ...................................................

 iter      E             dE          RMSdq      gap      omega  full diag
   1    -10.7237303 -0.107237E+02  0.121E+01    0.79       0.0  T
   2     -8.1087980  0.261493E+01  0.178E+01    0.54       1.0  T
   3     -9.4382597 -0.132946E+01  0.117E+01    1.02       1.0  T
   4    -10.8489895 -0.141073E+01  0.743E+00    0.21       1.0  T
   5    -10.9910463 -0.142057E+00  0.424E+00    0.47       1.0  T
   6    -11.0035206 -0.124743E-01  0.267E+00    0.43       1.0  T
   7    -10.9790634  0.244573E-01  0.330E+00    0.51       1.0  T
   8    -10.9943001 -0.152367E-01  0.254E+00    0.52       1.0  T
   9    -11.0045584 -0.102582E-01  0.146E+00    0.48       1.0  T
  10    -11.0083065 -0.374815E-02  0.389E-01    0.46       1.0  T
  11    -11.0073450  0.961513E-03  0.518E-01    0.48       1.0  T
  12    -11.0086694 -0.132439E-02  0.525E-02    0.47       1.0  T
  13    -11.0086324  0.369732E-04  0.748E-02    0.47       1.0  T
  14    -11.0086764 -0.440412E-04  0.570E-03    0.47       7.8  T
  15    -11.0086763  0.165418E-06  0.585E-03    0.47       7.6  T
  16    -11.0086765 -0.244608E-06  0.256E-03    0.47      17.5  T
  17    -11.0086766 -0.375049E-07  0.596E-04    0.47      75.1  T
  18    -11.0086766 -0.188139E-08  0.139E-04    0.47     320.6  T

   *** convergence criteria satisfied after 18 iterations ***

         #    Occupation            Energy/Eh            Energy/eV
      -------------------------------------------------------------
         1        2.0000           -0.7679680             -20.8975
       ...           ...                  ...                  ...
         5        2.0000           -0.5659725             -15.4009
         6        2.0000           -0.5516029             -15.0099
         7        2.0000           -0.5331945             -14.5090
         8        2.0000           -0.5115968             -13.9213
         9        2.0000           -0.4937244             -13.4349
        10        1.9950           -0.4480417             -12.1918
        11        1.0049           -0.4379946             -11.9184 (HOMO)
        12        0.0001           -0.4207635             -11.4496 (LUMO)
        13                         -0.4128344             -11.2338
        14                         -0.3439792              -9.3601
        15                         -0.2817538              -7.6669
        16                         -0.0278281              -0.7572
       ...                                ...                  ...
        20                          0.1853065               5.0424
      -------------------------------------------------------------
                  HL-Gap            0.0172310 Eh            0.4689 eV
             Fermi-level           -0.4361987 Eh          -11.8696 eV

 SCC (total)                   0 d,  0 h,  0 min,  0.005 sec
 SCC setup                      ...        0 min,  0.000 sec (  1.591%)
 Dispersion                     ...        0 min,  0.000 sec (  1.071%)
 integral evaluation            ...        0 min,  0.001 sec ( 24.529%)
 zeroth order Hamiltonian       ...        0 min,  0.000 sec (  0.428%)
 iterations                     ...        0 min,  0.002 sec ( 41.896%)
 molecular gradient             ...        0 min,  0.002 sec ( 28.417%)
 printout                       ...        0 min,  0.000 sec (  1.851%)

         :::::::::::::::::::::::::::::::::::::::::::::::::::::
         ::                     SUMMARY                     ::
         :::::::::::::::::::::::::::::::::::::::::::::::::::::
         :: total energy             -10.923366132523 Eh    ::
         :: gradient norm              0.230744160465 Eh/a0 ::
         :: HOMO-LUMO gap              0.468880649481 eV    ::
         ::.................................................::
         :: SCC energy               -11.008676564037 Eh    ::
         :: -> isotropic ES           -0.017833872907 Eh    ::
         :: -> anisotropic ES          0.002651308063 Eh    ::
         :: -> anisotropic XC          0.010292750961 Eh    ::
         :: -> dispersion             -0.002833561675 Eh    ::
         :: repulsion energy           0.085310335927 Eh    ::
         :: add. restraining           0.000000000000 Eh    ::
         :::::::::::::::::::::::::::::::::::::::::::::::::::::

      ----------------------------------------------------------- 
     |                   =====================                   |
     |                        A N C O P T                        |
     |                   =====================                   |
     |               Approximate Normal Coordinate               |
     |                Rational Function Optimizer                |
      ----------------------------------------------------------- 

          ...................................................
          :                      SETUP                      :
          :.................................................:
          :   optimization level            normal          :
          :   max. optcycles                   200          :
          :   ANC micro-cycles                  20          :
          :   degrees of freedom                 9          :
          :.................................................:
          :   RF solver                   davidson          :
          :   write xtbopt.log                true          :
          :   linear?                        false          :
          :   energy convergence         0.5000000E-05 Eh   :
          :   grad. convergence          0.1000000E-02 Eh/α :
          :   maximium RF displ.         1.0000000          :
          :   Hlow (freq-cutoff)         0.1000000E-01      :
          :   Hmax (freq-cutoff)         5.0000000          :
          :   S6 in model hess.         20.0000000          :
          ...................................................

generating ANC from model Hessian ...
Using Lindh-Hessian (1995)
 Shifting diagonal of input Hessian by    0.0000000000000000     
 Lowest  eigenvalues of input Hessian
   -0.000000   -0.000000   -0.000000   -0.000000    0.000000    0.000000
    0.082940    0.089905    0.129277    0.532013    0.631971    0.923710
    0.978068    1.328389    1.514400
 Highest eigenvalues
    0.532013    0.631971    0.923710    0.978068    1.328389    1.514400


........................................................................
.............................. CYCLE    1 ..............................
........................................................................
   1    -11.0086766 -0.110087E+02  0.441E-05    0.47       0.0  T
   2    -11.0086766  0.878089E-09  0.303E-04    0.47     147.5  T
   3    -11.0086766 -0.879545E-09  0.394E-05    0.47    1135.1  T
     SCC iter.                  ...        0 min,  0.001 sec
     gradient                   ...        0 min,  0.001 sec
 * total energy  :   -10.9233661 Eh     change        0.1495806E-08 Eh
   gradient norm :     0.2307448 Eh/α   predicted     0.0000000E+00 (-100.00%)
   displ. norm   :     0.3390047 α      lambda       -0.6748971E-01
   maximum displ.:     0.2050842 α      in ANC's #5, #3, #7, ...

........................................................................
.............................. CYCLE    2 ..............................
........................................................................
   1    -11.0311664 -0.110312E+02  0.385E+00    0.45       0.0  T
   2    -10.1377772  0.893389E+00  0.892E+00    1.60       1.0  T
   3    -10.9286435 -0.790866E+00  0.444E+00    0.29       1.0  T
   4    -11.0843947 -0.155751E+00  0.212E+00    0.56       1.0  T
   5    -11.0897359 -0.534118E-02  0.140E+00    0.52       1.0  T
   6    -11.0862615  0.347445E-02  0.143E+00    0.59       1.0  T
   7    -11.0918814 -0.561991E-02  0.666E-01    0.55       1.0  T
   8    -11.0927456 -0.864259E-03  0.376E-01    0.53       1.0  T
   9    -11.0935432 -0.797553E-03  0.141E-01    0.51       1.0  T
  10    -11.0933443  0.198926E-03  0.251E-01    0.51       1.0  T
  11    -11.0932823  0.619319E-04  0.277E-01    0.52       1.0  T
  12    -11.0936188 -0.336432E-03  0.273E-02    0.50       1.6  T
  13    -11.0936222 -0.340745E-05  0.310E-03    0.50      14.4  T
  14    -11.0936222 -0.181206E-07  0.101E-03    0.50      44.2  T
  15    -11.0936222 -0.658193E-10  0.630E-04    0.50      71.0  T
  16    -11.0936222 -0.139694E-08  0.834E-05    0.50     536.4  T
     SCC iter.                  ...        0 min,  0.002 sec
     gradient                   ...        0 min,  0.001 sec
 * total energy  :   -10.9814007 Eh     change       -0.5803458E-01 Eh
   gradient norm :     0.1563517 Eh/α   predicted    -0.3762295E-01 ( -35.17%)
   displ. norm   :     0.6028889 α      lambda       -0.8041682E-01
   maximum displ.:     0.3776926 α      in ANC's #3, #5, #6, ...

........................................................................
.............................. CYCLE    3 ..............................
........................................................................
   1    -11.1586775 -0.111587E+02  0.504E+00    0.17       0.0  T
   2    -11.0020317  0.156646E+00  0.587E+00    0.68       1.0  T
   3    -11.2140597 -0.212028E+00  0.245E+00    0.33       1.0  T
   4    -11.2223424 -0.828276E-02  0.831E-01    0.34       1.0  T
   5    -11.2255295 -0.318710E-02  0.348E-01    0.43       1.0  T
   6    -11.2258385 -0.308963E-03  0.171E-01    0.39       1.0  T
   7    -11.2257919  0.466288E-04  0.122E-01    0.41       1.0  T
   8    -11.2258850 -0.931629E-04  0.495E-02    0.39       1.0  T
   9    -11.2259031 -0.180476E-04  0.146E-02    0.39       3.1  T
  10    -11.2259035 -0.434615E-06  0.703E-03    0.40       6.4  T
  11    -11.2259036 -0.105442E-06  0.663E-04    0.40      67.4  T
  12    -11.2259036 -0.157828E-09  0.140E-04    0.40     320.3  T
     SCC iter.                  ...        0 min,  0.001 sec
     gradient                   ...        0 min,  0.001 sec
 * total energy  :   -11.0115830 Eh     change       -0.3018227E-01 Eh
   gradient norm :     0.1703642 Eh/α   predicted    -0.5482315E-01 (  81.64%)
   displ. norm   :     0.3836576 α      lambda       -0.3779597E-01
   maximum displ.:     0.2711866 α      in ANC's #2, #3, #1, ...

........................................................................
.............................. CYCLE    4 ..............................
........................................................................
   1    -11.1635171 -0.111635E+02  0.222E+00    0.45       0.0  T
   2    -11.0440959  0.119421E+00  0.403E+00    0.09       1.0  T
   3    -11.1584333 -0.114337E+00  0.163E+00    0.65       1.0  T
   4    -11.1650925 -0.665925E-02  0.134E+00    0.32       1.0  T
   5    -11.1748589 -0.976640E-02  0.372E-01    0.46       1.0  T
   6    -11.1752085 -0.349609E-03  0.274E-01    0.45       1.0  T
   7    -11.1754956 -0.287035E-03  0.824E-02    0.39       1.0  T
   8    -11.1755248 -0.292527E-04  0.228E-02    0.41       2.0  T
   9    -11.1755253 -0.505669E-06  0.161E-02    0.41       2.8  T
  10    -11.1755266 -0.127461E-05  0.590E-03    0.41       7.6  T
  11    -11.1755268 -0.214978E-06  0.688E-04    0.41      65.0  T
  12    -11.1755268 -0.122213E-09  0.363E-04    0.41     123.2  T
     SCC iter.                  ...        0 min,  0.001 sec
     gradient                   ...        0 min,  0.001 sec
 * total energy  :   -11.0287888 Eh     change       -0.1720583E-01 Eh
   gradient norm :     0.0859954 Eh/α   predicted    -0.2167964E-01 (  26.00%)
   displ. norm   :     0.1501255 α      lambda       -0.7922007E-02
   maximum displ.:     0.0875521 α      in ANC's #3, #6, #1, ...

........................................................................
.............................. CYCLE    5 ..............................
........................................................................
   1    -11.1923623 -0.111924E+02  0.100E+00    0.50       0.0  T
   2    -11.1822946  0.100676E-01  0.128E+00    0.74       1.0  T
   3    -11.1927620 -0.104674E-01  0.599E-01    0.51       1.0  T
   4    -11.1941277 -0.136565E-02  0.150E-01    0.57       1.0  T
   5    -11.1942329 -0.105229E-03  0.725E-02    0.56       1.0  T
   6    -11.1942624 -0.294712E-04  0.357E-02    0.57       1.3  T
   7    -11.1942644 -0.206795E-05  0.191E-02    0.57       2.3  T
   8    -11.1942658 -0.140590E-05  0.663E-03    0.57       6.7  T
   9    -11.1942661 -0.218726E-06  0.260E-03    0.57      17.2  T
  10    -11.1942661 -0.205938E-07  0.317E-04    0.57     140.9  T
  11    -11.1942661 -0.296323E-09  0.639E-05    0.57     699.8  T
     SCC iter.                  ...        0 min,  0.001 sec
     gradient                   ...        0 min,  0.001 sec
 * total energy  :   -11.0355577 Eh     change       -0.6768914E-02 Eh
   gradient norm :     0.0646275 Eh/α   predicted    -0.4050277E-02 ( -40.16%)
   displ. norm   :     0.3254585 α      lambda       -0.1349132E-01
   maximum displ.:     0.1876576 α      in ANC's #6, #3, #2, ...

........................................................................
.............................. CYCLE    6 ..............................
........................................................................
   1    -11.2240622 -0.112241E+02  0.182E+00    0.70       0.0  T
   2    -11.2118507  0.122114E-01  0.172E+00    1.10       1.0  T
   3    -11.2124165 -0.565800E-03  0.144E+00    0.61       1.0  T
   4    -11.2262830 -0.138664E-01  0.334E-01    0.85       1.0  T
   5    -11.2268393 -0.556304E-03  0.140E-01    0.83       1.0  T
   6    -11.2269091 -0.697949E-04  0.917E-02    0.83       1.0  T
   7    -11.2269307 -0.216641E-04  0.537E-02    0.82       1.0  T
   8    -11.2269344 -0.363345E-05  0.171E-02    0.81       2.6  T
   9    -11.2269358 -0.144540E-05  0.491E-03    0.82       9.1  T
  10    -11.2269359 -0.472360E-07  0.422E-04    0.82     106.0  T
  11    -11.2269359 -0.813873E-10  0.269E-04    0.82     166.5  T
     SCC iter.                  ...        0 min,  0.001 sec
     gradient                   ...        0 min,  0.002 sec
 * total energy  :   -11.0428518 Eh     change       -0.7294117E-02 Eh
   gradient norm :     0.0622738 Eh/α   predicted    -0.7460179E-02 (   2.28%)
   displ. norm   :     0.1579163 α      lambda       -0.5282938E-02
   maximum displ.:     0.1039381 α      in ANC's #2, #6, #5, ...

........................................................................
.............................. CYCLE    7 ..............................
........................................................................
   1    -11.2284304 -0.112284E+02  0.808E-01    0.91       0.0  T
   2    -11.2283173  0.113114E-03  0.483E-01    1.00       1.0  T
   3    -11.2268927  0.142457E-02  0.564E-01    0.85       1.0  T
   4    -11.2279785 -0.108578E-02  0.305E-01    1.00       1.0  T
   5    -11.2287238 -0.745248E-03  0.447E-02    0.95       1.0  T
   6    -11.2287329 -0.916845E-05  0.199E-02    0.96       2.3  T
   7    -11.2287333 -0.347782E-06  0.720E-03    0.95       6.2  T
   8    -11.2287334 -0.767078E-07  0.416E-03    0.96      10.7  T
   9    -11.2287334 -0.642261E-07  0.164E-03    0.96      27.3  T
  10    -11.2287334 -0.984598E-08  0.427E-04    0.96     104.7  T
  11    -11.2287334 -0.511424E-09  0.445E-05    0.96    1004.5  T
     SCC iter.                  ...        0 min,  0.001 sec
     gradient                   ...        0 min,  0.001 sec
 * total energy  :   -11.0467245 Eh     change       -0.3872668E-02 Eh
   gradient norm :     0.0524880 Eh/α   predicted    -0.2707341E-02 ( -30.09%)
   displ. norm   :     0.2549169 α      lambda       -0.8323420E-02
   maximum displ.:     0.1485498 α      in ANC's #5, #9, #6, ...

........................................................................
.............................. CYCLE    8 ..............................
........................................................................
   1    -11.2327449 -0.112327E+02  0.141E+00    0.96       0.0  T
   2    -11.2323077  0.437154E-03  0.915E-01    1.18       1.0  T
   3    -11.2269431  0.536466E-02  0.101E+00    0.84       1.0  T
   4    -11.2329579 -0.601488E-02  0.313E-01    1.12       1.0  T
   5    -11.2335201 -0.562185E-03  0.107E-01    1.06       1.0  T
   6    -11.2335822 -0.620992E-04  0.360E-02    1.07       1.2  T
   7    -11.2335838 -0.153976E-05  0.224E-02    1.07       2.0  T
   8    -11.2335855 -0.178273E-05  0.754E-03    1.07       5.9  T
   9    -11.2335856 -0.693930E-07  0.348E-03    1.07      12.9  T
  10    -11.2335856 -0.308565E-07  0.677E-04    1.07      66.0  T
  11    -11.2335856 -0.160446E-08  0.786E-05    1.07     569.1  T
     SCC iter.                  ...        0 min,  0.001 sec
     gradient                   ...        0 min,  0.001 sec
 * total energy  :   -11.0506464 Eh     change       -0.3921943E-02 Eh
   gradient norm :     0.0357994 Eh/α   predicted    -0.4432153E-02 (  13.01%)
   displ. norm   :     0.0992510 α      lambda       -0.1554011E-02
   maximum displ.:     0.0584600 α      in ANC's #6, #2, #5, ...

........................................................................
.............................. CYCLE    9 ..............................
........................................................................
   1    -11.2368894 -0.112369E+02  0.664E-01    1.13       0.0  T
   2    -11.2366882  0.201154E-03  0.412E-01    1.24       1.0  T
   3    -11.2361218  0.566412E-03  0.428E-01    1.08       1.0  T
   4    -11.2369593 -0.837496E-03  0.180E-01    1.21       1.0  T
   5    -11.2371706 -0.211324E-03  0.202E-02    1.17       2.2  T
   6    -11.2371707 -0.130456E-06  0.148E-02    1.18       3.0  T
   7    -11.2371715 -0.799951E-06  0.499E-03    1.18       9.0  T
   8    -11.2371716 -0.105747E-06  0.157E-03    1.18      28.5  T
   9    -11.2371717 -0.845613E-08  0.605E-04    1.18      73.9  T
  10    -11.2371717 -0.227525E-09  0.147E-04    1.18     303.6  T
     SCC iter.                  ...        0 min,  0.001 sec
     gradient                   ...        0 min,  0.001 sec
 * total energy  :   -11.0514000 Eh     change       -0.7535865E-03 Eh
   gradient norm :     0.0153677 Eh/α   predicted    -0.7846590E-03 (   4.12%)
   displ. norm   :     0.0687068 α      lambda       -0.4636944E-03
   maximum displ.:     0.0393795 α      in ANC's #6, #3, #2, ...

........................................................................
.............................. CYCLE   10 ..............................
........................................................................
   1    -11.2337321 -0.112337E+02  0.331E-01    1.18       0.0  T
   2    -11.2335813  0.150755E-03  0.240E-01    1.13       1.0  T
   3    -11.2334047  0.176590E-03  0.259E-01    1.23       1.0  T
   4    -11.2337830 -0.378259E-03  0.427E-02    1.17       1.0  T
   5    -11.2337949 -0.118698E-04  0.129E-02    1.17       3.5  T
   6    -11.2337950 -0.155678E-06  0.881E-03    1.17       5.1  T
   7    -11.2337953 -0.297112E-06  0.317E-03    1.17      14.1  T
   8    -11.2337953 -0.363388E-07  0.930E-04    1.17      48.1  T
   9    -11.2337953 -0.751655E-09  0.510E-04    1.17      87.7  T
     SCC iter.                  ...        0 min,  0.001 sec
     gradient                   ...        0 min,  0.001 sec
 * total energy  :   -11.0516089 Eh     change       -0.2088259E-03 Eh
   gradient norm :     0.0144796 Eh/α   predicted    -0.2329420E-03 (  11.55%)
   displ. norm   :     0.0464738 α      lambda       -0.3862052E-03
   maximum displ.:     0.0294744 α      in ANC's #6, #4, #9, ...

........................................................................
.............................. CYCLE   11 ..............................
........................................................................
   1    -11.2403082 -0.112403E+02  0.256E-01    1.17       0.0  T
   2    -11.2402126  0.955920E-04  0.207E-01    1.23       1.0  T
   3    -11.2402622 -0.495629E-04  0.157E-01    1.16       1.0  T
   4    -11.2403464 -0.841988E-04  0.663E-02    1.20       1.0  T
   5    -11.2403747 -0.282860E-04  0.202E-02    1.19       2.2  T
   6    -11.2403776 -0.297968E-05  0.457E-03    1.20       9.8  T
   7    -11.2403776 -0.117087E-07  0.138E-03    1.19      32.5  T
   8    -11.2403777 -0.595931E-08  0.699E-04    1.19      64.0  T
   9    -11.2403777 -0.101431E-08  0.179E-04    1.19     249.5  T
     SCC iter.                  ...        0 min,  0.001 sec
     gradient                   ...        0 min,  0.001 sec
 * total energy  :   -11.0518497 Eh     change       -0.2408893E-03 Eh
   gradient norm :     0.0096963 Eh/α   predicted    -0.1935189E-03 ( -19.66%)
   displ. norm   :     0.0755741 α      lambda       -0.2767306E-03
   maximum displ.:     0.0454494 α      in ANC's #6, #4, #1, ...

........................................................................
.............................. CYCLE   12 ..............................
........................................................................
   1    -11.2417997 -0.112418E+02  0.396E-01    1.19       0.0  T
   2    -11.2417665  0.332484E-04  0.241E-01    1.26       1.0  T
   3    -11.2413553  0.411250E-03  0.283E-01    1.16       1.0  T
   4    -11.2418247 -0.469417E-03  0.778E-02    1.23       1.0  T
   5    -11.2418547 -0.300735E-04  0.288E-02    1.22       1.6  T
   6    -11.2418594 -0.465272E-05  0.982E-03    1.23       4.6  T
   7    -11.2418594  0.606326E-09  0.633E-03    1.23       7.1  T
   8    -11.2418596 -0.186154E-06  0.152E-03    1.23      29.5  T
   9    -11.2418596 -0.122369E-08  0.369E-04    1.23     121.0  T
  10    -11.2418596 -0.119947E-09  0.161E-04    1.23     278.1  T
     SCC iter.                  ...        0 min,  0.001 sec
     gradient                   ...        0 min,  0.001 sec
 * total energy  :   -11.0520838 Eh     change       -0.2340036E-03 Eh
   gradient norm :     0.0092908 Eh/α   predicted    -0.1391543E-03 ( -40.53%)
   displ. norm   :     0.2696073 α      lambda       -0.8787468E-03
   maximum displ.:     0.1646320 α      in ANC's #6, #4, #1, ...

........................................................................
.............................. CYCLE   13 ..............................
........................................................................
   1    -11.2382084 -0.112382E+02  0.134E+00    1.15       0.0  T
   2    -11.2383290 -0.120614E-03  0.774E-01    1.22       1.0  T
   3    -11.2368231  0.150592E-02  0.563E-01    1.13       1.0  T
   4    -11.2378186 -0.995483E-03  0.289E-01    1.25       1.0  T
   5    -11.2384957 -0.677090E-03  0.895E-02    1.19       1.0  T
   6    -11.2385373 -0.415904E-04  0.439E-02    1.21       1.0  T
   7    -11.2385435 -0.622936E-05  0.196E-02    1.21       2.3  T
   8    -11.2385453 -0.185515E-05  0.538E-03    1.21       8.3  T
   9    -11.2385454 -0.250668E-07  0.163E-03    1.21      27.5  T
  10    -11.2385454 -0.633229E-08  0.497E-04    1.21      89.9  T
  11    -11.2385454 -0.145995E-09  0.111E-04    1.21     403.2  T
     SCC iter.                  ...        0 min,  0.001 sec
     gradient                   ...        0 min,  0.001 sec
 * total energy  :   -11.0527545 Eh     change       -0.6707000E-03 Eh
   gradient norm :     0.0179543 Eh/α   predicted    -0.4713170E-03 ( -29.73%)
   displ. norm   :     0.2488072 α      lambda       -0.9096808E-03
   maximum displ.:     0.1534702 α      in ANC's #4, #6, #9, ...

........................................................................
.............................. CYCLE   14 ..............................
........................................................................
   1    -11.2319655 -0.112320E+02  0.119E+00    1.04       0.0  T
   2    -11.2317666  0.198834E-03  0.739E-01    1.01       1.0  T
   3    -11.2290680  0.269868E-02  0.730E-01    1.12       1.0  T
   4    -11.2318140 -0.274602E-02  0.291E-01    0.99       1.0  T
   5    -11.2323572 -0.543182E-03  0.111E-01    1.05       1.0  T
   6    -11.2324500 -0.927988E-04  0.570E-02    1.04       1.0  T
   7    -11.2324659 -0.159333E-04  0.901E-03    1.04       5.0  T
   8    -11.2324662 -0.281285E-06  0.279E-03    1.04      16.0  T
   9    -11.2324662 -0.110382E-07  0.121E-03    1.04      37.1  T
  10    -11.2324662 -0.315235E-08  0.461E-04    1.04      97.0  T
  11    -11.2324662 -0.558941E-09  0.696E-05    1.04     642.5  T
     SCC iter.                  ...        0 min,  0.001 sec
     gradient                   ...        0 min,  0.001 sec
 * total energy  :   -11.0528943 Eh     change       -0.1398089E-03 Eh
   gradient norm :     0.0364113 Eh/α   predicted    -0.4830017E-03 ( 245.47%)
   displ. norm   :     0.1001175 α      lambda       -0.2363842E-02
   maximum displ.:     0.0455176 α      in ANC's #1, #2, #5, ...

........................................................................
.............................. CYCLE   15 ..............................
........................................................................
   1    -11.2476208 -0.112476E+02  0.494E-01    1.01       0.0  T
   2    -11.2461533  0.146748E-02  0.499E-01    0.97       1.0  T
   3    -11.2470088 -0.855510E-03  0.408E-01    1.04       1.0  T
   4    -11.2474927 -0.483829E-03  0.259E-01    0.96       1.0  T
   5    -11.2480223 -0.529684E-03  0.200E-02    1.01       2.2  T
   6    -11.2480227 -0.399194E-06  0.127E-02    1.00       3.5  T
   7    -11.2480228 -0.593380E-07  0.613E-03    1.00       7.3  T
   8    -11.2480229 -0.908659E-07  0.171E-03    1.00      26.1  T
   9    -11.2480229 -0.102652E-07  0.849E-04    1.00      52.7  T
  10    -11.2480229 -0.147941E-08  0.199E-04    1.00     224.7  T
     SCC iter.                  ...        0 min,  0.001 sec
     gradient                   ...        0 min,  0.001 sec
 * total energy  :   -11.0542849 Eh     change       -0.1390654E-02 Eh
   gradient norm :     0.0147856 Eh/α   predicted    -0.1193769E-02 ( -14.16%)
   displ. norm   :     0.1356085 α      lambda       -0.9355720E-03
   maximum displ.:     0.0905021 α      in ANC's #4, #6, #1, ...

........................................................................
.............................. CYCLE   16 ..............................
........................................................................
   1    -11.2511566 -0.112512E+02  0.716E-01    0.85       0.0  T
   2    -11.2480434  0.311316E-02  0.654E-01    0.76       1.0  T
   3    -11.2467768  0.126660E-02  0.794E-01    0.90       1.0  T
   4    -11.2515052 -0.472839E-02  0.192E-01    0.84       1.0  T
   5    -11.2516921 -0.186844E-03  0.525E-02    0.83       1.0  T
   6    -11.2517077 -0.155770E-04  0.253E-02    0.83       1.8  T
   7    -11.2517086 -0.975821E-06  0.124E-02    0.83       3.6  T
   8    -11.2517088 -0.130307E-06  0.125E-03    0.83      35.9  T
   9    -11.2517088  0.793991E-09  0.815E-04    0.83      54.9  T
  10    -11.2517088 -0.243502E-08  0.177E-04    0.83     252.1  T
     SCC iter.                  ...        0 min,  0.001 sec
     gradient                   ...        0 min,  0.001 sec
 * total energy  :   -11.0549785 Eh     change       -0.6936252E-03 Eh
   gradient norm :     0.0158769 Eh/α   predicted    -0.4763903E-03 ( -31.32%)
   displ. norm   :     0.1979806 α      lambda       -0.1264533E-02
   maximum displ.:     0.1392487 α      in ANC's #1, #4, #6, ...

........................................................................
.............................. CYCLE   17 ..............................
........................................................................
   1    -11.2539903 -0.112540E+02  0.991E-01    0.64       0.0  T
   2    -11.2444428  0.954748E-02  0.105E+00    0.53       1.0  T
   3    -11.2452500 -0.807198E-03  0.113E+00    0.69       1.0  T
   4    -11.2547684 -0.951837E-02  0.313E-01    0.64       1.0  T
   5    -11.2552386 -0.470181E-03  0.898E-02    0.61       1.0  T
   6    -11.2552836 -0.450068E-04  0.418E-02    0.62       1.1  T
   7    -11.2552852 -0.161400E-05  0.289E-02    0.62       1.5  T
   8    -11.2552865 -0.131556E-05  0.674E-03    0.62       6.6  T
   9    -11.2552866 -0.991806E-07  0.140E-03    0.62      31.9  T
  10    -11.2552866 -0.487001E-08  0.268E-04    0.62     166.8  T
  11    -11.2552866 -0.232115E-09  0.126E-04    0.62     354.3  T
     SCC iter.                  ...        0 min,  0.001 sec
     gradient                   ...        0 min,  0.001 sec
 * total energy  :   -11.0560856 Eh     change       -0.1107038E-02 Eh
   gradient norm :     0.0216293 Eh/α   predicted    -0.6570464E-03 ( -40.65%)
   displ. norm   :     0.6570090 α      lambda       -0.4382261E-02
   maximum displ.:     0.5161219 α      in ANC's #1, #4, #6, ...

........................................................................
.............................. CYCLE   18 ..............................
........................................................................
   1    -11.2378659 -0.112379E+02  0.266E+00    0.29       0.0  T
   2    -11.1635810  0.742849E-01  0.292E+00    0.11       1.0  T
   3    -11.1520779  0.115031E-01  0.325E+00    0.32       1.0  T
   4    -11.2358399 -0.837620E-01  0.133E+00    0.35       1.0  T
   5    -11.2435409 -0.770098E-02  0.514E-01    0.25       1.0  T
   6    -11.2448365 -0.129562E-02  0.296E-01    0.29       1.0  T
   7    -11.2448416 -0.506951E-05  0.293E-01    0.29       1.0  T
   8    -11.2450552 -0.213584E-03  0.547E-02    0.28       1.0  T
   9    -11.2450606 -0.544513E-05  0.228E-02    0.28       2.0  T
  10    -11.2450621 -0.149786E-05  0.837E-03    0.28       5.3  T
  11    -11.2450624 -0.249959E-06  0.761E-04    0.28      58.7  T
  12    -11.2450624 -0.495881E-09  0.132E-04    0.28     337.6  T
     SCC iter.                  ...        0 min,  0.001 sec
     gradient                   ...        0 min,  0.001 sec
 * total energy  :   -11.0590388 Eh     change       -0.2953227E-02 Eh
   gradient norm :     0.0749080 Eh/α   predicted    -0.3136956E-02 (   6.22%)
   displ. norm   :     0.2065679 α      lambda       -0.4721318E-02
   maximum displ.:     0.1637271 α      in ANC's #1, #3, #9, ...

........................................................................
.............................. CYCLE   19 ..............................
........................................................................
   1    -11.2448538 -0.112449E+02  0.876E-01    0.29       0.0  T
   2    -11.2293579  0.154959E-01  0.130E+00    0.20       1.0  T
   3    -11.2406658 -0.113079E-01  0.841E-01    0.30       1.0  T
   4    -11.2458517 -0.518596E-02  0.223E-01    0.28       1.0  T
   5    -11.2461917 -0.339958E-03  0.804E-02    0.26       1.0  T
   6    -11.2462164 -0.246967E-04  0.472E-02    0.27       1.0  T
   7    -11.2462213 -0.488114E-05  0.143E-02    0.27       3.1  T
   8    -11.2462219 -0.597201E-06  0.452E-03    0.27       9.9  T
   9    -11.2462220 -0.732749E-07  0.193E-03    0.27      23.2  T
  10    -11.2462220 -0.120788E-07  0.397E-04    0.27     112.6  T
  11    -11.2462220 -0.823698E-09  0.939E-05    0.27     476.2  T
     SCC iter.                  ...        0 min,  0.001 sec
     gradient                   ...        0 min,  0.001 sec
 * total energy  :   -11.0620872 Eh     change       -0.3048365E-02 Eh
   gradient norm :     0.0582690 Eh/α   predicted    -0.2461390E-02 ( -19.26%)
   displ. norm   :     0.3515895 α      lambda       -0.4559653E-02
   maximum displ.:     0.2752059 α      in ANC's #1, #4, #7, ...

........................................................................
.............................. CYCLE   20 ..............................
........................................................................
   1    -11.2354656 -0.112355E+02  0.137E+00    0.23       0.0  T
   2    -11.2147449  0.207207E-01  0.165E+00    0.22       1.0  T
   3    -11.2215535 -0.680859E-02  0.134E+00    0.19       1.0  T
   4    -11.2329566 -0.114030E-01  0.758E-01    0.29       1.0  T
   5    -11.2371686 -0.421206E-02  0.134E-01    0.21       1.0  T
   6    -11.2372485 -0.798896E-04  0.725E-02    0.23       1.0  T
   7    -11.2372581 -0.957882E-05  0.535E-02    0.23       1.0  T
   8    -11.2372641 -0.605907E-05  0.731E-03    0.23       6.1  T
   9    -11.2372645 -0.396272E-06  0.215E-03    0.23      20.8  T
  10    -11.2372645  0.456585E-08  0.117E-03    0.23      38.3  T
  11    -11.2372645 -0.105055E-07  0.250E-04    0.23     179.2  T
  12    -11.2372645 -0.942926E-10  0.712E-05    0.23     627.8  T
     SCC iter.                  ...        0 min,  0.001 sec
     gradient                   ...        0 min,  0.001 sec
 * total energy  :   -11.0646828 Eh     change       -0.2595609E-02 Eh
   gradient norm :     0.0580321 Eh/α   predicted    -0.2561652E-02 (  -1.31%)
   displ. norm   :     0.3007520 α      lambda       -0.9843444E-02
   maximum displ.:     0.1828082 α      in ANC's #2, #9, #5, ...
 * RMSD in coord.:     1.0862736 α      energy gain  -0.1413166E+00 Eh

generating ANC from model Hessian ...
Using Lindh-Hessian (1995)
 Shifting diagonal of input Hessian by    0.0000000000000000     
 Lowest  eigenvalues of input Hessian
   -0.000000   -0.000000   -0.000000    0.000000    0.000000    0.000000
    0.026621    0.030603    0.096612    0.522750    0.617549    0.714969
    1.130729    2.263423    2.503232
 Highest eigenvalues
    0.522750    0.617549    0.714969    1.130729    2.263423    2.503232


........................................................................
.............................. CYCLE   21 ..............................
........................................................................
   1    -11.2814197 -0.112814E+02  0.182E+00    0.13       0.0  T
   2    -11.2446878  0.367319E-01  0.196E+00    0.31       1.0  T
   3    -11.2361704  0.851739E-02  0.242E+00    0.09       1.0  T
   4    -11.2811505 -0.449801E-01  0.925E-01    0.11       1.0  T
   5    -11.2845523 -0.340183E-02  0.524E-01    0.21       1.0  T
   6    -11.2857080 -0.115571E-02  0.276E-01    0.19       1.0  T
   7    -11.2857075  0.471361E-06  0.263E-01    0.19       1.0  T
   8    -11.2857404 -0.328840E-04  0.360E-02    0.18       1.2  T
   9    -11.2857461 -0.569967E-05  0.256E-02    0.18       1.7  T
  10    -11.2857470 -0.880627E-06  0.127E-02    0.18       3.5  T
  11    -11.2857473 -0.282001E-06  0.289E-03    0.18      15.5  T
  12    -11.2857473 -0.604616E-08  0.307E-04    0.18     145.6  T
  13    -11.2857473 -0.797442E-10  0.600E-05    0.18     745.5  T
     SCC iter.                  ...        0 min,  0.001 sec
     gradient                   ...        0 min,  0.001 sec
 * total energy  :   -11.0563105 Eh     change        0.8372271E-02 Eh
   gradient norm :     0.1762040 Eh/α   predicted     0.0000000E+00 (-100.00%)
   displ. norm   :     0.2073749 α      lambda       -0.1478872E-01
   maximum displ.:     0.1277686 α      in ANC's #2, #1, #3, ...

........................................................................
.............................. CYCLE   22 ..............................
........................................................................
   1    -11.2625299 -0.112625E+02  0.816E-01    0.16       0.0  T
   2    -11.2621058  0.424155E-03  0.491E-01    0.13       1.0  T
   3    -11.2545676  0.753812E-02  0.959E-01    0.22       1.0  T
   4    -11.2604878 -0.592013E-02  0.490E-01    0.17       1.0  T
   5    -11.2626635 -0.217573E-02  0.940E-02    0.16       1.0  T
   6    -11.2626841 -0.206260E-04  0.715E-02    0.16       1.0  T
   7    -11.2626937 -0.951971E-05  0.277E-02    0.16       1.6  T
   8    -11.2626977 -0.407415E-05  0.672E-03    0.15       6.7  T
   9    -11.2626977  0.267470E-07  0.316E-03    0.15      14.1  T
  10    -11.2626977 -0.387359E-07  0.553E-04    0.15      80.8  T
  11    -11.2626977 -0.390287E-09  0.217E-04    0.15     205.9  T
     SCC iter.                  ...        0 min,  0.001 sec
     gradient                   ...        0 min,  0.001 sec
 * total energy  :   -11.0657433 Eh     change       -0.9432796E-02 Eh
   gradient norm :     0.0540120 Eh/α   predicted    -0.7712346E-02 ( -18.24%)
   displ. norm   :     0.0986791 α      lambda       -0.3405172E-02
   maximum displ.:     0.0714053 α      in ANC's #3, #4, #5, ...

........................................................................
.............................. CYCLE   23 ..............................
........................................................................
   1    -11.2644114 -0.112644E+02  0.478E-01    0.14       0.0  T
   2    -11.2622395  0.217191E-02  0.556E-01    0.17       1.0  T
   3    -11.2627096 -0.470056E-03  0.489E-01    0.16       1.0  T
   4    -11.2639362 -0.122659E-02  0.322E-01    0.13       1.0  T
   5    -11.2647351 -0.798927E-03  0.806E-02    0.16       1.0  T
   6    -11.2647690 -0.338860E-04  0.304E-02    0.16       1.5  T
   7    -11.2647694 -0.406387E-06  0.184E-02    0.16       2.4  T
   8    -11.2647710 -0.163999E-05  0.235E-03    0.16      19.1  T
   9    -11.2647710 -0.105424E-07  0.136E-03    0.16      32.9  T
  10    -11.2647710 -0.518659E-08  0.133E-04    0.16     336.1  T
  11    -11.2647710 -0.127045E-10  0.686E-05    0.16     651.5  T
     SCC iter.                  ...        0 min,  0.001 sec
     gradient                   ...        0 min,  0.001 sec
 * total energy  :   -11.0676326 Eh     change       -0.1889253E-02 Eh
   gradient norm :     0.0250811 Eh/α   predicted    -0.1719166E-02 (  -9.00%)
   displ. norm   :     0.0607385 α      lambda       -0.5639996E-03
   maximum displ.:     0.0371466 α      in ANC's #1, #3, #2, ...

........................................................................
.............................. CYCLE   24 ..............................
........................................................................
   1    -11.2645897 -0.112646E+02  0.331E-01    0.18       0.0  T
   2    -11.2600034  0.458636E-02  0.661E-01    0.15       1.0  T
   3    -11.2644687 -0.446540E-02  0.256E-01    0.18       1.0  T
   4    -11.2649056 -0.436898E-03  0.776E-02    0.18       1.0  T
   5    -11.2649351 -0.295024E-04  0.291E-02    0.17       1.5  T
   6    -11.2649408 -0.564058E-05  0.139E-02    0.17       3.2  T
   7    -11.2649411 -0.313037E-06  0.593E-03    0.17       7.5  T
   8    -11.2649414 -0.252571E-06  0.147E-03    0.17      30.4  T
   9    -11.2649414 -0.837099E-08  0.775E-04    0.17      57.7  T
  10    -11.2649414 -0.258802E-08  0.132E-04    0.17     339.9  T
     SCC iter.                  ...        0 min,  0.001 sec
     gradient                   ...        0 min,  0.001 sec
 * total energy  :   -11.0681024 Eh     change       -0.4698250E-03 Eh
   gradient norm :     0.0244916 Eh/α   predicted    -0.2830381E-03 ( -39.76%)
   displ. norm   :     0.1776373 α      lambda       -0.1836547E-02
   maximum displ.:     0.1413373 α      in ANC's #3, #5, #4, ...

........................................................................
.............................. CYCLE   25 ..............................
........................................................................
   1    -11.2661508 -0.112662E+02  0.876E-01    0.26       0.0  T
   2    -11.2442727  0.218781E-01  0.152E+00    0.20       1.0  T
   3    -11.2656098 -0.213371E-01  0.614E-01    0.25       1.0  T
   4    -11.2676452 -0.203533E-02  0.226E-01    0.26       1.0  T
   5    -11.2678721 -0.226907E-03  0.889E-02    0.24       1.0  T
   6    -11.2679265 -0.544441E-04  0.328E-02    0.25       1.4  T
   7    -11.2679277 -0.113796E-05  0.137E-02    0.25       3.3  T
   8    -11.2679287 -0.105115E-05  0.421E-03    0.25      10.6  T
   9    -11.2679288 -0.922575E-07  0.197E-03    0.25      22.7  T
  10    -11.2679288 -0.160183E-07  0.263E-04    0.25     170.0  T
  11    -11.2679288 -0.281185E-09  0.955E-05    0.25     468.1  T
     SCC iter.                  ...        0 min,  0.001 sec
     gradient                   ...        0 min,  0.001 sec
 * total energy  :   -11.0692918 Eh     change       -0.1189451E-02 Eh
   gradient norm :     0.0261252 Eh/α   predicted    -0.9472516E-03 ( -20.36%)
   displ. norm   :     0.1198233 α      lambda       -0.8852658E-03
   maximum displ.:     0.0977765 α      in ANC's #3, #6, #7, ...

........................................................................
.............................. CYCLE   26 ..............................
........................................................................
   1    -11.2672620 -0.112673E+02  0.479E-01    0.31       0.0  T
   2    -11.2660561  0.120595E-02  0.481E-01    0.28       1.0  T
   3    -11.2649158  0.114029E-02  0.510E-01    0.31       1.0  T
   4    -11.2665819 -0.166614E-02  0.305E-01    0.32       1.0  T
   5    -11.2674038 -0.821885E-03  0.253E-02    0.30       1.8  T
   6    -11.2674071 -0.333484E-05  0.121E-02    0.30       3.7  T
   7    -11.2674072 -0.284657E-07  0.472E-03    0.30       9.5  T
   8    -11.2674073 -0.105219E-06  0.133E-03    0.30      33.7  T
   9    -11.2674073 -0.329178E-08  0.860E-04    0.30      52.0  T
  10    -11.2674073 -0.361323E-08  0.130E-04    0.30     344.4  T
     SCC iter.                  ...        0 min,  0.001 sec
     gradient                   ...        0 min,  0.001 sec
 * total energy  :   -11.0699283 Eh     change       -0.6364255E-03 Eh
   gradient norm :     0.0193339 Eh/α   predicted    -0.4489869E-03 ( -29.45%)
   displ. norm   :     0.1340921 α      lambda       -0.7678934E-03
   maximum displ.:     0.1104496 α      in ANC's #3, #6, #1, ...

........................................................................
.............................. CYCLE   27 ..............................
........................................................................
   1    -11.2680468 -0.112680E+02  0.586E-01    0.35       0.0  T
   2    -11.2655208  0.252599E-02  0.566E-01    0.34       1.0  T
   3    -11.2614016  0.411926E-02  0.854E-01    0.33       1.0  T
   4    -11.2678803 -0.647873E-02  0.224E-01    0.36       1.0  T
   5    -11.2682445 -0.364237E-03  0.255E-02    0.34       1.8  T
   6    -11.2682460 -0.146674E-05  0.152E-02    0.34       2.9  T
   7    -11.2682461 -0.906545E-07  0.706E-03    0.34       6.3  T
   8    -11.2682461 -0.195669E-07  0.140E-03    0.34      31.9  T
   9    -11.2682461 -0.792828E-08  0.504E-04    0.34      88.7  T
  10    -11.2682461 -0.192010E-09  0.117E-04    0.34     381.6  T
     SCC iter.                  ...        0 min,  0.001 sec
     gradient                   ...        0 min,  0.001 sec
 * total energy  :   -11.0704423 Eh     change       -0.5139986E-03 Eh
   gradient norm :     0.0144765 Eh/α   predicted    -0.3908512E-03 ( -23.96%)
   displ. norm   :     0.0834998 α      lambda       -0.4336310E-03
   maximum displ.:     0.0653520 α      in ANC's #3, #6, #2, ...

........................................................................
.............................. CYCLE   28 ..............................
........................................................................
   1    -11.2695167 -0.112695E+02  0.478E-01    0.35       0.0  T
   2    -11.2637505  0.576616E-02  0.731E-01    0.35       1.0  T
   3    -11.2671784 -0.342794E-02  0.565E-01    0.35       1.0  T
   4    -11.2698329 -0.265452E-02  0.110E-01    0.35       1.0  T
   5    -11.2699208 -0.878780E-04  0.262E-02    0.35       1.7  T
   6    -11.2699245 -0.365339E-05  0.132E-02    0.35       3.4  T
   7    -11.2699247 -0.173349E-06  0.617E-03    0.35       7.3  T
   8    -11.2699247 -0.547229E-07  0.978E-04    0.35      45.7  T
   9    -11.2699247 -0.116090E-08  0.573E-04    0.35      78.0  T
     SCC iter.                  ...        0 min,  0.001 sec
     gradient                   ...        0 min,  0.001 sec
 * total energy  :   -11.0707430 Eh     change       -0.3007833E-03 Eh
   gradient norm :     0.0119694 Eh/α   predicted    -0.2183261E-03 ( -27.41%)
   displ. norm   :     0.0712141 α      lambda       -0.2632163E-03
   maximum displ.:     0.0564690 α      in ANC's #3, #6, #1, ...

........................................................................
.............................. CYCLE   29 ..............................
........................................................................
   1    -11.2716098 -0.112716E+02  0.435E-01    0.34       0.0  T
   2    -11.2667100  0.489978E-02  0.670E-01    0.35       1.0  T
   3    -11.2694770 -0.276692E-02  0.530E-01    0.34       1.0  T
   4    -11.2718651 -0.238819E-02  0.106E-01    0.34       1.0  T
   5    -11.2719395 -0.743283E-04  0.314E-02    0.35       1.4  T
   6    -11.2719457 -0.622950E-05  0.108E-02    0.35       4.2  T
   7    -11.2719457  0.269537E-07  0.630E-03    0.35       7.1  T
   8    -11.2719458 -0.121945E-06  0.107E-03    0.35      42.0  T
   9    -11.2719458 -0.181514E-08  0.602E-04    0.35      74.3  T
  10    -11.2719458 -0.159178E-08  0.133E-04    0.35     337.1  T
     SCC iter.                  ...        0 min,  0.001 sec
     gradient                   ...        0 min,  0.001 sec
 * total energy  :   -11.0709061 Eh     change       -0.1631012E-03 Eh
   gradient norm :     0.0071732 Eh/α   predicted    -0.1322755E-03 ( -18.90%)
   displ. norm   :     0.0214204 α      lambda       -0.8158924E-04
   maximum displ.:     0.0144560 α      in ANC's #1, #7, #4, ...

........................................................................
.............................. CYCLE   30 ..............................
........................................................................
   1    -11.2751375 -0.112751E+02  0.147E-01    0.33       0.0  T
   2    -11.2750175  0.119938E-03  0.133E-01    0.34       1.0  T
   3    -11.2748203  0.197215E-03  0.190E-01    0.33       1.0  T
   4    -11.2750917 -0.271395E-03  0.934E-02    0.33       1.0  T
   5    -11.2751631 -0.714234E-04  0.102E-02    0.33       4.4  T
   6    -11.2751637 -0.562721E-06  0.474E-03    0.33       9.4  T
   7    -11.2751637 -0.316021E-07  0.646E-04    0.33      69.3  T
   8    -11.2751637 -0.555595E-09  0.376E-04    0.33     118.8  T
     SCC iter.                  ...        0 min,  0.001 sec
     gradient                   ...        0 min,  0.001 sec
 * total energy  :   -11.0709444 Eh     change       -0.3827251E-04 Eh
   gradient norm :     0.0059036 Eh/α   predicted    -0.4081355E-04 (   6.64%)
   displ. norm   :     0.0331167 α      lambda       -0.5939132E-04
   maximum displ.:     0.0231990 α      in ANC's #3, #2, #5, ...

........................................................................
.............................. CYCLE   31 ..............................
........................................................................
   1    -11.2743676 -0.112744E+02  0.150E-01    0.32       0.0  T
   2    -11.2743384  0.292127E-04  0.957E-02    0.33       1.0  T
   3    -11.2736176  0.720784E-03  0.269E-01    0.32       1.0  T
   4    -11.2743659 -0.748298E-03  0.254E-02    0.33       1.8  T
   5    -11.2743716 -0.572618E-05  0.467E-03    0.33       9.6  T
   6    -11.2743717 -0.229159E-07  0.158E-03    0.33      28.3  T
   7    -11.2743717 -0.654500E-08  0.103E-03    0.33      43.5  T
   8    -11.2743717 -0.562279E-08  0.305E-04    0.33     146.8  T
   9    -11.2743717 -0.269718E-09  0.151E-04    0.33     295.9  T
     SCC iter.                  ...        0 min,  0.001 sec
     gradient                   ...        0 min,  0.001 sec
 * total energy  :   -11.0709716 Eh     change       -0.2721300E-04 Eh
   gradient norm :     0.0060067 Eh/α   predicted    -0.2972774E-04 (   9.24%)
   displ. norm   :     0.0094939 α      lambda       -0.2450768E-04
   maximum displ.:     0.0071180 α      in ANC's #2, #4, #6, ...

........................................................................
.............................. CYCLE   32 ..............................
........................................................................
   1    -11.2745080 -0.112745E+02  0.598E-02    0.32       0.0  T
   2    -11.2742797  0.228308E-03  0.146E-01    0.32       1.0  T
   3    -11.2745116 -0.231859E-03  0.411E-02    0.32       1.1  T
   4    -11.2745224 -0.108029E-04  0.157E-02    0.32       2.9  T
   5    -11.2745237 -0.132469E-05  0.384E-03    0.32      11.6  T
   6    -11.2745237 -0.449837E-07  0.270E-03    0.32      16.6  T
   7    -11.2745238 -0.311898E-07  0.476E-04    0.32      93.9  T
   8    -11.2745238 -0.808841E-09  0.241E-04    0.32     185.5  T
     SCC iter.                  ...        0 min,  0.001 sec
     gradient                   ...        0 min,  0.001 sec
 * total energy  :   -11.0709904 Eh     change       -0.1877095E-04 Eh
   gradient norm :     0.0036063 Eh/α   predicted    -0.1225438E-04 ( -34.72%)
   displ. norm   :     0.0114579 α      lambda       -0.2618700E-04
   maximum displ.:     0.0083363 α      in ANC's #4, #8, #5, ...

........................................................................
.............................. CYCLE   33 ..............................
........................................................................
   1    -11.2746501 -0.112747E+02  0.741E-02    0.32       0.0  T
   2    -11.2744690  0.181074E-03  0.138E-01    0.32       1.0  T
   3    -11.2746495 -0.180525E-03  0.480E-02    0.32       1.0  T
   4    -11.2746623 -0.128128E-04  0.153E-02    0.32       2.9  T
   5    -11.2746633 -0.950871E-06  0.368E-03    0.32      12.1  T
   6    -11.2746633  0.334574E-07  0.254E-03    0.32      17.6  T
   7    -11.2746633 -0.388918E-07  0.764E-04    0.32      58.5  T
   8    -11.2746633 -0.280562E-08  0.405E-04    0.32     110.5  T
     SCC iter.                  ...        0 min,  0.001 sec
     gradient                   ...        0 min,  0.001 sec
 * total energy  :   -11.0710063 Eh     change       -0.1588688E-04 Eh
   gradient norm :     0.0018073 Eh/α   predicted    -0.1309680E-04 ( -17.56%)
   displ. norm   :     0.0114895 α      lambda       -0.6124796E-05
   maximum displ.:     0.0062873 α      in ANC's #4, #6, #1, ...

........................................................................
.............................. CYCLE   34 ..............................
........................................................................
   1    -11.2746240 -0.112746E+02  0.620E-02    0.31       0.0  T
   2    -11.2746215  0.256487E-05  0.377E-02    0.31       1.2  T
   3    -11.2744986  0.122905E-03  0.108E-01    0.31       1.0  T
   4    -11.2746241 -0.125528E-03  0.699E-03    0.31       6.4  T
   5    -11.2746244 -0.312984E-06  0.362E-03    0.31      12.3  T
   6    -11.2746244 -0.272501E-07  0.221E-03    0.31      20.3  T
   7    -11.2746244 -0.235652E-07  0.512E-04    0.31      87.3  T
   8    -11.2746244 -0.155449E-08  0.225E-04    0.31     198.5  T
     SCC iter.                  ...        0 min,  0.001 sec
     gradient                   ...        0 min,  0.001 sec
 * total energy  :   -11.0710122 Eh     change       -0.5943232E-05 Eh
   gradient norm :     0.0019630 Eh/α   predicted    -0.3061892E-05 ( -48.48%)
   displ. norm   :     0.0089570 α      lambda       -0.4833957E-05
   maximum displ.:     0.0047203 α      in ANC's #6, #4, #3, ...

........................................................................
.............................. CYCLE   35 ..............................
........................................................................
   1    -11.2744633 -0.112745E+02  0.492E-02    0.32       0.0  T
   2    -11.2744101  0.532046E-04  0.733E-02    0.32       1.0  T
   3    -11.2744437 -0.336000E-04  0.520E-02    0.32       1.0  T
   4    -11.2744665 -0.228103E-04  0.733E-03    0.32       6.1  T
   5    -11.2744668 -0.299786E-06  0.229E-03    0.32      19.5  T
   6    -11.2744668 -0.740472E-08  0.184E-03    0.32      24.3  T
   7    -11.2744668 -0.153003E-07  0.184E-04    0.32     243.4  T
   8    -11.2744668 -0.883080E-10  0.830E-05    0.32     538.8  T
     SCC iter.                  ...        0 min,  0.001 sec
     gradient                   ...        0 min,  0.001 sec
 * total energy  :   -11.0710176 Eh     change       -0.5343356E-05 Eh
   gradient norm :     0.0013546 Eh/α   predicted    -0.2416546E-05 ( -54.77%)
   displ. norm   :     0.0135688 α      lambda       -0.4496030E-05
   maximum displ.:     0.0106599 α      in ANC's #3, #4, #6, ...

........................................................................
.............................. CYCLE   36 ..............................
........................................................................
   1    -11.2742200 -0.112742E+02  0.680E-02    0.32       0.0  T
   2    -11.2741596  0.604208E-04  0.843E-02    0.32       1.0  T
   3    -11.2741747 -0.150765E-04  0.731E-02    0.32       1.0  T
   4    -11.2742240 -0.492789E-04  0.515E-03    0.32       8.7  T
   5    -11.2742241 -0.993527E-07  0.249E-03    0.32      17.9  T
   6    -11.2742240  0.110242E-07  0.221E-03    0.32      20.3  T
   7    -11.2742241 -0.291872E-07  0.192E-04    0.32     232.9  T
   8    -11.2742241 -0.870060E-11  0.107E-04    0.32     416.2  T
     SCC iter.                  ...        0 min,  0.001 sec
     gradient                   ...        0 min,  0.001 sec
 * total energy  :   -11.0710216 Eh     change       -0.4058331E-05 Eh
   gradient norm :     0.0005763 Eh/α   predicted    -0.2247645E-05 ( -44.62%)
   displ. norm   :     0.0078433 α      lambda       -0.8223086E-06
   maximum displ.:     0.0072992 α      in ANC's #3, #4, #6, ...

   *** GEOMETRY OPTIMIZATION CONVERGED AFTER 36 ITERATIONS ***

------------------------------------------------------------------------
 total energy gain   :        -0.1476555 Eh      -92.6552 kcal/mol
 total RMSD          :         1.3239773 a0        0.7006 Å
 total power (kW/mol):       -10.7685959 (step)-2842.5840 (real)
------------------------------------------------------------------------

 ANCopt (total)                0 d,  0 h,  0 min,  0.136 sec
 optimizer setup                ...        0 min,  0.000 sec (  0.048%)
 model hessian                  ...        0 min,  0.000 sec (  0.090%)
 ANC generation                 ...        0 min,  0.000 sec (  0.066%)
 coordinate transformation      ...        0 min,  0.000 sec (  0.053%)
 single point calculation       ...        0 min,  0.134 sec ( 97.878%)
 optimization log               ...        0 min,  0.001 sec (  0.612%)
 hessian update                 ...        0 min,  0.000 sec (  0.051%)
 rational function              ...        0 min,  0.001 sec (  0.548%)

================
 final structure:
================
5
 xtb: 6.2.2 (9d81278992624c895f80dd42a50cac0aa55982e2)
C         2.00792984663036    0.20626040086248    0.13761194691365
C         0.73998416896627    0.27920935924304    0.03274191049863
C        -0.73663179148708   -0.28813081725852   -0.03303774193123
N        -0.37701660100503    0.99458713534369   -0.11065017193716
C        -1.63426562310451   -1.19192607819069   -0.02666594354389

 Bond Distances (Angstroems)
 ---------------------------
C1-C2=1.2744         C2-C1=1.2744         C2-C3=1.5832         C2-N4=1.3342         C3-C2=1.5832         C3-N4=1.3344         
C3-C5=1.2738         N4-C2=1.3342         N4-C3=1.3344         C5-C3=1.2738         
 C  C  Rav=1.3771 sigma=0.1457  Rmin=1.2738  Rmax=1.5832     3
 N  C  Rav=1.3343 sigma=0.0001  Rmin=1.3342  Rmax=1.3344     2

 selected bond angles (degree)
 --------------------
C3-C2-C1=155.63                N4-C2-C1=150.76                N4-C2-C3= 53.62                N4-C3-C2= 53.60                
C5-C3-C2=155.68                C5-C3-N4=150.72                C3-N4-C2= 72.78                

 selected dihedral angles (degree)
 ---------------------------------
N4-C3-C2-C1=179.72            C5-C3-C2-C1=359.79            C5-C3-C2-N4=180.07            C3-N4-C2-C1=180.23            
C2-N4-C3-C5=179.94            
           -------------------------------------------------
          |                Final Singlepoint                |
           -------------------------------------------------

          ...................................................
          :                      SETUP                      :
          :.................................................:
          :  # basis functions                  20          :
          :  # atomic orbitals                  20          :
          :  # shells                           10          :
          :  # electrons                        21          :
          :  max. iterations                   250          :
          :  Hamiltonian                  GFN2-xTB          :
          :  restarted?                      false          :
          :  GBSA solvation                  false          :
          :  PC potential                    false          :
          :  electronic temp.          300.0000000     K    :
          :  accuracy                    1.0000000          :
          :  -> integral cutoff          0.2500000E+02      :
          :  -> integral neglect         0.1000000E-07      :
          :  -> SCF convergence          0.1000000E-05 Eh   :
          :  -> wf. convergence          0.1000000E-03 e    :
          :  Broyden damping             0.4000000          :
          ...................................................

 iter      E             dE          RMSdq      gap      omega  full diag
   1    -11.2742241 -0.112742E+02  0.411E-05    0.32       0.0  T
   2    -11.2742241  0.385327E-10  0.616E-05    0.32     725.9  T
   3    -11.2742241 -0.143654E-10  0.546E-05    0.32     819.3  T

   *** convergence criteria satisfied after 3 iterations ***

         #    Occupation            Energy/Eh            Energy/eV
      -------------------------------------------------------------
         1        2.0000           -0.7551395             -20.5484
       ...           ...                  ...                  ...
         5        2.0000           -0.5962900             -16.2259
         6        2.0000           -0.5922687             -16.1165
         7        2.0000           -0.4879346             -13.2774
         8        2.0000           -0.4792619             -13.0414
         9        2.0000           -0.4770156             -12.9803
        10        2.0000           -0.4690037             -12.7622
        11        0.9978           -0.4272099             -11.6250 (HOMO)
        12        0.0022           -0.4155539             -11.3078 (LUMO)
        13                         -0.3206243              -8.7246
        14                         -0.2420399              -6.5862
        15                         -0.2220977              -6.0436
        16                         -0.0853995              -2.3238
       ...                                ...                  ...
        20                          0.8537600              23.2320
      -------------------------------------------------------------
                  HL-Gap            0.0116561 Eh            0.3172 eV
             Fermi-level           -0.4347443 Eh          -11.8300 eV

 SCC (total)                   0 d,  0 h,  0 min,  0.003 sec
 SCC setup                      ...        0 min,  0.000 sec (  2.662%)
 Dispersion                     ...        0 min,  0.000 sec (  0.306%)
 integral evaluation            ...        0 min,  0.001 sec ( 43.141%)
 zeroth order Hamiltonian       ...        0 min,  0.000 sec (  0.579%)
 iterations                     ...        0 min,  0.000 sec ( 11.129%)
 molecular gradient             ...        0 min,  0.001 sec ( 40.592%)
 printout                       ...        0 min,  0.000 sec (  1.375%)

         :::::::::::::::::::::::::::::::::::::::::::::::::::::
         ::                     SUMMARY                     ::
         :::::::::::::::::::::::::::::::::::::::::::::::::::::
         :: total energy             -11.071021628728 Eh    ::
         :: gradient norm              0.000580651799 Eh/a0 ::
         :: HOMO-LUMO gap              0.317177816856 eV    ::
         ::.................................................::
         :: SCC energy               -11.274224077692 Eh    ::
         :: -> isotropic ES           -0.012515796319 Eh    ::
         :: -> anisotropic ES          0.003491412677 Eh    ::
         :: -> anisotropic XC          0.013189040290 Eh    ::
         :: -> dispersion             -0.002908589696 Eh    ::
         :: repulsion energy           0.203202421655 Eh    ::
         :: add. restraining           0.000000000000 Eh    ::
         :::::::::::::::::::::::::::::::::::::::::::::::::::::

           ------------------------------------------------- 
          |                Numerical Hessian                |
           ------------------------------------------------- 
step length          :   0.00500
SCC accuracy         :   0.30000
Hessian scale factor :   1.00000
frozen atoms in %    :   0.00000    0
RMS gradient         :   0.00058
estimated CPU  time      0.00 min
estimated wall time      0.00 min

writing file <hessian>.

 projected vibrational frequencies (cm-1)
eigval :       -0.00    -0.00    -0.00     0.00     0.00     0.00
eigval :      176.21   268.58   298.74   330.94   544.27   907.14
eigval :     1188.00  1587.94  1863.21
           -------------------------------------------------
          |                Property Printout                |
           -------------------------------------------------

    * Orbital Energies and Occupations

         #    Occupation            Energy/Eh            Energy/eV
      -------------------------------------------------------------
         1        2.0000           -0.7551397             -20.5484
         2        2.0000           -0.7009294             -19.0733
         3        2.0000           -0.6835879             -18.6014
         4        2.0000           -0.6033883             -16.4190
         5        2.0000           -0.5962901             -16.2259
         6        2.0000           -0.5922689             -16.1165
         7        2.0000           -0.4879346             -13.2774
         8        2.0000           -0.4792619             -13.0414
         9        2.0000           -0.4770156             -12.9803
        10        2.0000           -0.4690037             -12.7622
        11        0.9978           -0.4272100             -11.6250 (HOMO)
        12        0.0022           -0.4155538             -11.3078 (LUMO)
        13                         -0.3206242              -8.7246
        14                         -0.2420400              -6.5862
        15                         -0.2220977              -6.0436
        16                         -0.0853995              -2.3238
        17                          0.1077402               2.9318
        18                          0.1914416               5.2094
        19                          0.7768199              21.1383
        20                          0.8537600              23.2320
      -------------------------------------------------------------
                  HL-Gap            0.0116562 Eh            0.3172 eV
             Fermi-level           -0.4347443 Eh          -11.8300 eV

     #   Z        covCN         q      C6AA      α(0)
     1   6 C      0.982    -0.118    39.693    10.582
     2   6 C      2.859     0.158    24.577     8.126
     3   6 C      2.859     0.158    24.579     8.126
     4   7 N      1.822    -0.081    23.558     7.192
     5   6 C      0.982    -0.118    39.692    10.582

 Mol. C6AA /au·bohr⁶  :        747.690017
 Mol. C8AA /au·bohr⁸  :      20666.954737
 Mol. α(0) /au        :         44.608359


Wiberg/Mayer (AO) data.
largest (>0.10) Wiberg bond orders for each atom
          total WBO             WBO to atom ...
     1  C   2.512        C    2 1.968    C    5 0.237    N    4 0.159    C    3 0.149
     2  C   3.870        C    1 1.968    N    4 1.200    C    3 0.553    C    5 0.149
     3  C   3.870        C    5 1.969    N    4 1.199    C    2 0.553    C    1 0.149
     4  N   2.716        C    2 1.200    C    3 1.199    C    5 0.159    C    1 0.159
     5  C   2.514        C    3 1.969    C    1 0.237    N    4 0.159    C    2 0.149

MOs/occ written to file <molden.input>


molecular dipole:
                 x           y           z       tot (Debye)
 q only:       -0.024       0.064      -0.008
   full:       -0.013       0.035      -0.006       0.096
Molecule has the following symmetry elements: (C2) 2*(sigma) 
It seems to be the C2v point group
molecular quadrupole (traceless):
                xx          xy          yy          xz          yz          zz
 q only:       -1.829      -0.969       0.315      -0.178       0.026       1.514
  q+dip:       -4.630      -2.539       0.995      -0.428       0.025       3.636
   full:       -6.679      -3.717       1.560      -0.604       0.013       5.119

           -------------------------------------------------
          |                Geometry Summary                 |
           -------------------------------------------------

      molecular mass/u    :       62.0496468
   center of mass at/Å    :       -0.0121274       0.0319932      -0.0035593
  moments of inertia/u·Å² :        0.2269189E+02   0.1066199E+03   0.1293117E+03
rotational constants/cm⁻¹ :        0.7428925E+00   0.1581096E+00   0.1303643E+00

 * 4 selected distances

     #   Z        #   Z                                     value/Å
     1   6 C      2   6 C                                 1.2743648
     2   6 C      4   7 N                                 1.3341729
     3   6 C      4   7 N                                 1.3344333 (max)
     3   6 C      5   6 C                                 1.2738261 (min)

 * 2 distinct bonds (by element types)

   Z      Z             #   av. dist./Å        max./Å        min./Å
   6 C    6 C           2     1.2740954     1.2743648     1.2738261
   6 C    7 N           2     1.3343031     1.3344333     1.3341729

           -------------------------------------------------
          |               Frequency Printout                |
           -------------------------------------------------
 projected vibrational frequencies (cm-1)
eigval :       -0.00    -0.00    -0.00     0.00     0.00     0.00
eigval :      176.21   268.58   298.74   330.94   544.27   907.14
eigval :     1188.00  1587.94  1863.21
 reduced masses (amu)
   1: 12.05   2: 13.55   3: 12.58   4: 12.02   5: 12.48   6: 12.29   7: 12.29   8: 12.24
   9: 12.27  10: 12.01  11: 12.09  12: 13.06  13: 12.97  14: 12.01  15: 12.24
 IR intensities (amu)
   1:  0.01   2:  0.01   3:  0.05   4:  0.03   5:  0.02   6:  0.01   7:  0.45   8:  0.74
   9:  0.06  10:  0.02  11:  0.01  12:  0.75  13:  0.03  14:  0.59  15:  0.86
 Raman intensities (amu)
   1:  0.00   2:  0.00   3:  0.00   4:  0.00   5:  0.00   6:  0.00   7:  0.00   8:  0.00
   9:  0.00  10:  0.00  11:  0.00  12:  0.00  13:  0.00  14:  0.00  15:  0.00
 output can be read by thermo (or use thermo option).
 writing <g98.out> molden fake output.
 recommended (thermochemical) frequency scaling factor: 1.0
           -------------------------------------------------
          |             Thermodynamic Functions             |
           -------------------------------------------------

c2v symmetry found (for desy threshold:  0.10E+00) used in thermo

          ...................................................
          :                      SETUP                      :
          :.................................................:
          :  # frequencies                           9      :
          :  # imaginary freq.                       0      :
          :  linear?                             false      :
          :  only rotor calc.                    false      :
          :  symmetry                              c2v      :
          :  rotational number                       2      :
          :  scaling factor                  1.0000000      :
          :  rotor cutoff                   50.0000000 cm⁻¹ :
          :  imag. cutoff                  -20.0000000 cm⁻¹ :
          :.................................................:

    mode    ω/cm⁻¹     T·S(HO)/kcal·mol⁻¹    T·S(FR)/kcal·mol⁻¹   T·S(vib)
   ------------------------------------------------------------------------
       1    176.21    -0.00000 ( 99.36%)     0.01082 (  0.64%)     0.00007
       2    268.58    -0.00000 ( 99.88%)     0.01501 (  0.12%)     0.00002
       3    298.74    -0.00000 ( 99.92%)     0.01606 (  0.08%)     0.00001
   ------------------------------------------------------------------------

   temp. (K)  partition function   enthalpy   heat capacity  entropy
                                   cal/mol     cal/K/mol   cal/K/mol   J/K/mol
 298.15  VIB   4.33                 1338.184      8.823      7.399
         ROT  0.214E+05              888.752      2.981     22.793
         INT  0.924E+05             2226.936     11.804     30.192
         TR   0.473E+27             1481.254      4.968     38.278
         TOT                        3708.1898    16.7720    68.4704   286.4801

   temp. (K)  partition function   enthalpy   heat capacity  entropy
                                   cal/mol     cal/K/mol   cal/K/mol   J/K/mol
 120.00  VIB   1.24                  146.272      3.775      1.658
         ROT  0.546E+04              357.707      2.981     20.080
         INT  0.679E+04              503.979      6.756     21.738
         TR   0.121E+27              596.178      4.968     33.759
         TOT                        1100.1566    11.7244    55.4968   232.1985

   temp. (K)  partition function   enthalpy   heat capacity  entropy
                                   cal/mol     cal/K/mol   cal/K/mol   J/K/mol
 100.00  VIB   1.13                   80.373      2.798      1.060
         ROT  0.415E+04              298.089      2.981     19.536
         INT  0.471E+04              378.462      5.778     20.597
         TR   0.919E+26              496.815      4.968     32.853
         TOT                         875.2772    10.7465    53.4501   223.6352

   temp. (K)  partition function   enthalpy   heat capacity  entropy
                                   cal/mol     cal/K/mol   cal/K/mol   J/K/mol
  80.00  VIB   1.06                   34.831      1.754      0.556
         ROT  0.297E+04              238.471      2.981     18.871
         INT  0.315E+04              273.302      4.735     19.427
         TR   0.657E+26              397.452      4.968     31.745
         TOT                         670.7540     9.7031    51.1728   214.1071

   temp. (K)  partition function   enthalpy   heat capacity  entropy
                                   cal/mol     cal/K/mol   cal/K/mol   J/K/mol
  60.00  VIB   1.02                    9.706      0.791      0.200
         ROT  0.193E+04              178.853      2.981     18.014
         INT  0.196E+04              188.560      3.772     18.214
         TR   0.427E+26              298.089      4.968     30.317
         TOT                         486.6485     8.7398    48.5309   203.0532

   temp. (K)  partition function   enthalpy   heat capacity  entropy
                                   cal/mol     cal/K/mol   cal/K/mol   J/K/mol
  40.00  VIB   1.00                    0.966      0.160      0.029
         ROT  0.105E+04              119.236      2.981     16.805
         INT  0.105E+04              120.202      3.141     16.834
         TR   0.232E+26              198.726      4.968     28.303
         TOT                         318.9275     8.1093    45.1374   188.8549

   temp. (K)  partition function   enthalpy   heat capacity  entropy
                                   cal/mol     cal/K/mol   cal/K/mol   J/K/mol
  20.00  VIB   1.00                    0.002      0.001     -0.005
         ROT   371.                   59.618      2.981     14.739
         INT   371.                   59.619      2.982     14.734
         TR   0.822E+25               99.363      4.968     24.861
         TOT                         158.9824     7.9500    39.5954   165.6673

   temp. (K)  partition function   enthalpy   heat capacity  entropy
                                   cal/mol     cal/K/mol   cal/K/mol   J/K/mol
  10.00  VIB   1.00                    0.000      0.000     -0.011
         ROT   131.                   29.809      2.981     12.673
         INT   131.                   29.809      2.981     12.662
         TR   0.290E+25               49.681      4.968     21.419
         TOT                          79.4904     7.9490    34.0809   142.5947

       T/K    H(0)-H(T)+PV         H(T)/Eh          T*S/Eh         G(T)/Eh
   ------------------------------------------------------------------------
    298.15    0.590938E-02    0.222325E-01    0.325325E-01   -0.103000E-01
    120.00    0.175321E-02    0.180763E-01    0.106128E-01    0.746357E-02
    100.00    0.139484E-02    0.177180E-01    0.851781E-02    0.920015E-02
     80.00    0.106891E-02    0.173920E-01    0.652393E-02    0.108681E-01
     60.00    0.775524E-03    0.170986E-01    0.464033E-02    0.124583E-01
     40.00    0.508243E-03    0.168314E-01    0.287724E-02    0.139541E-01
     20.00    0.253355E-03    0.165765E-01    0.126199E-02    0.153145E-01
     10.00    0.126676E-03    0.164498E-01    0.543114E-03    0.159067E-01 (used)
   ------------------------------------------------------------------------

         :::::::::::::::::::::::::::::::::::::::::::::::::::::
         ::                  THERMODYNAMIC                  ::
         :::::::::::::::::::::::::::::::::::::::::::::::::::::
         :: total free energy         -11.055114944660 Eh   ::
         ::.................................................::
         :: total energy              -11.071021628496 Eh   ::
         :: zero point energy           0.016323122278 Eh   ::
         :: G(RRHO) w/o ZPVE           -0.000416438441 Eh   ::
         :: G(RRHO) contrib.            0.015906683837 Eh   ::
         :::::::::::::::::::::::::::::::::::::::::::::::::::::

optimized geometry written to: xtbopt.xyz


           -------------------------------------------------
          | TOTAL ENERGY              -11.071021628496 Eh   |
          | TOTAL ENTHALPY            -11.054571830203 Eh   |
          | TOTAL FREE ENERGY         -11.055114944660 Eh   |
          | GRADIENT NORM               0.000582997052 Eh/α |
          | HOMO-LUMO GAP               0.317180110776 eV   |
           -------------------------------------------------

------------------------------------------------------------------------
 * finished run on 2020/05/12 at 11:44:09.622     
------------------------------------------------------------------------
 total:
 * wall-time:     0 d,  0 h,  0 min,  0.266 sec
 *  cpu-time:     0 d,  0 h,  0 min,  0.266 sec
 * ratio c/w:     0.998 speedup
 SCF:
 * wall-time:     0 d,  0 h,  0 min,  0.006 sec
 *  cpu-time:     0 d,  0 h,  0 min,  0.005 sec
 * ratio c/w:     0.995 speedup
 ANC optimizer:
 * wall-time:     0 d,  0 h,  0 min,  0.140 sec
 *  cpu-time:     0 d,  0 h,  0 min,  0.140 sec
 * ratio c/w:     0.999 speedup
 numerical hessian:
 * wall-time:     0 d,  0 h,  0 min,  0.100 sec
 *  cpu-time:     0 d,  0 h,  0 min,  0.100 sec
 * ratio c/w:     0.997 speedup

