$hessian                                                                        
        0.6511420971  -0.0251317543   0.0521788764  -0.5261934385  -0.0141417754
       -0.0388595430  -0.0292227828   0.0540948504  -0.0068727809  -0.0913679075
       -0.0105974268  -0.0064025035  -0.0043579684  -0.0042238939  -0.0000440489
       -0.0251317543   0.0110544492  -0.0022099402   0.0071862489  -0.0121437711
        0.0003250877   0.0042811681  -0.0035785947   0.0007768363   0.0148792831
        0.0028781255   0.0012737828  -0.0012149458   0.0017897911  -0.0001657666
        0.0521788764  -0.0022099402   0.0123154339  -0.0404578868  -0.0013733508
       -0.0185257303  -0.0027141894   0.0047138368   0.0013535768  -0.0086805203
       -0.0007304508   0.0038408068  -0.0003262799  -0.0004000950   0.0010159128
       -0.5261934385   0.0071862489  -0.0404578868   0.8161220375  -0.1033534750
        0.0691230914  -0.1186456389  -0.1901584499   0.0075529072  -0.1822739981
        0.2776217688  -0.0361361595   0.0109910379   0.0087039072  -0.0000819523
       -0.0141417754  -0.0121437711  -0.0013733508  -0.1033534750   0.1239298180
       -0.0153505876   0.0259195329   0.0654218157  -0.0044294014   0.1327852909
       -0.1326638016   0.0203968812  -0.0412095734  -0.0445440610   0.0007564587
       -0.0388595430   0.0003250877  -0.0185257303   0.0691230914  -0.0153505876
        0.0381166274  -0.0103749431  -0.0209297800  -0.0104093532  -0.0239965370
        0.0314657646  -0.0110368321   0.0041079318   0.0044895154   0.0018552882
       -0.0292227828   0.0042811681  -0.0027141894  -0.1186456389   0.0259195329
       -0.0103749431   0.4071698521   0.3590960455  -0.0008998653   0.0433638105
       -0.1209456591   0.0137125229  -0.3026652409  -0.2683510874   0.0002764750
        0.0540948504  -0.0035785947   0.0047138368  -0.1901584499   0.0654218157
       -0.0209297800   0.3590960455   0.5391849170  -0.0143963822   0.0239818793
       -0.3606382526   0.0308078937  -0.2470143252  -0.2403898853  -0.0001955683
       -0.0068727809   0.0007768363   0.0013535768   0.0075529072  -0.0044294014
       -0.0104093532  -0.0008998653  -0.0143963822   0.0323746720   0.0016584356
        0.0198246465  -0.0080255053  -0.0014386966  -0.0017756992  -0.0152933903
       -0.0913679075   0.0148792831  -0.0086805203  -0.1822739981   0.1327852909
       -0.0239965370   0.0433638105   0.0239818793   0.0016584356   0.2778682510
       -0.1114562834   0.0299470999  -0.0475901559  -0.0601901699   0.0010715218
       -0.0105974268   0.0028781255  -0.0007304508   0.2776217688  -0.1326638016
        0.0314657646  -0.1209456591  -0.3606382526   0.0198246465  -0.1114562834
        0.5319563377  -0.0516686352  -0.0346223995  -0.0415324089   0.0011086749
       -0.0064025035   0.0012737828   0.0038408068  -0.0361361595   0.0203968812
       -0.0110368321   0.0137125229   0.0308078937  -0.0080255053   0.0299470999
       -0.0516686352   0.0108318447  -0.0011209597  -0.0008099225   0.0043896859
       -0.0043579684  -0.0012149458  -0.0003262799   0.0109910379  -0.0412095734
        0.0041079318  -0.3026652409  -0.2470143252  -0.0014386966  -0.0475901559
       -0.0346223995  -0.0011209597   0.3436223273   0.3240612440  -0.0012219956
       -0.0042238939   0.0017897911  -0.0004000950   0.0087039072  -0.0445440610
        0.0044895154  -0.2683510874  -0.2403898853  -0.0017756992  -0.0601901699
       -0.0415324089  -0.0008099225   0.3240612440   0.3246765641  -0.0015037986
       -0.0000440489  -0.0001657666   0.0010159128  -0.0000819523   0.0007564587
        0.0018552882   0.0002764750  -0.0001955683  -0.0152933903   0.0010715218
        0.0011086749   0.0043896859  -0.0012219956  -0.0015037986   0.0080325034
