[Molden Format]
[Title]
[Atoms] AU
C      1     6  0.37944400840729E+01  0.38975621805610E+00  0.26003494164299E+00
C      2     6  0.13983702647726E+01  0.52762195759423E+00  0.61867435789079E-01
C      3     6 -0.13920352802839E+01 -0.54448110245748E+00 -0.62426468812751E-01
N      4     7 -0.71244894310186E+00  0.18795004839473E+01 -0.20909929459580E+00
C      5     6 -0.30883261254597E+01 -0.22523975571401E+01 -0.50376614023520E-01
[GTO]
           1 0
 s           4   1.0000000000000000     
   51.049363095579913      -0.16312063210127389     
   8.7911227406887544      -0.19911024581000730     
  0.70640422258929825       0.31882047753655751     
  0.26922813413411617       0.12706504184240380     
 p           4   1.0000000000000000     
   5.8263656140800002       0.73716451545209605     
   1.5106896018720002       0.68216371614850257     
  0.53256483288000001       0.35783053929253711     
  0.21202323690600003        5.3983030275847881E-002

           2 0
 s           4   1.0000000000000000     
   51.049363095579913      -0.16312063210127389     
   8.7911227406887544      -0.19911024581000730     
  0.70640422258929825       0.31882047753655751     
  0.26922813413411617       0.12706504184240380     
 p           4   1.0000000000000000     
   5.8263656140800002       0.73716451545209605     
   1.5106896018720002       0.68216371614850257     
  0.53256483288000001       0.35783053929253711     
  0.21202323690600003        5.3983030275847881E-002

           3 0
 s           4   1.0000000000000000     
   51.049363095579913      -0.16312063210127389     
   8.7911227406887544      -0.19911024581000730     
  0.70640422258929825       0.31882047753655751     
  0.26922813413411617       0.12706504184240380     
 p           4   1.0000000000000000     
   5.8263656140800002       0.73716451545209605     
   1.5106896018720002       0.68216371614850257     
  0.53256483288000001       0.35783053929253711     
  0.21202323690600003        5.3983030275847881E-002

           4 0
 s           4   1.0000000000000000     
   63.594024466941008      -0.19234388414721629     
   10.951417231523665      -0.23478107924953728     
  0.87999310257376984       0.37593753901700888     
  0.33538715296521110       0.14982889271862770     
 p           4   1.0000000000000000     
   7.2965040481495080       0.97658666315667420     
   1.8918745450712575       0.90372226730345739     
  0.66694432110824120       0.47404958461536373     
  0.26552202674130870        7.1516067715011844E-002

           5 0
 s           4   1.0000000000000000     
   51.049363095579913      -0.16312063210127389     
   8.7911227406887544      -0.19911024581000730     
  0.70640422258929825       0.31882047753655751     
  0.26922813413411617       0.12706504184240380     
 p           4   1.0000000000000000     
   5.8263656140800002       0.73716451545209605     
   1.5106896018720002       0.68216371614850257     
  0.53256483288000001       0.35783053929253711     
  0.21202323690600003        5.3983030275847881E-002

[MO]
Sym=     1a
Ene=  -0.75513965919740322     
Spin= Alpha
Occup=     2.00000000
           1   6.0943705455994000E-002
           2  -5.0232578312415954E-002
           3   4.8636601917254416E-003
           4  -4.2742045147957462E-003
           5  0.33009920592516090     
           6 -0.16504233228046128     
           7   2.8296733573234815E-002
           8  -1.4786474765346173E-002
           9  0.33007757092343731     
          10  0.10428049150339930     
          11  0.13172537233753645     
          12  -2.8333495902758640E-003
          13  0.41090059488617137     
          14   8.8403451614945547E-002
          15 -0.23321128579751929     
          16   2.5817704599971576E-002
          17   6.1024055195842267E-002
          18   3.4292905407808397E-002
          19   3.7340294145058857E-002
          20  -4.6467490583289826E-004
Sym=     2a
Ene=  -0.70092941548533594     
Spin= Alpha
Occup=     2.00000000
           1  0.35503010135808061     
           2 -0.12212477148045328     
           3   1.8246311574075531E-002
           4  -1.1010031490770091E-002
           5  0.33123713070106414     
           6  0.17386064367247275     
           7   5.3381275523236266E-002
           8   9.1692155431147594E-003
           9 -0.33130409509433972     
          10  0.16517567653880905     
          11   7.6911705421184112E-002
          12   6.2473494904348465E-003
          13   1.3513423752953120E-004
          14  0.17417334949182695     
          15   6.6875634820465546E-002
          16   7.8625103504676459E-003
          17 -0.35520374157053569     
          18  -7.9128649685195424E-002
          19  -9.5525056009169204E-002
          20   1.8779955950075889E-003
Sym=     3a
Ene=  -0.68358786350193113     
Spin= Alpha
Occup=     2.00000000
           1 -0.40530580162612090     
           2  0.11222796130178141     
           3   4.8333523986903290E-003
           4   8.3607597496942535E-003
           5 -0.21653706252468771     
           6 -0.24535155598089897     
           7   8.2338443986922666E-002
           8  -2.5826891615129952E-002
           9 -0.21643434337748044     
          10  0.12843932439223751     
          11  0.22569732661101738     
          12  -8.9008549560478135E-003
          13  0.22284692371589890     
          14   5.5933373508648609E-003
          15  -1.4629102048270053E-002
          16   1.4196621713870405E-003
          17 -0.40480214658615987     
          18  -8.6896521826011514E-002
          19  -7.1536037424305185E-002
          20  -7.0299414198337468E-004
Sym=     4a
Ene=  -0.60338829741569544     
Spin= Alpha
Occup=     2.00000000
           1 -0.27056367353818567     
           2  -2.6236465944199965E-002
           3   9.4820711562166177E-002
           4  -9.9072532741313370E-003
           5  0.14120764931614257     
           6 -0.17543082283805503     
           7  0.27693012368898556     
           8  -3.6727020576456056E-002
           9 -0.14155087396662813     
          10   5.0447500955890359E-002
          11 -0.32364755012603302     
          12   2.9938124761727712E-002
          13   1.1711554259072874E-003
          14  0.53380790193607164     
          15  0.20569471309106754     
          16   2.3118970619067675E-002
          17  0.27142131940594677     
          18   4.2751210678088215E-002
          19  -8.8061521770457424E-002
          20   1.0309600602375426E-002
Sym=     5a
Ene=  -0.59629011922943076     
Spin= Alpha
Occup=     2.00000000
           1 -0.17425425514488974     
           2  -3.5522585073303137E-002
           3 -0.12967729361759986     
           4   7.2681337729551924E-003
           5  0.12043064610190719     
           6 -0.16002884497538761     
           7 -0.36705255003345527     
           8   1.5848107369486181E-002
           9  0.11981591042283028     
          10  0.36270858569546016     
          11 -0.16798031214240672     
          12   3.9436783894407322E-002
          13 -0.50655219486428127     
          14   9.6845363258282094E-002
          15 -0.25119804031621301     
          16   2.5402853843251600E-002
          17 -0.17280620990849804     
          18  0.11257908552449576     
          19  -7.3476093002553200E-002
          20   1.3943932203665989E-002
Sym=     6a
Ene=  -0.59226887031552944     
Spin= Alpha
Occup=     2.00000000
           1   1.2924310056479657E-003
           2   1.1531329985173103E-002
           3  -1.1537768154332681E-002
           4 -0.14649016181076266     
           5  -1.6700421818334918E-004
           6   3.2970750147408939E-002
           7  -3.2749714351047260E-002
           8 -0.41584887138570459     
           9  -2.3551071348719231E-004
          10   2.9806029687447874E-002
          11  -3.2980100341257548E-002
          12 -0.41597488249790132     
          13   2.2021202403934540E-003
          14   4.1830037826778917E-002
          15  -4.5280615422262714E-002
          16 -0.56456500736724469     
          17   5.5930927448864126E-004
          18   1.0529982355222060E-002
          19  -1.1568837766891459E-002
          20 -0.14664740538494364     
Sym=     7a
Ene=  -0.48793464982436985     
Spin= Alpha
Occup=     2.00000000
           1  0.11634792826679480     
           2   7.6273064053349895E-002
           3 -0.31568595192670634     
           4   3.2140167227217194E-002
           5  -4.2274139876275450E-002
           6  -4.4372754270038083E-002
           7 -0.30992947746586763     
           8   2.2299310150165005E-002
           9  -4.0851578854904064E-002
          10  0.23864682160471323     
          11 -0.20268399326227182     
          12   3.4479775329817428E-002
          13  0.50804177584635768     
          14 -0.18136510755620130     
          15  0.47925803996092803     
          16  -5.3186802493297519E-002
          17  0.11375790612742762     
          18  0.15443957195510216     
          19 -0.28580810646303845     
          20   3.4962790702596440E-002
Sym=     8a
Ene=  -0.47926190259512064     
Spin= Alpha
Occup=     2.00000000
           1  0.42366954407475022     
           2  0.43733880403172826     
           3  0.16246042188958140     
           4   2.9098829248612734E-002
           5 -0.20662503829007769     
           6  -7.0050734149707083E-002
           7  0.18466959292425114     
           8  -1.2496943272376833E-002
           9  0.20601549366817618     
          10   6.9862093409135004E-002
          11 -0.18241594404892758     
          12   1.2323601197379819E-002
          13  -1.9093228437172826E-003
          14  0.11957674071460873     
          15   4.3240675918565258E-002
          16   5.2731452649687725E-003
          17 -0.42174958171675253     
          18  0.43151407754976001     
          19  0.17191005423146249     
          20   1.0378997539453467E-002
Sym=     9a
Ene=  -0.47701561985190383     
Spin= Alpha
Occup=     2.00000000
           1   6.1196001110890227E-003
           2   4.3167070189303249E-002
           3  -3.5809777632607502E-002
           4 -0.47055369970966349     
           5  -2.8490253741393023E-003
           6   3.3704710448586958E-002
           7  -3.3592927344610501E-002
           8 -0.44729911465755307     
           9   3.9459093434738189E-003
          10  -3.2875396231518181E-002
          11   3.3081760472117305E-002
          12  0.44762991437738064     
          13   6.8012097135707506E-004
          14   1.5928881000304537E-003
          15   1.8050898983972058E-003
          16  -4.3759853104501621E-004
          17  -8.5871340271289742E-003
          18  -2.6937664099909660E-002
          19   4.2579814229721145E-002
          20  0.47168775209535024     
Sym=    10a
Ene=  -0.46900365950738898     
Spin= Alpha
Occup=     2.00000000
           1 -0.42425420861337138     
           2 -0.46302517785574471     
           3   3.1198799002817454E-002
           4  -3.7477222991432864E-002
           5  0.12994143595505220     
           6  0.15941206159231119     
           7  -1.3959584284914594E-002
           8   1.4594326109787188E-002
           9  0.13129693284825034     
          10 -0.10875616611386679     
          11 -0.11849732336753956     
          12  -6.5031849941431832E-005
          13  0.11170566057503244     
          14 -0.10485174522932250     
          15  0.27692038253345952     
          16  -2.9998757696124739E-002
          17 -0.42675282374669699     
          18  0.32793217105910166     
          19  0.33395547803270142     
          20  -4.4875444184329285E-003
Sym=    11a
Ene=  -0.42720998205863903     
Spin= Alpha
Occup=     0.99783797
           1  -2.5891744630542876E-004
           2  -3.8687501625647630E-002
           3   3.9616249410820308E-002
           4  0.48929653733686607     
           5   7.4046259103761249E-005
           6  -1.4527721363566759E-002
           7   1.5299692530043162E-002
           8  0.18856491673510695     
           9  -1.0510434075505513E-004
          10  -1.4680093793794089E-002
          11   1.5428538262788821E-002
          12  0.18829912261563145     
          13  -1.0033116435051636E-004
          14   5.0789120563937779E-002
          15  -5.4146585825537802E-002
          16 -0.66582889054203953     
          17  -3.1052602892031351E-004
          18  -3.7111787246419677E-002
          19   4.1007582912237994E-002
          20  0.48843329893957882     
Sym=    12a
Ene=  -0.41555382746771302     
Spin= Alpha
Occup=     0.00216203
           1  0.10322046130528525     
           2  0.14766583362361285     
           3 -0.58843641980453576     
           4   5.9283373065503797E-002
           5   6.0514540873008352E-002
           6 -0.14601418533128194     
           7 -0.13551357964152155     
           8  -4.1310278082771725E-004
           9  -6.0440277262957365E-002
          10 -0.19876177506339265     
          11   3.1095160448180821E-003
          12  -1.5406593623616781E-002
          13  -9.0231980741412002E-005
          14  0.34893073850227080     
          15  0.13423590333918040     
          16   1.6255947962042452E-002
          17 -0.10362943126918163     
          18 -0.27814142333224551     
          19  0.53795788375015907     
          20  -6.5716362040758342E-002
Sym=    13a
Ene=  -0.32062421754250253     
Spin= Alpha
Occup=     0.00000000
           1   2.5887931807038876E-002
           2  0.11631545652708103     
           3  0.61969454767523668     
           4  -4.1453424034732213E-002
           5   9.6547646112500801E-002
           6 -0.12140356063427558     
           7 -0.33903479206108961     
           8   1.8149213562663045E-002
           9   9.6536421300839698E-002
          10  0.31455209702674053     
          11 -0.17129196165580804     
          12   3.7807846231249387E-002
          13   3.3174433148166767E-002
          14 -0.12515248570779447     
          15  0.33131947354520164     
          16  -3.6335526421460713E-002
          17   2.5970058762541447E-002
          18 -0.49678018543828284     
          19  0.38477570371771963     
          20  -6.9081368868007323E-002
Sym=    14a
Ene=  -0.24203995516691557     
Spin= Alpha
Occup=     0.00000000
           1   6.1283214861936229E-005
           2  -3.9703069984963445E-002
           3   4.1956969422375402E-002
           4  0.51450719776533771     
           5   8.2904857413941221E-004
           6   4.1073068780095173E-002
           7  -4.3709417976993417E-002
           8 -0.53516278639220305     
           9  -3.2363364416620810E-005
          10   3.9684015868573223E-002
          11  -4.3177108336674153E-002
          12 -0.52972566621011608     
          13  -1.3868935626988206E-004
          14  -4.1178700418885661E-002
          15   4.4110777599196932E-002
          16  0.53859311283817135     
          17   5.9974465349964944E-006
          18  -3.8191211465689372E-002
          19   4.1554172546412090E-002
          20  0.50996042299939881     
Sym=    15a
Ene=  -0.22209766788412955     
Spin= Alpha
Occup=     0.00000000
           1  -3.3851162848323197E-005
           2   4.2165760273343310E-002
           3  -4.5207987668399216E-002
           4 -0.54947800914186662     
           5  -1.2271238547168655E-003
           6  -4.8512062941816411E-002
           7   5.2142362538978894E-002
           8  0.63421022167902508     
           9   5.9261781037607650E-004
          10   4.9048724171341158E-002
          11  -5.2596313556295009E-002
          12 -0.63885907048284041     
          13   1.1144424946746665E-004
          14   3.1052679422192243E-004
          15   1.9912703472761727E-004
          16   2.0823565817920282E-003
          17   1.6011850826332995E-005
          18  -4.2518449453878296E-002
          19   4.5689268360952696E-002
          20  0.55425905806625919     
Sym=    16a
Ene=   -8.5399501646333739E-002
Spin= Alpha
Occup=     0.00000000
           1  -3.8364388289393203E-002
           2  0.21999012094608419     
           3  0.35811483444941805     
           4  -1.3009548758887973E-002
           5  0.42652717786449978     
           6 -0.28186067154685912     
           7 -0.67005662444946368     
           8   3.4410907536914663E-002
           9 -0.42686844578002281     
          10 -0.65370291401276015     
          11  0.31072857192825232     
          12  -7.5501564144445921E-002
          13   1.2002841552873517E-004
          14  0.19374414785241020     
          15   7.4312167444174973E-002
          16   8.4180249507994093E-003
          17   3.8274607990148923E-002
          18  0.40136784094555955     
          19 -0.11998997155867742     
          20   4.0506563284988847E-002
Sym=    17a
Ene=   0.10774021633348220     
Spin= Alpha
Occup=     0.00000000
           1  0.12994771474031894     
           2 -0.29805641777055619     
           3  0.14799771640118950     
           4  -3.4781724594496161E-002
           5 -0.71295132801646066     
           6  0.24244699723408913     
           7 -0.36305605282036152     
           8   4.7166410707866112E-002
           9  0.71185968365519847     
          10  -5.9032432941205026E-002
          11  0.43399716877041022     
          12  -3.9618069874310824E-002
          13   1.0718100309831413E-004
          14  0.76603142667369306     
          15  0.29405892565421698     
          16   3.4298378938679833E-002
          17 -0.12925810847179556     
          18 -0.12366837654898169     
          19 -0.30963356123827263     
          20   1.5885201328814651E-002
Sym=    18a
Ene=   0.19144163710080031     
Spin= Alpha
Occup=     0.00000000
           1 -0.18468077517394474     
           2  0.33919432592089738     
           3 -0.16050874854799688     
           4   3.9146348702072793E-002
           5  0.68123174502309380     
           6 -0.12939755637617981     
           7  0.36762830732129381     
           8  -3.8989941339167410E-002
           9  0.68139734406408292     
          10 -0.14593522662944663     
          11  0.36259813968248189     
          12  -4.0653319200128615E-002
          13 -0.70645004272408263     
          14 -0.26231927728912163     
          15  0.69329851243103791     
          16  -7.6908220055873860E-002
          17 -0.18394560072778326     
          18 -0.14614594687314708     
          19 -0.34677229907647139     
          20   1.7373388694372889E-002
Sym=    19a
Ene=   0.77681989879464508     
Spin= Alpha
Occup=     0.00000000
           1 -0.58387478638207979     
           2  0.64651829668825778     
           3   1.3411688859765167E-002
           4   4.9456269905616870E-002
           5  0.39059667114538077     
           6  0.83672926368814793     
           7 -0.22830014293196821     
           8   8.3511311010987674E-002
           9  0.38810606668816472     
          10 -0.45900443641703220     
          11 -0.71633024997665673     
          12   2.3910017961885171E-002
          13  0.55007987751720666     
          14  0.17156899037967502     
          15 -0.44330699411426988     
          16   4.9019648515862900E-002
          17 -0.57232909632252205     
          18 -0.48264340675142026     
          19 -0.41442765919386848     
          20  -2.3810046385594535E-003
Sym=    20a
Ene=   0.85376001459642481     
Spin= Alpha
Occup=     0.00000000
           1 -0.61539043053946030     
           2  0.64860889523688425     
           3  -4.0726566376514090E-002
           4   5.4106055155078395E-002
           5  0.19745980643615471     
           6   1.0211362512112259     
           7  -4.9117510178975810E-002
           8   8.2926997969115929E-002
           9 -0.20711655607007032     
          10  0.73897030807312525     
          11  0.73506726549088841     
          12  -4.4545842065490679E-003
          13  -4.6147148530635970E-003
          14  0.25258609651543407     
          15  0.10122993005960045     
          16   1.0743912478114683E-002
          17  0.62782768926539345     
          18  0.46727613945541929     
          19  0.47404397737620668     
          20  -3.6238383526663895E-003
