$hessian                                                                        
        0.4280512164  -0.2648346753  -0.1344941433   0.0172087241   0.0098927881
        0.0310848410  -0.0041215685  -0.0140357545   0.0319308637  -0.4411383720
        0.2689776416   0.0714784386
       -0.2648346753   0.1704428162   0.0863184389  -0.0065774570  -0.0106939240
       -0.0213690804  -0.0019191413   0.0150317298  -0.0230834457   0.2733312735
       -0.1747806220  -0.0418659128
       -0.1344941433   0.0863184389   0.0931897994  -0.0428274581  -0.0426113722
       -0.0594010438   0.0159376477   0.0530213768  -0.0640122882   0.1613839537
       -0.0967284435   0.0302235326
        0.0172087241  -0.0065774570  -0.0428274581   0.1867360395   0.2857513611
        0.0200445271  -0.1741706470  -0.2913794738   0.0525833528  -0.0297741166
        0.0122055697  -0.0298004218
        0.0098927881  -0.0106939240  -0.0426113722   0.2857513611   0.4589832918
        0.0163839536  -0.2704238588  -0.4656447074   0.0616433156  -0.0252202904
        0.0173553396  -0.0354158970
        0.0310848410  -0.0213690804  -0.0594010438   0.0200445271   0.0163839536
        0.0459769311  -0.0018162102  -0.0260803715   0.0541177735  -0.0493131579
        0.0310654984  -0.0406936608
       -0.0041215685  -0.0019191413   0.0159376477  -0.1741706470  -0.2704238588
       -0.0018162102   0.1670290657   0.2731601101  -0.0297198652   0.0112631498
       -0.0008171100   0.0155984278
       -0.0140357545   0.0150317298   0.0530213768  -0.2913794738  -0.4656447074
       -0.0260803715   0.2731601101   0.4707325705  -0.0668454566   0.0322551181
       -0.0201195929   0.0399044514
        0.0319308637  -0.0230834457  -0.0640122882   0.0525833528   0.0616433156
        0.0541177735  -0.0297198652  -0.0668454566   0.0539371080  -0.0547943512
        0.0282855867  -0.0440425933
       -0.4411383720   0.2733312735   0.1613839537  -0.0297741166  -0.0252202904
       -0.0493131579   0.0112631498   0.0322551181  -0.0547943512   0.4596493388
       -0.2803661012  -0.0572764445
        0.2689776416  -0.1747806220  -0.0967284435   0.0122055697   0.0173553396
        0.0310654984  -0.0008171100  -0.0201195929   0.0282855867  -0.2803661012
        0.1775448753   0.0373773584
        0.0714784386  -0.0418659128   0.0302235326  -0.0298004218  -0.0354158970
       -0.0406936608   0.0155984278   0.0399044514  -0.0440425933  -0.0572764445
        0.0373773584   0.0545127216
