[Molden Format]
[Title]
[Atoms] AU
C      1     6 -0.74397650254916E+00  0.53247669393510E+00  0.16261605392974E+01
C      2     6 -0.90259790774738E+00 -0.94177176213112E+00 -0.13340772610561E+01
C      3     6  0.36300970601550E+00  0.11374661281714E+01 -0.14338817540994E+01
C      4     6  0.12835647042744E+01 -0.72817105997867E+00  0.11417965861322E+01
[GTO]
           1 0
 s           4   1.0000000000000000     
   51.049363095579913      -0.16312063210127389     
   8.7911227406887544      -0.19911024581000730     
  0.70640422258929825       0.31882047753655751     
  0.26922813413411617       0.12706504184240380     
 p           4   1.0000000000000000     
   5.8263656140800002       0.73716451545209605     
   1.5106896018720002       0.68216371614850257     
  0.53256483288000001       0.35783053929253711     
  0.21202323690600003        5.3983030275847881E-002

           2 0
 s           4   1.0000000000000000     
   51.049363095579913      -0.16312063210127389     
   8.7911227406887544      -0.19911024581000730     
  0.70640422258929825       0.31882047753655751     
  0.26922813413411617       0.12706504184240380     
 p           4   1.0000000000000000     
   5.8263656140800002       0.73716451545209605     
   1.5106896018720002       0.68216371614850257     
  0.53256483288000001       0.35783053929253711     
  0.21202323690600003        5.3983030275847881E-002

           3 0
 s           4   1.0000000000000000     
   51.049363095579913      -0.16312063210127389     
   8.7911227406887544      -0.19911024581000730     
  0.70640422258929825       0.31882047753655751     
  0.26922813413411617       0.12706504184240380     
 p           4   1.0000000000000000     
   5.8263656140800002       0.73716451545209605     
   1.5106896018720002       0.68216371614850257     
  0.53256483288000001       0.35783053929253711     
  0.21202323690600003        5.3983030275847881E-002

           4 0
 s           4   1.0000000000000000     
   51.049363095579913      -0.16312063210127389     
   8.7911227406887544      -0.19911024581000730     
  0.70640422258929825       0.31882047753655751     
  0.26922813413411617       0.12706504184240380     
 p           4   1.0000000000000000     
   5.8263656140800002       0.73716451545209605     
   1.5106896018720002       0.68216371614850257     
  0.53256483288000001       0.35783053929253711     
  0.21202323690600003        5.3983030275847881E-002

[MO]
Sym=     1a
Ene=  -0.73641237410774640     
Spin= Alpha
Occup=     2.00000000
           1  0.31334992873772011     
           2   8.3980865944501645E-002
           3  -5.6817106834541033E-002
           4 -0.11559273263303750     
           5  0.31333976097055954     
           6   8.1326175254896313E-002
           7   9.7902034308451347E-002
           8   8.6273133300754423E-002
           9  0.31333417217149828     
          10  -4.5735031831953057E-002
          11 -0.11080384873074006     
          12   9.6287753349198521E-002
          13  0.31334923140062260     
          14 -0.11957038593389084     
          15   6.9720241749528039E-002
          16  -6.6966318460094196E-002
Sym=     2a
Ene=  -0.65048051395113426     
Spin= Alpha
Occup=     2.00000000
           1  0.34852651241361460     
           2  0.15537476542468970     
           3  -8.9178789541900463E-002
           4  0.11682493583961007     
           5 -0.34852447488124999     
           6  -5.0418278777146226E-002
           7 -0.14032895181765320     
           8  0.15332109010292555     
           9 -0.34855216969174890     
          10  0.10775969554892190     
          11  0.11952685400267220     
          12  0.14083224220421398     
          13  0.34853128352723711     
          14  -9.8031958936816405E-002
          15   6.8369406931261409E-002
          16  0.17735892049888385     
Sym=     3a
Ene=  -0.57463699504359989     
Spin= Alpha
Occup=     2.00000000
           1 -0.30478360471253724     
           2   3.0282972021320770E-002
           3 -0.31087102468660582     
           4   4.1477397150240833E-002
           5  0.30967353831666272     
           6  0.12511004386799207     
           7 -0.28661672132939897     
           8   2.5841286846344926E-002
           9 -0.30966177263075173     
          10   9.8753907303490637E-002
          11 -0.27704959880318614     
          12 -0.10932588904075950     
          13  0.30475898170167759     
          14   4.3577644924224475E-003
          15 -0.30147344032964590     
          16  -9.1550276956178386E-002
Sym=     4a
Ene=  -0.57456018963587996     
Spin= Alpha
Occup=     2.00000000
           1  0.30949119166339017     
           2 -0.29224511057884944     
           3 -0.11279429551980029     
           4  -2.1357816858204072E-002
           5  0.30459318329428975     
           6 -0.28877723803093114     
           7  -2.6544191263171122E-002
           8  0.12365144173305885     
           9 -0.30458894318573654     
          10 -0.31463923083520967     
          11  -1.7157914975410547E-002
          12  -9.0948351462086536E-003
          13 -0.30951298380675257     
          14 -0.26593933246846319     
          15 -0.12233103825854770     
          16  0.11351728628861996     
Sym=     5a
Ene=  -0.52945031557554789     
Spin= Alpha
Occup=     2.00000000
           1  0.13107465131009999     
           2  0.15940128598967865     
           3  -7.9462336706003417E-002
           4  0.37198716747797350     
           5  0.13110119753792682     
           6  -2.4623661611974983E-002
           7  0.11294561731432204     
           8 -0.39589519697654607     
           9  0.13107802184001080     
          10 -0.12816998108097086     
          11  -5.7575933866316674E-002
          12 -0.38776268755483706     
          13  0.13107148001225602     
          14  -6.6529148166149382E-003
          15   2.4039331150856873E-002
          16  0.41167548383589414     
Sym=     6a
Ene=  -0.46858748612727974     
Spin= Alpha
Occup=     2.00000000
           1 -0.26530994973376110     
           2  -4.5478303797222647E-002
           3 -0.35568598646248084     
           4 -0.19410296353871886     
           5 -0.27878324750344557     
           6 -0.11705904774433588     
           7  0.30987179085096200     
           8  0.23158405870759341     
           9  0.27881995311813890     
          10 -0.18688736453127003     
          11  0.33524077955092990     
          12 -0.12673159427064362     
          13  0.26531046713634587     
          14   2.1001061641181620E-002
          15 -0.37979096087154091     
          16  0.14688581091660396     
Sym=     7a
Ene=  -0.46854032462149442     
Spin= Alpha
Occup=     2.00000000
           1  0.27858699133300913     
           2 -0.28474660847892364     
           3 -0.17136920617338361     
           4  0.23022430719850071     
           5 -0.26509944865043561     
           6  0.39509032390854237     
           7  -1.9343364531512582E-002
           8   9.9393784091442949E-002
           9  0.26513619023833757     
          10  0.32865691369777744     
          11   4.7930094994542045E-003
          12 -0.24151652955776642     
          13 -0.27859900861330311     
          14 -0.35459784898751623     
          15 -0.14604161775679422     
          16 -0.12802404194859143     
Sym=     8a
Ene=  -0.42437986479176881     
Spin= Alpha
Occup=     1.96915862
           1 -0.25645055867809013     
           2  0.35080822260103633     
           3 -0.22047555919422021     
           4 -0.13882266798261128     
           5  0.25646529102084326     
           6 -0.23574854116331415     
           7 -0.36630073898526339     
           8  -3.4791871054816792E-002
           9  0.25644035181955899     
          10  0.21522626765025302     
          11  0.37372069214053028     
          12  -7.0375818953774164E-002
          13 -0.25644557346281027     
          14 -0.37127886378362013     
          15  0.22795488388699336     
          16   3.3647617577551782E-002
Sym=     9a
Ene=  -0.41648215293054869     
Spin= Alpha
Occup=     0.03084138
           1  0.28655314385239850     
           2 -0.34470892081070431     
           3  0.21683725482697058     
           4  0.11995346182696144     
           5  0.28655753621850677     
           6 -0.22624301324983909     
           7 -0.35874026394869357     
           8  -1.8679061952504055E-002
           9  0.28653649703434309     
          10  0.21225137159434418     
          11  0.36378920133714993     
          12  -5.3066983410530025E-002
          13  0.28654888576310106     
          14  0.35871817883213181     
          15 -0.22187067184376277     
          16  -4.8191762254349756E-002
Sym=    10a
Ene=  -0.33719503918093158     
Spin= Alpha
Occup=     0.00000000
           1  -3.3056157013689960E-004
           2  0.28102405663196678     
           3  0.45945152463822586     
           4  -2.2192163234784863E-002
           5  -3.3291435863477316E-004
           6  0.44921670987458057     
           7 -0.27794124086649036     
           8 -0.10732008734941559     
           9  -3.3389206960634995E-004
          10 -0.44927637236112350     
          11  0.27796750025874689     
          12  0.10713976867549486     
          13  -3.3630524743654392E-004
          14 -0.28099584262531785     
          15 -0.45946458071972823     
          16   2.2379343008827556E-002
Sym=    11a
Ene=  -0.19532419409317830     
Spin= Alpha
Occup=     0.00000000
           1  0.29584045368229678     
           2  -5.5433899702254825E-002
           3  -1.1433826352132567E-002
           4 -0.54180775279247162     
           5 -0.29572052329006471     
           6 -0.12398102706170414     
           7  -2.9159959853474523E-002
           8 -0.52834979896051071     
           9 -0.29602085766341313     
          10  -8.2895350273646626E-002
          11  0.10385094596961499     
          12 -0.53040916520680526     
          13  0.29590511403863223     
          14 -0.15014146858089017     
          15   8.7502927568313155E-002
          16 -0.51709193391832786     
Sym=    12a
Ene=  -0.18959847635036708     
Spin= Alpha
Occup=     0.00000000
           1   9.3391189788684000E-003
           2  0.31183970819973789     
           3  0.51916011770014170     
           4  -4.8944552802474138E-002
           5  -8.8699760573518055E-003
           6 -0.50811516605011264     
           7  0.31276494301444280     
           8  0.10140645843510056     
           9  -8.0977324049990897E-003
          10  0.50940654332310298     
          11 -0.31396440334076470     
          12 -0.13286418203155398     
          13   7.6286520002208820E-003
          14 -0.32125173038956817     
          15 -0.51904236044381624     
          16   1.9666896982739816E-002
Sym=    13a
Ene=  -0.18919042334200947     
Spin= Alpha
Occup=     0.00000000
           1   5.2372619017951962E-002
           2 -0.28797251663436368     
           3 -0.14270882760985634     
           4 -0.51731567355918306     
           5  -5.2881405929744940E-002
           6  0.13323602011226085     
           7  -3.5253613804745246E-002
           8 -0.59731612581529148     
           9   5.1963693810615497E-002
          10  0.33352948069345462     
          11 -0.10451303612686152     
          12  0.49475029653097380     
          13  -5.1453745713918433E-002
          14  -7.0305279424307990E-002
          15 -0.20642706481840878     
          16  0.56077917563938384     
Sym=    14a
Ene=  -0.18873356885308915     
Spin= Alpha
Occup=     0.00000000
           1  -5.2244868982803609E-002
           2   3.5748645063159258E-002
           3 -0.27456304077347776     
           4  0.54110652835164497     
           5  -5.2539809800064938E-002
           6 -0.27699124403429543     
           7  0.21924837909433428     
           8 -0.49401947481695996     
           9   5.1745229743934903E-002
          10  -6.1892105242740664E-002
          11  0.14025853539652744     
          12  0.58403729166205021     
          13   5.3041118462275959E-002
          14 -0.17967297650561359     
          15 -0.20213328941885267     
          16 -0.54821714236621022     
Sym=    15a
Ene=   0.56523453639693688     
Spin= Alpha
Occup=     0.00000000
           1  0.48216478692078552     
           2  0.44058602320532164     
           3 -0.32613317710470763     
           4 -0.12369769092891399     
           5 -0.69607882594760184     
           6 -0.39878932692564945     
           7 -0.70420434023981826     
           8   6.5378865306008043E-003
           9  0.69606914207391191     
          10 -0.39078157696699251     
          11 -0.70710489519553554     
          12   4.7647763554245229E-002
          13 -0.48215481418497885     
          14  0.44609625816489640     
          15 -0.32812624822735248     
          16  -9.5420157112461990E-002
Sym=    16a
Ene=   0.56542069482462809     
Spin= Alpha
Occup=     0.00000000
           1  0.69618919659537581     
           2  0.68461867888004124     
           3 -0.39097383952435544     
           4 -0.18280216693082568     
           5  0.48227619031235675     
           6  0.33026355551782510     
           7  0.45429653199817249     
           8  -1.7138384077600113E-002
           9 -0.48227164797568378     
          10  0.32459413665095316     
          11  0.45635491177989007     
          12  -4.6172658894231264E-002
          13 -0.69619394396282097     
          14  0.69273749170392562     
          15 -0.39391696040002883     
          16 -0.14117333549816866     
