$hessian                                                                        
        0.3067591835   0.0632532615  -0.1804928164  -0.0806192079   0.0482598216
        0.1561466910  -0.2427300254  -0.0754351969  -0.0493191297   0.0165900497
       -0.0360778862   0.0736652551
        0.0632532615   0.0706674205  -0.0241166968   0.0095680514  -0.0482048478
       -0.0076622071  -0.0495780501  -0.0375355028  -0.0393699611  -0.0232432628
        0.0150729301   0.0711488650
       -0.1804928164  -0.0241166968   0.2211866294   0.0378931564  -0.1060138523
       -0.1816620461   0.0786474462   0.0509306064  -0.0320254980   0.0639522138
        0.0791999427  -0.0074990853
       -0.0806192079   0.0095680514   0.0378931564   0.0965645307   0.0787825022
       -0.0055088491   0.0345546264  -0.0113216280  -0.0945650621  -0.0504999493
       -0.0770289256   0.0621807548
        0.0482598216  -0.0482048478  -0.1060138523   0.0787825022   0.3267716012
        0.1405914420  -0.0524558058   0.0147808753  -0.1389796075  -0.0745865181
       -0.2933476287   0.1044020179
        0.1561466910  -0.0076622071  -0.1816620461  -0.0055088491   0.1405914420
        0.2660254226  -0.1310471945  -0.1160637553  -0.0190203287  -0.0195906474
       -0.0168654795  -0.0653430477
       -0.2427300254  -0.0495780501   0.0786474462   0.0345546264  -0.0524558058
       -0.1310471945   0.2664192630   0.0878934183   0.1448281202  -0.0582438640
        0.0141404376  -0.0924283719
       -0.0754351969  -0.0375355028   0.0509306064  -0.0113216280   0.0147808753
       -0.1160637553   0.0878934183   0.1098531913   0.0116925212  -0.0011365934
       -0.0870985639   0.0534406276
       -0.0493191297  -0.0393699611  -0.0320254980  -0.0945650621  -0.1389796075
       -0.0190203287   0.1448281202   0.0116925212   0.3160822993  -0.0009439284
        0.1666570474  -0.2650364725
        0.0165900497  -0.0232432628   0.0639522138  -0.0504999493  -0.0745865181
       -0.0195906474  -0.0582438640  -0.0011365934  -0.0009439284   0.0921537636
        0.0989663743  -0.0434176380
       -0.0360778862   0.0150729301   0.0791999427  -0.0770289256  -0.2933476287
       -0.0168654795   0.0141404376  -0.0870985639   0.1666570474   0.0989663743
        0.3653732625  -0.2289915105
        0.0736652551   0.0711488650  -0.0074990853   0.0621807548   0.1044020179
       -0.0653430477  -0.0924283719   0.0534406276  -0.2650364725  -0.0434176380
       -0.2289915105   0.3378786055
