5
 energy: -7.243414113939 gnorm: 0.000347349951 xtb: 6.2.2 (9d81278992624c895f80dd42a50cac0aa55982e2)
C        -0.67110351281628   -0.01804117096866   -0.01593312980569
C         0.67123940891339   -0.00690933715023    0.01872057370428
C        -0.00860331053090    1.24264319088721   -0.06586149615919
H        -1.54721729807165   -0.62171337947337   -0.00851334978513
H         1.55568471249671   -0.59598030329670    0.07158640204747
