[Molden Format]
[Title]
[Atoms] AU
C      1     6  0.12036703254296E+01 -0.26007190497741E+00  0.70848414369832E-01
C      2     6 -0.11987027684095E+01 -0.28527750755011E+00  0.40508707791160E-01
O      3     8 -0.16659874307580E-01  0.21713811785094E+01 -0.44382160056052E+00
H      4     1  0.31220894035859E+01 -0.78098030838118E+00  0.20554720652570E+00
H      5     1 -0.31103970862885E+01 -0.84504956787475E+00  0.12691727187052E+00
[GTO]
           1 0
 s           4   1.0000000000000000     
   51.049363095579913      -0.16312063210127389     
   8.7911227406887544      -0.19911024581000730     
  0.70640422258929825       0.31882047753655751     
  0.26922813413411617       0.12706504184240380     
 p           4   1.0000000000000000     
   5.8263656140800002       0.73716451545209605     
   1.5106896018720002       0.68216371614850257     
  0.53256483288000001       0.35783053929253711     
  0.21202323690600003        5.3983030275847881E-002

           2 0
 s           4   1.0000000000000000     
   51.049363095579913      -0.16312063210127389     
   8.7911227406887544      -0.19911024581000730     
  0.70640422258929825       0.31882047753655751     
  0.26922813413411617       0.12706504184240380     
 p           4   1.0000000000000000     
   5.8263656140800002       0.73716451545209605     
   1.5106896018720002       0.68216371614850257     
  0.53256483288000001       0.35783053929253711     
  0.21202323690600003        5.3983030275847881E-002

           3 0
 s           4   1.0000000000000000     
   69.137961906196551      -0.20478756370077797     
   11.906129132707308      -0.24997023136827334     
  0.95670827744340703       0.40025880240639616     
  0.36462520496073686       0.15952206667693555     
 p           4   1.0000000000000000     
   8.2124193257781641        1.1321556799186829     
   2.1293576997098116        1.0476840782254817     
  0.75066448202360914       0.54956508217158984     
  0.29885246543283073        8.2908486592766617E-002

           4 0
 s           3   1.0000000000000000     
   3.3702276975336001       0.27359110588908298     
  0.61389118221497996       0.26460540653860526     
  0.16614291148415999        8.2465947534082318E-002

           5 0
 s           3   1.0000000000000000     
   3.3702276975336001       0.27359110588908298     
  0.61389118221497996       0.26460540653860526     
  0.16614291148415999        8.2465947534082318E-002

[MO]
Sym=     1a
Ene=  -0.71403688698501644     
Spin= Alpha
Occup=     2.00000000
           1  0.31417509464142368     
           2 -0.14883865313101022     
           3  0.10709705434623927     
           4  -2.4073600006090153E-002
           5  0.31410895159409491     
           6  0.14713867509886391     
           7  0.11017224857316803     
           8  -2.0329307906445621E-002
           9  0.49889849847929352     
          10   1.4881980940560510E-003
          11 -0.18697354519154624     
          12   3.8212879007027342E-002
          13   2.6716075782021204E-002
          14   2.6647684058851179E-002
Sym=     2a
Ene=  -0.63449351465448223     
Spin= Alpha
Occup=     2.00000000
           1  0.31027671807746032     
           2  -9.9202843792916273E-002
           3 -0.18251691915224832     
           4   3.5816733458281083E-002
           5  0.30995849225632593     
           6  0.10228477217966182     
           7 -0.18033978223106673     
           8   3.8352020857152835E-002
           9 -0.67920711788368116     
          10   1.8695692556587949E-003
          11 -0.22875639973946832     
          12   4.6755231502064759E-002
          13  0.10513258876206670     
          14  0.10473935283191133     
Sym=     3a
Ene=  -0.60180114786131511     
Spin= Alpha
Occup=     2.00000000
           1  0.36126702016756107     
           2  0.24118574067688878     
           3   4.2540109314144037E-002
           4  -5.1379421163247011E-003
           5 -0.36156840458732276     
           6  0.24130499883249518     
           7  -3.7470891216709941E-002
           8   1.1196548209841601E-002
           9   4.8416804909851707E-004
          10  0.30399351685389714     
          11   3.4759160247820782E-003
          12   3.7689778452014663E-003
          13  0.26662941350744401     
          14 -0.26634258155764373     
Sym=     4a
Ene=  -0.54616817868010548     
Spin= Alpha
Occup=     2.00000000
           1  0.15199110816043077     
           2  0.28115052629153364     
           3 -0.16901062112424403     
           4   3.8775455473719626E-002
           5  0.15244175652808556     
           6 -0.27869717850621784     
           7 -0.17444301048954863     
           8   3.1639927259700273E-002
           9  0.30499702504054305     
          10  -3.3899506178777972E-003
          11  0.36421988585046206     
          12  -7.4321131884885316E-002
          13  0.33260469278485005     
          14  0.33274217948355794     
Sym=     5a
Ene=  -0.53520229380127737     
Spin= Alpha
Occup=     2.00000000
           1  -2.5324573461872064E-005
           2  -6.7669545072243835E-003
           3   9.3003999755723363E-002
           4  0.45493075112229864     
           5  -6.7247293847423406E-005
           6  -6.6540738944895657E-003
           7   9.2955586810951230E-002
           8  0.45487222016793361     
           9  -7.9406222093746963E-005
          10  -8.2742930999731897E-003
          11  0.11505343507555800     
          12  0.56381385919708804     
          13  -7.8043262630232650E-005
          14  -5.1979781036384444E-005
Sym=     6a
Ene=  -0.50478200454374711     
Spin= Alpha
Occup=     2.00000000
           1  -2.5538917850572881E-002
           2  0.31577459317004553     
           3  0.36225184724614495     
           4  -6.9357785661869523E-002
           5  -2.5531039236513040E-002
           6 -0.32164916300365354     
           7  0.35483233952916499     
           8  -7.7240305790768543E-002
           9 -0.25798863596007471     
          10   4.5707973611834986E-003
          11 -0.46556903414074313     
          12   9.5125372480648673E-002
          13  0.17427320000121238     
          14  0.17501602947323683     
Sym=     7a
Ene=  -0.49828302307102224     
Spin= Alpha
Occup=     2.00000000
           1   3.7154964180730575E-002
           2   9.6128122431141799E-002
           3 -0.31730009143048737     
           4   6.6264663639497595E-002
           5  -3.7586172115558848E-002
           6   9.0560495769034632E-002
           7  0.32045756611326764     
           8  -6.4102440742841826E-002
           9  -3.6939814347525045E-004
          10 -0.73429482890381226     
          11  -8.4201990870138386E-003
          12  -9.0741348369347882E-003
          13  0.21179262666988277     
          14 -0.21171202015961055     
Sym=     8a
Ene=  -0.37214382693450809     
Spin= Alpha
Occup=     2.00000000
           1  -9.4065236441901321E-006
           2   6.4379849194544448E-003
           3  -8.8967614338307618E-002
           4 -0.43561859372418599     
           5   3.6938678235457601E-005
           6   6.4033948109452300E-003
           7  -8.9001848203700315E-002
           8 -0.43567492379776696     
           9   4.4332420373061830E-007
          10  -1.2045402949245394E-002
          11  0.16678258367304169     
          12  0.81652410120253027     
          13   9.1070825890782911E-006
          14  -1.3715314120605802E-005
Sym=     9a
Ene=  -0.25080357261269937     
Spin= Alpha
Occup=     0.00000000
           1   7.7959830625376010E-006
           2   1.1724089322570784E-002
           3 -0.16240942612131037     
           4 -0.79505492349152640     
           5  -9.3346435346438014E-005
           6  -1.1675555993570836E-002
           7  0.16241319835240167     
           8  0.79505630481287337     
           9   2.2088897248469979E-006
          10  -2.1936928709589471E-005
          11   7.2177572559318669E-006
          12   7.6323764595794130E-005
          13  -1.2584732998518838E-005
          14   6.6909770700730902E-005
Sym=    10a
Ene=   -8.6815079796088060E-002
Spin= Alpha
Occup=     0.00000000
           1  0.13698336076776149     
           2  0.16887414156511987     
           3  0.72336083223989867     
           4 -0.14525156388457561     
           5 -0.13690301086887455     
           6  0.17986952548555604     
           7 -0.72023256291738269     
           8  0.14975459078583697     
           9   2.0872852026763750E-004
          10 -0.67035856848296571     
          11  -7.3323049558656813E-003
          12  -8.4027290222665127E-003
          13  -6.9371163242230860E-002
          14   6.9166330412453195E-002
Sym=    11a
Ene=   -2.4918141945929499E-002
Spin= Alpha
Occup=     0.00000000
           1 -0.40255394432365138     
           2   1.6898279455913687E-002
           3 -0.48766212912996126     
           4   9.9875448685689650E-002
           5 -0.40319941619650068     
           6  -9.3919147377427344E-003
           7 -0.48721524749302103     
           8   9.9347351403836728E-002
           9  0.56474827495090951     
          10   6.7836826854911474E-003
          11 -0.83750479148546353     
          12  0.17117025052604895     
          13  0.14720066969007423     
          14  0.14787979352936084     
Sym=    12a
Ene=    3.2669990304426820E-002
Spin= Alpha
Occup=     0.00000000
           1  0.80006589053807520     
           2   5.9403813661978888E-002
           3 -0.22714462380748895     
           4   4.7307286884262861E-002
           5 -0.80190707222586111     
           6   5.8793271152439083E-002
           7  0.22968645498991416     
           8  -4.6165809178691862E-002
           9  -7.1010474307430589E-004
          10 -0.10529423080156264     
          11  -1.3603449381489774E-004
          12  -1.5114195526299903E-003
          13 -0.70625068773224742     
          14  0.70969142670045804     
Sym=    13a
Ene=   0.27053959823695850     
Spin= Alpha
Occup=     0.00000000
           1 -0.54662831748163465     
           2 -0.61182644737222547     
           3  0.23602432711873639     
           4  -5.7200351773187615E-002
           5 -0.54150126138270327     
           6  0.60909872577973312     
           7  0.24702975899930354     
           8  -4.1573183620928149E-002
           9 -0.18593646751755147     
          10  -1.4153552147194088E-003
          11  0.20160157034154763     
          12  -4.1189973017330649E-002
          13  0.82291498589069012     
          14  0.81956819807507886     
Sym=    14a
Ene=    1.0109503390394645     
Spin= Alpha
Occup=     0.00000000
           1 -0.58673908885708259     
           2   1.2197689802394678     
           3 -0.15054205677233135     
           4   4.8773162840903231E-002
           5  0.58783573198744932     
           6   1.2161983298563868     
           7  0.17542670977442087     
           8  -1.7919722679311963E-002
           9   2.1639341040736540E-004
          10  0.13797050622376086     
          11   1.2307717792852026E-003
          12   1.7917195269699471E-003
          13 -0.55169598449257173     
          14  0.55021341316579020     
