5
 energy: -9.124467343833 gnorm: 0.098509942156 xtb: 6.2.2 (9d81278992624c895f80dd42a50cac0aa55982e2)
C         0.73374800000000    0.15243600000000    0.42585900000000
C        -0.74718400000000    0.13724700000000    0.40725500000000
O        -0.00597700000000    1.04155700000000   -0.37447900000000
H         1.15018100000000   -0.65392800000000   -0.21498500000000
H        -1.13076800000000   -0.67731100000000   -0.24365000000000
5
 energy: -9.144190529686 gnorm: 0.115893218983 xtb: 6.2.2 (9d81278992624c895f80dd42a50cac0aa55982e2)
C         0.71199344295797    0.12196318726212    0.39202310481361
C        -0.72396438066670    0.10723579893043    0.37397934639162
O        -0.00625312870662    1.05941565327253   -0.36701999127709
H         1.27269059257590   -0.63135205803846   -0.18361274744729
H        -1.25446652616054   -0.65726158142662   -0.21536971248085
5
 energy: -9.179080371528 gnorm: 0.212786065074 xtb: 6.2.2 (9d81278992624c895f80dd42a50cac0aa55982e2)
C         0.61393172762818    0.03571442343970    0.26565038493558
C        -0.62100424973524    0.02305020134407    0.25011583773133
O        -0.00797250420608    1.17239121360519   -0.32231000455548
H         1.51088998891562   -0.60016084065934   -0.07783939585724
H        -1.49584496260249   -0.63099399772963   -0.11561682225419
5
 energy: -9.193542716738 gnorm: 0.063698264146 xtb: 6.2.2 (9d81278992624c895f80dd42a50cac0aa55982e2)
C         0.64699527806783    0.02150071162873    0.24141496428650
C        -0.65315359994986    0.00817059539739    0.22506022401470
O        -0.00832867340215    1.19412020068951   -0.31176417941312
H         1.50957686474167   -0.59649014854606   -0.05848098791551
H        -1.49508986945749   -0.62730035916957   -0.09623002097257
5
 energy: -9.203383356913 gnorm: 0.048907500019 xtb: 6.2.2 (9d81278992624c895f80dd42a50cac0aa55982e2)
C         0.63638250317204   -0.02923872594468    0.16935210123448
C        -0.63969495416826   -0.04231972501669    0.15329476872454
O        -0.00903773566946    1.22970251486128   -0.28480726088007
H         1.51273624166383   -0.56362614052082    0.00000687094771
H        -1.50038605499816   -0.59451692337909   -0.03784648002667
5
 energy: -9.200816133132 gnorm: 0.113105322750 xtb: 6.2.2 (9d81278992624c895f80dd42a50cac0aa55982e2)
C         0.63251389293922   -0.11819758421508    0.09312549699957
C        -0.63209454999596   -0.13115599436229    0.07721057771482
O        -0.00922538890978    1.24271839829557   -0.28087147010698
H         1.71090839308021   -0.47919043058728    0.07670551104094
H        -1.70210234711368   -0.51417338913093    0.03382988435164
5
 energy: -9.212027130824 gnorm: 0.041494297384 xtb: 6.2.2 (9d81278992624c895f80dd42a50cac0aa55982e2)
C         0.63633354294674   -0.09375518594098    0.13307374431737
C        -0.63741583776001   -0.10680840634888    0.11704729547197
O        -0.00846008096703    1.18607258716300   -0.29547311069551
H         1.62817722814353   -0.47611367753047    0.04307080198262
H        -1.61863485236324   -0.50939431734267    0.00228126892354
5
 energy: -9.214156449775 gnorm: 0.024375822538 xtb: 6.2.2 (9d81278992624c895f80dd42a50cac0aa55982e2)
C         0.63408583898321   -0.11327766922696    0.12288870835501
C        -0.63450743499956   -0.12628039095312    0.10692499775571
O        -0.00807750042259    1.15153276829063   -0.29764824258319
H         1.63160626749410   -0.43930398761822    0.05436257544160
H        -1.62310717105516   -0.47266972049233    0.01347196103087
5
 energy: -9.215446682388 gnorm: 0.017144140880 xtb: 6.2.2 (9d81278992624c895f80dd42a50cac0aa55982e2)
C         0.63389437134644   -0.14190385217790    0.09839704672369
C        -0.63313182428797   -0.15487340493896    0.08245055058106
O        -0.00784312476142    1.12409245346878   -0.29371662235072
H         1.65855336792469   -0.39668969512741    0.07722140672410
H        -1.65147279022175   -0.43062450122452    0.03564761832187
5
 energy: -9.215867435787 gnorm: 0.014783581267 xtb: 6.2.2 (9d81278992624c895f80dd42a50cac0aa55982e2)
C         0.63477073569463   -0.15299738546614    0.07617072975184
C        -0.63318149449615   -0.16600815891188    0.06021139667574
O        -0.00800821482851    1.12443286587657   -0.28104568961330
H         1.66196625326993   -0.38570521986917    0.09317686573717
H        -1.65554727963990   -0.41972110162939    0.05148669744855
5
 energy: -9.216102104610 gnorm: 0.014925670751 xtb: 6.2.2 (9d81278992624c895f80dd42a50cac0aa55982e2)
C         0.63589733552131   -0.15461765895618    0.06017621419770
C        -0.63399332412558   -0.16754716605915    0.04419682954680
O        -0.00823220408035    1.13046744505524   -0.26755829244675
H         1.65968320767364   -0.38717003030124    0.10237661745472
H        -1.65335501498904   -0.42113158973868    0.06080863124753
5
 energy: -9.216324555409 gnorm: 0.012725941542 xtb: 6.2.2 (9d81278992624c895f80dd42a50cac0aa55982e2)
C         0.63696198337863   -0.15131770038283    0.04441593378862
C        -0.63431036038796   -0.16460558300213    0.02839865556546
O        -0.00854212428958    1.13844391335290   -0.25089257541018
H         1.65700503890242   -0.39428251774239    0.10990417765075
H        -1.65111453760351   -0.42823711222555    0.06817380840536
5
 energy: -9.216480707530 gnorm: 0.006897293363 xtb: 6.2.2 (9d81278992624c895f80dd42a50cac0aa55982e2)
C         0.63662974282081   -0.14302630664498    0.03445030149115
C        -0.63542038546741   -0.15508436975169    0.01857298947134
O        -0.00879748626023    1.14708104336297   -0.23549507715041
H         1.65340404859618   -0.40766711263778    0.11166498385590
H        -1.64581591968935   -0.44130225432852    0.07080680233201
5
 energy: -9.216501749741 gnorm: 0.003770915622 xtb: 6.2.2 (9d81278992624c895f80dd42a50cac0aa55982e2)
C         0.63824850528617   -0.13635801493546    0.03428349756916
C        -0.63323349886520   -0.15156525083932    0.01790703701914
O        -0.00884586086526    1.15018267897298   -0.23150069230240
H         1.65025397583290   -0.41393818864567    0.11100599173812
H        -1.64642312138862   -0.44832022455254    0.06830416597598
5
 energy: -9.216510348535 gnorm: 0.001922645960 xtb: 6.2.2 (9d81278992624c895f80dd42a50cac0aa55982e2)
C         0.63612812977979   -0.13660629539936    0.03590488022526
C        -0.63497779524915   -0.14877902349183    0.02010823379322
O        -0.00894101334603    1.15034828848851   -0.23237862525276
H         1.65242314213872   -0.41572917307970    0.10865596087233
H        -1.64463246332332   -0.44923279651762    0.06770955036195
5
 energy: -9.216512528888 gnorm: 0.001018951363 xtb: 6.2.2 (9d81278992624c895f80dd42a50cac0aa55982e2)
C         0.63695555447025   -0.13762086842710    0.03749335299245
C        -0.63432553091846   -0.15096572851667    0.02143380929652
O        -0.00882122320915    1.14904590618967   -0.23485832384366
H         1.65214050026323   -0.41326855896983    0.10877595331933
H        -1.64594930060588   -0.44718975027606    0.06715520823535
