$hessian                                                                        
        1.1797640372  -0.1119766115   0.0399097006  -0.8102547198  -0.0644684255
        0.0012099257  -0.0158678987   0.0914827971  -0.0188522338  -0.3427520912
        0.0786280412  -0.0208891768  -0.0108893274   0.0063341987  -0.0013782156
       -0.1119766115   0.1638830675  -0.0299140129   0.0457381841   0.1134162654
       -0.0225253978  -0.0091659200  -0.2321757885   0.0463504440   0.0833544084
       -0.0429584118   0.0068717964  -0.0079500610  -0.0021651326  -0.0007828297
        0.0399097006  -0.0299140129   0.0322441172  -0.0213061327  -0.0241625627
        0.0044455636   0.0017087867   0.0478498093  -0.0143439836  -0.0218567157
        0.0068001054  -0.0170583379   0.0015443611  -0.0005733391  -0.0052873594
       -0.8102547198   0.0457381841  -0.0213061327   1.1743999260   0.1330407499
       -0.0102745709  -0.0146213424  -0.0881042545   0.0178518297  -0.0109496423
       -0.0064933783   0.0012458760  -0.3385742215  -0.0841813012   0.0124829978
       -0.0644684255   0.1134162654  -0.0241625627   0.1330407499   0.1688877563
       -0.0272702264   0.0125956803  -0.2337699526   0.0469865885   0.0077703802
       -0.0021937684  -0.0005538632  -0.0889383848  -0.0463403008   0.0050000639
        0.0012099257  -0.0225253978   0.0044455636  -0.0102745709  -0.0272702264
        0.0312778003  -0.0027141524   0.0455006290  -0.0139817474  -0.0016662724
       -0.0007695188  -0.0053715603   0.0134450701   0.0050645140  -0.0163700563
       -0.0158678987  -0.0091659200   0.0017087867  -0.0146213424   0.0125956803
       -0.0027141524   0.0397791345  -0.0033675451   0.0012466962  -0.0047895845
        0.0205533956  -0.0043268671  -0.0045003090  -0.0206156107   0.0040855366
        0.0914827971  -0.2321757885   0.0478498093  -0.0881042545  -0.2337699526
        0.0455006290  -0.0033675451   0.4786622281  -0.0974818003  -0.0021437044
       -0.0061668282   0.0019911045   0.0021327069  -0.0065496588   0.0021402575
       -0.0188522338   0.0463504440  -0.0143439836   0.0178518297   0.0469865885
       -0.0139817474   0.0012466962  -0.0974818003   0.0216040221   0.0003115460
        0.0023338185   0.0033052624  -0.0005578382   0.0018109493   0.0034164465
       -0.3427520912   0.0833544084  -0.0218567157  -0.0109496423   0.0077703802
       -0.0016662724  -0.0047895845  -0.0021437044   0.0003115460   0.3591836914
       -0.0907961067   0.0236908593  -0.0006923734   0.0018150225  -0.0004794172
        0.0786280412  -0.0429584118   0.0068001054  -0.0064933783  -0.0021937684
       -0.0007695188   0.0205533956  -0.0061668282   0.0023338185  -0.0907961067
        0.0492803853  -0.0092744146  -0.0018919517   0.0020386230   0.0009100096
       -0.0208891768   0.0068717964  -0.0170583379   0.0012458760  -0.0005538632
       -0.0053715603  -0.0043268671   0.0019911045   0.0033052624   0.0236908593
       -0.0092744146   0.0126803143   0.0002793086   0.0009653770   0.0064443215
       -0.0108893274  -0.0079500610   0.0015443611  -0.3385742215  -0.0889383848
        0.0134450701  -0.0045003090   0.0021327069  -0.0005578382  -0.0006923734
       -0.0018919517   0.0002793086   0.3546562313   0.0966476907  -0.0147109017
        0.0063341987  -0.0021651326  -0.0005733391  -0.0841813012  -0.0463403008
        0.0050645140  -0.0206156107  -0.0065496588   0.0018109493   0.0018150225
        0.0020386230   0.0009653770   0.0966476907   0.0530164692  -0.0072675012
       -0.0013782156  -0.0007828297  -0.0052873594   0.0124829978   0.0050000639
       -0.0163700563   0.0040855366   0.0021402575   0.0034164465  -0.0004794172
        0.0009100096   0.0064443215  -0.0147109017  -0.0072675012   0.0117966477
