2
 energy: -2.380909137025 gnorm: 0.003028542115 xtb: 6.2.2 (9d81278992624c895f80dd42a50cac0aa55982e2)
C         0.55470000000000    0.00000000000000    0.00000000000000
H        -0.55470000000000    0.00000000000000    0.00000000000000
2
 energy: -2.380916596749 gnorm: 0.000991184051 xtb: 6.2.2 (9d81278992624c895f80dd42a50cac0aa55982e2)
C         0.55609088827059   -0.00000000000000    0.00000000000000
H        -0.55609088827059    0.00000000000000    0.00000000000000
2
 energy: -2.380917295339 gnorm: 0.000472955612 xtb: 6.2.2 (9d81278992624c895f80dd42a50cac0aa55982e2)
C         0.55710589519544   -0.00000000000000    0.00000000000000
H        -0.55710589519544    0.00000000000000    0.00000000000000
