$hessian                                                                        
        0.2681507427  -0.0000010526  -0.0000007017  -0.2681507427   0.0000010526
        0.0000007017
       -0.0000010526   0.0001693661   0.0000000000   0.0000010526  -0.0001693661
       -0.0000000000
       -0.0000007017   0.0000000000   0.0001693662   0.0000007017  -0.0000000000
       -0.0001693662
       -0.2681507427   0.0000010526   0.0000007017   0.2681507427  -0.0000010526
       -0.0000007017
        0.0000010526  -0.0001693661  -0.0000000000  -0.0000010526   0.0001693661
        0.0000000000
        0.0000007017  -0.0000000000  -0.0001693662  -0.0000007017   0.0000000000
        0.0001693662
