[Molden Format]
[Title]
[Atoms] AU
C      1     6  0.10527774666364E+01 -0.55123299251335E-05 -0.36748866167874E-05
H      2     1 -0.10527774666364E+01  0.55123299251342E-05  0.36748866167874E-05
[GTO]
           1 0
 s           4   1.0000000000000000     
   51.049363095579913      -0.16312063210127389     
   8.7911227406887544      -0.19911024581000730     
  0.70640422258929825       0.31882047753655751     
  0.26922813413411617       0.12706504184240380     
 p           4   1.0000000000000000     
   5.8263656140800002       0.73716451545209605     
   1.5106896018720002       0.68216371614850257     
  0.53256483288000001       0.35783053929253711     
  0.21202323690600003        5.3983030275847881E-002

           2 0
 s           3   1.0000000000000000     
   3.3702276975336001       0.27359110588908298     
  0.61389118221497996       0.26460540653860526     
  0.16614291148415999        8.2465947534082318E-002

[MO]
Sym=     1a
Ene=  -0.63190552682595014     
Spin= Alpha
Occup=     2.00000000
           1  0.82267138560964270     
           2  -6.8561985698891340E-002
           3   3.4946432627773822E-007
           4   2.3297621890981757E-007
           5  0.30625864511833395     
Sym=     2a
Ene=  -0.46464206506126410     
Spin= Alpha
Occup=     2.00000000
           1  0.44997888761793009     
           2  0.71712117110420825     
           3  -3.7568283940450834E-006
           4  -2.5045522608446686E-006
           5 -0.41758954137007187     
Sym=     3a
Ene=  -0.39557561686134168     
Spin= Alpha
Occup=     0.50000000
           1  -2.3832130177414633E-011
           2  -1.2187472418201135E-008
           3 -0.55631101857483389     
           4  0.83097415766743432     
           5   1.5821233297753650E-012
Sym=     4a
Ene=  -0.39557561686109821     
Spin= Alpha
Occup=     0.50000000
           1   1.2301591620387142E-008
           2   6.2912103080621863E-006
           3  0.83097415765094718     
           4  0.55631101856388820     
           5  -8.1660451092793047E-010
Sym=     5a
Ene=   0.10725905558763622     
Spin= Alpha
Occup=     0.00000000
           1 -0.61856947355248371     
           2  0.88415518748427036     
           3  -4.6269951062724470E-006
           4  -3.0846634040900334E-006
           5   1.1377240149041767     
