2
 energy: -2.380917295333 gnorm: 0.000472954018 xtb: 6.2.2 (9d81278992624c895f80dd42a50cac0aa55982e2)
C         0.55710589518441   -0.00000291699965   -0.00000194466643
H        -0.55710589518441    0.00000291699965    0.00000194466643
