[Molden Format]
[Title]
[Atoms] AU
C      1     6  0.20769742178367E+01  0.46350588092508E+00  0.17777847568789E+00
C      2     6 -0.36430466333038E+00  0.18148520046733E+00  0.38610686761571E-01
C      3     6 -0.29016653593257E+01  0.11957183089402E+01  0.24566651667945E+00
N      4     7 -0.25418764266222E+01 -0.11883538626862E+01 -0.38494516199867E+00
H      5     1  0.37308722314415E+01 -0.65235552764639E+00 -0.77110517130241E-01
[GTO]
           1 0
 s           4   1.0000000000000000     
   51.049363095579913      -0.16312063210127389     
   8.7911227406887544      -0.19911024581000730     
  0.70640422258929825       0.31882047753655751     
  0.26922813413411617       0.12706504184240380     
 p           4   1.0000000000000000     
   5.8263656140800002       0.73716451545209605     
   1.5106896018720002       0.68216371614850257     
  0.53256483288000001       0.35783053929253711     
  0.21202323690600003        5.3983030275847881E-002

           2 0
 s           4   1.0000000000000000     
   51.049363095579913      -0.16312063210127389     
   8.7911227406887544      -0.19911024581000730     
  0.70640422258929825       0.31882047753655751     
  0.26922813413411617       0.12706504184240380     
 p           4   1.0000000000000000     
   5.8263656140800002       0.73716451545209605     
   1.5106896018720002       0.68216371614850257     
  0.53256483288000001       0.35783053929253711     
  0.21202323690600003        5.3983030275847881E-002

           3 0
 s           4   1.0000000000000000     
   51.049363095579913      -0.16312063210127389     
   8.7911227406887544      -0.19911024581000730     
  0.70640422258929825       0.31882047753655751     
  0.26922813413411617       0.12706504184240380     
 p           4   1.0000000000000000     
   5.8263656140800002       0.73716451545209605     
   1.5106896018720002       0.68216371614850257     
  0.53256483288000001       0.35783053929253711     
  0.21202323690600003        5.3983030275847881E-002

           4 0
 s           4   1.0000000000000000     
   63.594024466941008      -0.19234388414721629     
   10.951417231523665      -0.23478107924953728     
  0.87999310257376984       0.37593753901700888     
  0.33538715296521110       0.14982889271862770     
 p           4   1.0000000000000000     
   7.2965040481495080       0.97658666315667420     
   1.8918745450712575       0.90372226730345739     
  0.66694432110824120       0.47404958461536373     
  0.26552202674130870        7.1516067715011844E-002

           5 0
 s           3   1.0000000000000000     
   3.3702276975336001       0.27359110588908298     
  0.61389118221497996       0.26460540653860526     
  0.16614291148415999        8.2465947534082318E-002

[MO]
Sym=     1a
Ene=  -0.72080128903157137     
Spin= Alpha
Occup=     2.00000000
           1   5.8893824297617532E-002
           2  -6.0911274327973289E-002
           3  -7.3442623825036501E-003
           4  -3.5459429614309828E-003
           5  0.35933388195161220     
           6 -0.16835419713217495     
           7  -2.5671821035028013E-002
           8  -1.1202435920660128E-002
           9  0.33681530728170800     
          10  0.10265362631363224     
          11 -0.12943375705352483     
          12  -3.2102261751986050E-002
          13  0.38320702864045264     
          14  0.11406836031021429     
          15  0.20499369174684218     
          16   5.7947503646505631E-002
          17   5.5358442220956481E-003
Sym=     2a
Ene=  -0.65432116495299830     
Spin= Alpha
Occup=     2.00000000
           1  0.48999369116521280     
           2 -0.17269244891821289     
           3  -3.3892639798703370E-002
           4  -1.3565140616381161E-002
           5  0.38078177123403562     
           6  0.30422829660051948     
           7   2.2036916323057598E-002
           8   1.3822126585444162E-002
           9 -0.13742561879357137     
          10   6.6409201339909477E-002
          11   6.5689862616001266E-002
          12   1.9357341760395178E-002
          13 -0.16041958065740947     
          14  0.10416116961561359     
          15  -6.6185682660457212E-002
          16  -1.5054482910692946E-002
          17  0.11634971546579735     
Sym=     3a
Ene=  -0.58289449440454977     
Spin= Alpha
Occup=     2.00000000
           1   5.3318675097472554E-002
           2  -4.7246818467544242E-002
           3  0.13865136365016512     
           4   3.5973319391928195E-002
           5  -4.3954236295846430E-003
           6   6.4808584807799696E-003
           7  0.43192715314783708     
           8  0.11609314664272290     
           9  0.45941408497893960     
          10   2.8365676391942055E-002
          11  0.12423712076771835     
          12   3.4069530884173263E-002
          13 -0.41707301613819342     
          14 -0.26633090442717550     
          15  0.24495740210802402     
          16   5.8897820552475361E-002
          17  -3.9222525266669070E-002
Sym=     4a
Ene=  -0.56780507904042143     
Spin= Alpha
Occup=     2.00000000
           1 -0.35959951082784769     
           2 -0.25527874085958741     
           3   7.8460261633662876E-002
           4   1.4192152874027071E-002
           5  0.25112638181569596     
           6  -9.7452933254870908E-002
           7   2.1521069688198325E-002
           8   2.9285735563418357E-003
           9 -0.15886740171392924     
          10  0.24115291271210948     
          11  0.15384442156542652     
          12   4.7287817652960674E-002
          13 -0.27194111791035702     
          14  0.35453686858885192     
          15  -5.2549699234746068E-002
          16  -5.3002502112569254E-003
          17 -0.33645759475112663     
Sym=     5a
Ene=  -0.55273035764294831     
Spin= Alpha
Occup=     2.00000000
           1   2.9213993360427832E-004
           2   4.9800000536906934E-003
           3   4.9975582967654641E-002
           4 -0.18638047069450583     
           5  -6.3297444055753743E-005
           6   1.2014529079337413E-002
           7  0.12369399522954037     
           8 -0.46093177570230204     
           9   8.3174920859040985E-005
          10   8.9573023586833351E-003
          11   9.5365586067470837E-002
          12 -0.35582065902064530     
          13   2.0605948674859694E-004
          14   1.3853006412981794E-002
          15  0.14756846192798220     
          16 -0.54975020226015814     
          17   1.5799840095956214E-004
Sym=     6a
Ene=  -0.52161079781155661     
Spin= Alpha
Occup=     2.00000000
           1   5.1230951554084456E-002
           2  0.38743683804457130     
           3 -0.12684100672522933     
           4  -2.3744623384048150E-002
           5  -3.0580454621300355E-002
           6 -0.29052662528780632     
           7  -4.4276212024701792E-002
           8  -1.9402729558377844E-002
           9   5.4914232351305943E-002
          10  0.22221982441204541     
          11  0.18086078422376881     
          12   5.4129341169744528E-002
          13 -0.35119569298923264     
          14  0.38345526528305290     
          15  0.10021921827125949     
          16   3.6563786332460886E-002
          17  0.35387852779309265     
Sym=     7a
Ene=  -0.45382939518882232     
Spin= Alpha
Occup=     2.00000000
           1  0.16705442439833865     
           2  0.17773064906476502     
           3  0.41644598104583963     
           4  0.11659698579213154     
           5  -2.7437403384250252E-002
           6 -0.15788837731062424     
           7  0.39222172970171043     
           8  0.10128037721745327     
           9 -0.25690777893524908     
          10  0.37262895023540182     
          11   1.1407414571874773E-002
          12   1.2563343190183693E-002
          13  0.37682798372091675     
          14  -7.1776650105079276E-002
          15 -0.36709779975207812     
          16 -0.10049134016787481     
          17   5.0888548689788551E-002
Sym=     8a
Ene=  -0.42967502638545912     
Spin= Alpha
Occup=     1.78953306
           1   3.1356438587151189E-002
           2   4.0468857842853583E-002
           3   9.7518736349741564E-002
           4   2.7207014382403177E-002
           5  -1.2048539452663232E-002
           6  -1.6533800316547519E-002
           7   5.6123349122940126E-002
           8   1.4627483554000091E-002
           9 -0.54370033905354498     
          10  0.18085673297176200     
          11 -0.56725618578086212     
          12 -0.14758277164566147     
          13 -0.26241296304006223     
          14  -7.6104971159115103E-002
          15  0.49549151499828620     
          16  0.13104477387327107     
          17  -3.6753287212925329E-003
Sym=     9a
Ene=  -0.42716289883609482     
Spin= Alpha
Occup=     1.21046694
           1   3.3215681277585222E-004
           2   1.7836014580172709E-002
           3  0.18011122038768987     
           4 -0.67064006074081861     
           5  -3.4078386443073655E-005
           6   9.8641198296819665E-003
           7  0.10362180465336482     
           8 -0.38599160971848656     
           9   3.5772544915974589E-005
          10  -6.2926289795688590E-003
          11  -6.6739378215276743E-002
          12  0.24890246171742580     
          13   4.7384474274851243E-005
          14  -1.1671930138078521E-002
          15 -0.12327489413318619     
          16  0.45917398228682044     
          17   3.1122775280304810E-006
Sym=    10a
Ene=  -0.35758125929464918     
Spin= Alpha
Occup=     1.00000000
           1 -0.32456812598364904     
           2 -0.13499330988875533     
           3 -0.68595131869833825     
           4 -0.18766778390518302     
           5   9.7712416497136287E-002
           6  -1.3009247509752370E-002
           7  0.25413026804964206     
           8   6.7630665582075714E-002
           9 -0.11763555601202245     
          10  0.40168895459168785     
          11  -1.7987538652719910E-002
          12   5.5205670735645291E-003
          13   6.7287397444152380E-002
          14 -0.39777309690509194     
          15 -0.14006357672506509     
          16  -4.7612217290177894E-002
          17  0.17890715980555086     
Sym=    11a
Ene=  -0.29755730193527541     
Spin= Alpha
Occup=     0.00000000
           1  -2.9282979549607374E-005
           2  -3.5376477706594574E-003
           3  -3.6042224357773489E-002
           4  0.13467450692565136     
           5   2.5085090793238926E-005
           6   1.9772503440008207E-003
           7   2.0465327247411381E-002
           8  -7.6294795172194813E-002
           9  -2.2046546124281277E-006
          10   2.1153352916708827E-002
          11  0.22184029170499994     
          12 -0.82661826111485548     
          13  -7.1255810173390547E-006
          14  -1.6823419420635560E-002
          15 -0.17613627197192458     
          16  0.65631472721365225     
          17   2.5346972913594721E-005
Sym=    12a
Ene=  -0.21468075571313319     
Spin= Alpha
Occup=     0.00000000
           1   4.1759274480713708E-004
           2   1.8242973094395709E-002
           3  0.18594159331631288     
           4 -0.69421848942198727     
           5  -3.3948694534560313E-004
           6  -2.1092441019413891E-002
           7 -0.21914827440536361     
           8  0.81634603324329780     
           9   4.6115310264607038E-005
          10   9.1121711506039621E-003
          11   9.1440073960981097E-002
          12 -0.34042272338153390     
          13   4.3956084022635967E-005
          14   5.2610737759216878E-003
          15   5.5422457344240714E-002
          16 -0.20635576379948403     
          17  -3.9667164954085174E-004
Sym=    13a
Ene=   -4.1225547217661605E-002
Spin= Alpha
Occup=     0.00000000
           1  0.37239743942293069     
           2  0.11801068861115396     
           3   7.7348943480981633E-002
           4   2.4328918648968165E-002
           5 -0.23699164919458554     
           6  0.10227903228917261     
           7 -0.69245343132783810     
           8 -0.18354760576220791     
           9  0.10134462626848659     
          10  0.70125810863501126     
          11  0.34551126120185388     
          12  0.11081817161808703     
          13   2.6538633707489153E-002
          14 -0.49155810651398207     
          15  0.22971210386598062     
          16   4.9110285638732785E-002
          17 -0.40735656114202667     
Sym=    14a
Ene=    7.6485836004809168E-002
Spin= Alpha
Occup=     0.00000000
           1 -0.56336045568194326     
           2  0.18548105417173885     
           3  0.42833826033985167     
           4  0.11928711375749763     
           5  0.92077893661291932     
           6 -0.13754372600473794     
           7 -0.37915257408590686     
           8 -0.10487836724218425     
           9 -0.15493503390421884     
          10 -0.18929282242074627     
          11  0.12082938660226299     
          12   2.7476015709637567E-002
          13 -0.30169783640422454     
          14 -0.60057327955542483     
          15 -0.12001597845992440     
          16  -4.7715668570687916E-002
          17  0.45301886519982582     
Sym=    15a
Ene=   0.24152300709226920     
Spin= Alpha
Occup=     0.00000000
           1  0.56050959253996335     
           2  0.56333987966097665     
           3 -0.37134775824226263     
           4  -8.4490234575362921E-002
           5  0.43599366521100624     
           6 -0.37989422595448441     
           7   1.3655055862429911E-002
           8  -6.2496973820758946E-003
           9  0.15866820678081076     
          10 -0.18833741383031077     
          11 -0.42250740558792166     
          12 -0.11819676784246365     
          13 -0.51465852830870795     
          14 -0.15592004650373861     
          15 -0.53845062859632642     
          16 -0.14848398399764628     
          17 -0.85645547921370613     
Sym=    16a
Ene=   0.36705917707967456     
Spin= Alpha
Occup=     0.00000000
           1 -0.23609043149911565     
           2 -0.33497145372112658     
           3  0.28230876702990487     
           4   6.6825477387955648E-002
           5 -0.37032592365609313     
           6  0.25444884290481379     
           7 -0.34534255773513001     
           8  -8.6106746286530270E-002
           9  0.75738402130722093     
          10  0.46087701373032441     
          11 -0.75520265374524198     
          12 -0.19086266369056071     
          13 -0.53504540864290473     
          14  0.11126217289371675     
          15 -0.62848782476816689     
          16 -0.16582877598707355     
          17  0.43110988006642081     
Sym=    17a
Ene=   0.81952840854306563     
Spin= Alpha
Occup=     0.00000000
           1 -0.61378144883256136     
           2   1.0489488142690930     
           3  -3.4860024401331069E-002
           4   1.8138437344204849E-002
           5  0.36291131246812230     
           6   1.2909621644185645     
           7  0.19399094899534125     
           8   8.5450832119499470E-002
           9  0.27960495762575371     
          10  0.25362178361340243     
          11 -0.12023021177568864     
          12  -2.5789148969595093E-002
          13  0.27529668184839412     
          14  0.29306729386441016     
          15  0.12650604689097317     
          16   4.1442037184053850E-002
          17 -0.36008821267924129     
