5
 energy: -10.817580755523 gnorm: 0.329119714529 xtb: 6.2.2 (9d81278992624c895f80dd42a50cac0aa55982e2)
N        -1.71201800000000   -0.60489100000000    0.02566200000000
C        -0.45732400000000    0.06541700000000    0.31209800000000
C         0.67882800000000   -0.68696200000000   -0.35775800000000
C        -0.52281600000000    1.48968800000000   -0.20681500000000
C         2.01333000000000   -0.26325300000000    0.22681200000000
5
 energy: -10.926920389962 gnorm: 0.205702056857 xtb: 6.2.2 (9d81278992624c895f80dd42a50cac0aa55982e2)
N        -1.67336191449187   -0.54565251250105    0.05979404027577
C        -0.47433416811919    0.04399930057263    0.19174542567784
C         0.74600490401753   -0.63419038812493   -0.27463978982916
C        -0.53850151412014    1.42524544881071   -0.16700311037653
C         1.94019269271367   -0.28940284875736    0.19010243425208
5
 energy: -10.929853396365 gnorm: 0.486404182275 xtb: 6.2.2 (9d81278992624c895f80dd42a50cac0aa55982e2)
N        -1.61084581023462   -0.44984237991264    0.06698688995444
C        -0.50892532738212    0.00899647712059    0.10289246821457
C         0.83385455476286   -0.55210821962625   -0.15205760417771
C        -0.59160226959469    1.33970112058215   -0.13822066657805
C         1.87751885244857   -0.34674799816385    0.12039791258674
5
 energy: -10.971542669992 gnorm: 0.116371965727 xtb: 6.2.2 (9d81278992624c895f80dd42a50cac0aa55982e2)
N        -1.66435263443668   -0.43659697864730    0.05388870965293
C        -0.52607800659685    0.00168511359713    0.07431046788355
C         0.79996743835758   -0.55206226647245   -0.11429235066024
C        -0.63728446076977    1.34827172818614   -0.13029712059619
C         2.02774766344572   -0.36129859666352    0.11638929371995
5
 energy: -10.973190107026 gnorm: 0.118836442908 xtb: 6.2.2 (9d81278992624c895f80dd42a50cac0aa55982e2)
N        -1.73441523523936   -0.37910471106541    0.12336354272178
C        -0.46391458586897   -0.04028309458423   -0.03629384096359
C         0.87427553082622   -0.57035641780697   -0.14843088049470
C        -0.72219308802221    1.36793988692831   -0.11167444246908
C         2.04624737830433   -0.37819666347170    0.17303462120559
5
 energy: -10.988530069290 gnorm: 0.045341243277 xtb: 6.2.2 (9d81278992624c895f80dd42a50cac0aa55982e2)
N        -1.68586384326824   -0.31957598402045    0.07373339324452
C        -0.45317941789357   -0.03896822083982    0.00372807359974
C         0.87081058909853   -0.53307716725705   -0.08682110772946
C        -0.80548317443978    1.32173990334661   -0.12172941111569
C         2.07371584650305   -0.43011953122928    0.13108805200089
5
 energy: -10.998460680022 gnorm: 0.055287552946 xtb: 6.2.2 (9d81278992624c895f80dd42a50cac0aa55982e2)
N        -1.64599574184026   -0.18160162462532    0.03656610225978
C        -0.39573845884251   -0.06174309688987    0.00568758925680
C         0.90101358422916   -0.49480956212520   -0.02262170211747
C        -0.98036244588148    1.24496585463387   -0.12453306565849
C         2.12108306233509   -0.50681257099348    0.10490007625937
5
 energy: -11.002549725990 gnorm: 0.085919058810 xtb: 6.2.2 (9d81278992624c895f80dd42a50cac0aa55982e2)
N        -1.68238355954259   -0.10452621692952    0.00805698298778
C        -0.37457017579714   -0.09626440386445    0.01860589953796
C         0.91652056145336   -0.49941134952951    0.01110362427522
C        -0.98599846228748    1.16664220644587   -0.11397396652071
C         2.12643163617385   -0.46644123612239    0.07620645971975
5
 energy: -11.009783061440 gnorm: 0.249356880036 xtb: 6.2.2 (9d81278992624c895f80dd42a50cac0aa55982e2)
N        -1.71614725076533    0.04014431144243   -0.03122758279170
C        -0.31352071945915   -0.13568809396924    0.04802365071633
C         0.95005510160690   -0.44651465083602    0.04981616600641
C        -1.10298148756970    1.03870660138271   -0.12230010902865
C         2.18259435618729   -0.49664916801989    0.05568687509762
5
 energy: -11.015880496147 gnorm: 0.094555360691 xtb: 6.2.2 (9d81278992624c895f80dd42a50cac0aa55982e2)
N        -1.73595626414218   -0.06892374494959   -0.01501031964559
C        -0.34628158475220   -0.10179075202026    0.04011758725023
C         0.93412526137048   -0.44158253554925    0.04086800202714
C        -1.04490875005360    1.12207650484519   -0.12792328624829
C         2.19302133757751   -0.50978047232610    0.06194701661651
5
 energy: -11.023138204245 gnorm: 0.085421277093 xtb: 6.2.2 (9d81278992624c895f80dd42a50cac0aa55982e2)
N        -1.70667543542938   -0.05055421690628   -0.00716058097504
C        -0.28705598075036   -0.08660908251716    0.04722692070670
C         0.93219848223737   -0.44707138146152    0.00199718466209
C        -1.11110680597466    1.12489416438968   -0.13735783998579
C         2.17263973991703   -0.54066048350472    0.09529331559205
5
 energy: -11.015359057189 gnorm: 0.175684240656 xtb: 6.2.2 (9d81278992624c895f80dd42a50cac0aa55982e2)
N        -1.71604939719670    0.02895965954711   -0.03474158281412
C        -0.25629064044072   -0.06409353870670    0.02755041525889
C         0.99749491265024   -0.47311197608260    0.05989053056156
C        -1.27559402049009    1.11921435265626   -0.12299009744458
C         2.25043914547727   -0.61096949741407    0.07028973443824
5
 energy: -11.027143785672 gnorm: 0.048615639008 xtb: 6.2.2 (9d81278992624c895f80dd42a50cac0aa55982e2)
N        -1.68453865307853   -0.04303444579673   -0.00458812888799
C        -0.27240115556369   -0.03692357129749    0.02294480845725
C         0.97106369826909   -0.43616486409256    0.01876314578583
C        -1.23905044421705    1.15571538489365   -0.13795804378600
C         2.22492655459018   -0.63959350370687    0.10083721843091
5
 energy: -11.026529845286 gnorm: 0.041815962006 xtb: 6.2.2 (9d81278992624c895f80dd42a50cac0aa55982e2)
N        -1.68032031899593   -0.03395011905343   -0.02460602809779
C        -0.27802014131510   -0.05713365903966    0.03734953079246
C         0.94872924212526   -0.48466015721436    0.03241359474060
C        -1.16788595092585    1.13595484605688   -0.12222608832211
C         2.17749716911162   -0.56021191074943    0.07706799088685
5
 energy: -11.028267408708 gnorm: 0.024953594423 xtb: 6.2.2 (9d81278992624c895f80dd42a50cac0aa55982e2)
N        -1.66578611057655   -0.04209470878680   -0.00402425030132
C        -0.26506422910390   -0.03493450505140    0.03752176430523
C         0.95792942441734   -0.42662983959012    0.00155188557106
C        -1.22404026968386    1.13638623032752   -0.14315078338324
C         2.19696118494697   -0.63272817689920    0.10810038380827
5
 energy: -11.028592883925 gnorm: 0.021638139506 xtb: 6.2.2 (9d81278992624c895f80dd42a50cac0aa55982e2)
N        -1.65511353949219   -0.04590615856471   -0.00060391100244
C        -0.26206892482749   -0.01741392827919    0.02937794873714
C         0.97010918077365   -0.42686769307980    0.00266734246542
C        -1.26003102491861    1.15300244316459   -0.14342888094078
C         2.20710430846464   -0.66281566324089    0.11198650074065
5
 energy: -11.028914558139 gnorm: 0.015458590127 xtb: 6.2.2 (9d81278992624c895f80dd42a50cac0aa55982e2)
N        -1.64046212945015   -0.04867308023720   -0.00296889359996
C        -0.25680442623531   -0.00683225333909    0.03116754161471
C         0.97091426659411   -0.43029178437257    0.00393991123817
C        -1.27483749356434    1.16021998072493   -0.14372895816123
C         2.20118978265568   -0.67442386277609    0.11158939890831
5
 energy: -11.029150849473 gnorm: 0.042275594652 xtb: 6.2.2 (9d81278992624c895f80dd42a50cac0aa55982e2)
N        -1.53984000169946   -0.06989147675177   -0.00169876076053
C        -0.22027931236415    0.06356969362756    0.04249807204055
C         0.98244876336517   -0.41657117792390   -0.01075340619658
C        -1.39403667504109    1.20872070511729   -0.15987055576714
C         2.17170722573953   -0.78582874406917    0.12982365068370
5
 energy: -11.029892188023 gnorm: 0.016670615770 xtb: 6.2.2 (9d81278992624c895f80dd42a50cac0aa55982e2)
N        -1.57658766337773   -0.05453758318244   -0.01500742725056
C        -0.23482612707573    0.03045127744075    0.05059957305096
C         0.97972830080574   -0.42832049674407    0.00908343582685
C        -1.34475390747075    1.18703002792510   -0.15327788002698
C         2.17643939711847   -0.73462422543934    0.10860129839972
5
 energy: -11.030188418408 gnorm: 0.011535207997 xtb: 6.2.2 (9d81278992624c895f80dd42a50cac0aa55982e2)
N        -1.56576845117059   -0.05421287417186   -0.01584550093239
C        -0.23045462710244    0.03632794782498    0.05483783403587
C         0.98550006958633   -0.42183583448965    0.00920873352654
C        -1.36680221422542    1.19451056587141   -0.15796990162986
C         2.17752522291212   -0.75479080503489    0.10976783499984
5
 energy: -11.030496979110 gnorm: 0.015136855444 xtb: 6.2.2 (9d81278992624c895f80dd42a50cac0aa55982e2)
N        -1.52624039659762   -0.05011477598710   -0.02314559044756
C        -0.21783203759693    0.04902684549681    0.07611858043590
C         1.00389566468556   -0.40412429046787    0.01302733626100
C        -1.43265297515635    1.21907736203036   -0.17429567199231
C         2.17282974466534   -0.81386614107220    0.10829434574297
5
 energy: -11.030918933641 gnorm: 0.012166410538 xtb: 6.2.2 (9d81278992624c895f80dd42a50cac0aa55982e2)
N        -1.54013047441494   -0.03504340502226   -0.03487772229417
C        -0.22980865253224    0.01894508839603    0.10603656669414
C         0.98569270388280   -0.44794025961692    0.02553415146023
C        -1.40111059710546    1.22785870311716   -0.18477335316750
C         2.18535702016983   -0.76382112687401    0.08807935730730
5
 energy: -11.031192296074 gnorm: 0.009965146963 xtb: 6.2.2 (9d81278992624c895f80dd42a50cac0aa55982e2)
N        -1.54545211814825   -0.03017501346011   -0.04663799975713
C        -0.23649341154455    0.00030454510560    0.14080574290987
C         0.98633801686782   -0.44093106514065    0.02993283556646
C        -1.38477702022180    1.22639549263044   -0.19614448026438
C         2.18038453304677   -0.75559495913528    0.07204290154517
5
 energy: -11.031377659681 gnorm: 0.009263345377 xtb: 6.2.2 (9d81278992624c895f80dd42a50cac0aa55982e2)
N        -1.55436198838338   -0.02118686209753   -0.05381943359583
C        -0.24830258134453   -0.02626520844855    0.16608346821683
C         0.98213378735621   -0.44588980450054    0.03105415098932
C        -1.36314972417814    1.22939605745878   -0.20474708879796
C         2.18368050654984   -0.73605518241217    0.06142790318763
5
 energy: -11.031591571516 gnorm: 0.010503366076 xtb: 6.2.2 (9d81278992624c895f80dd42a50cac0aa55982e2)
N        -1.55951329525786   -0.01463731681567   -0.05192643059937
C        -0.25965747294920   -0.05317246109730    0.17342708450154
C         0.98333227491933   -0.43464818397791    0.02154467566190
C        -1.34528274961906    1.23047135132774   -0.20733252308764
C         2.18112124290678   -0.72801438943686    0.06428619352357
5
 energy: -11.031740010374 gnorm: 0.007373910204 xtb: 6.2.2 (9d81278992624c895f80dd42a50cac0aa55982e2)
N        -1.56327651867949   -0.00952462302554   -0.04445221750720
C        -0.26848250936449   -0.07708176579828    0.16640732151591
C         0.98319752916242   -0.42543932556938    0.00886706985173
C        -1.33261318082680    1.23387456333497   -0.20546248422820
C         2.18117467970836   -0.72182984894178    0.07463931036775
5
 energy: -11.031807840256 gnorm: 0.006900597529 xtb: 6.2.2 (9d81278992624c895f80dd42a50cac0aa55982e2)
N        -1.56297828575708   -0.00932838247249   -0.03793870467122
C        -0.26969579873834   -0.08638503421142    0.15711455775326
C         0.98743632221242   -0.40978307302453   -0.00106708754842
C        -1.33367332190826    1.23510920872413   -0.20273367277882
C         2.17891108419125   -0.72961371901570    0.08462390724519
5
 energy: -11.031853879737 gnorm: 0.004420353086 xtb: 6.2.2 (9d81278992624c895f80dd42a50cac0aa55982e2)
N        -1.56218481651329   -0.00942138480290   -0.03298930953681
C        -0.26788202695260   -0.09182726793536    0.14910766350968
C         0.99221950497136   -0.39606398182908   -0.00798346372324
C        -1.34006122782462    1.23682135854065   -0.20058927802273
C         2.17790856631914   -0.73950972397330    0.09245338777308
5
 energy: -11.031882427022 gnorm: 0.003658554147 xtb: 6.2.2 (9d81278992624c895f80dd42a50cac0aa55982e2)
N        -1.56076002209214   -0.00915431400760   -0.03142721199403
C        -0.26464910256268   -0.09228084805621    0.14531614700478
C         0.99544737526996   -0.39064080643108   -0.00897788115301
C        -1.34799588250407    1.23812142389650   -0.19981132790726
C         2.17795763188893   -0.74604645540161    0.09489927404950
5
 energy: -11.031909458397 gnorm: 0.004246609058 xtb: 6.2.2 (9d81278992624c895f80dd42a50cac0aa55982e2)
N        -1.55917640820287   -0.00745788958793   -0.03133910524333
C        -0.26203006839624   -0.09441425114101    0.14439375974621
C         0.99902767296045   -0.38712881276400   -0.00746879258089
C        -1.35660281342436    1.24014077519952   -0.20027826985259
C         2.17878161706301   -0.75114082170659    0.09469140793059
5
 energy: -11.031933503697 gnorm: 0.004523396182 xtb: 6.2.2 (9d81278992624c895f80dd42a50cac0aa55982e2)
N        -1.55722975109369   -0.00467239307444   -0.03085225729842
C        -0.26078702856516   -0.09896720419914    0.14239342444068
C         1.00199988468729   -0.38561178427065   -0.00495098205009
C        -1.36428276631903    1.24309272833396   -0.20070905103909
C         2.18029966129058   -0.75384234678974    0.09411786594691
5
 energy: -11.031969184368 gnorm: 0.004006292220 xtb: 6.2.2 (9d81278992624c895f80dd42a50cac0aa55982e2)
N        -1.55425312436547    0.00101869739260   -0.02870677386305
C        -0.26094017259470   -0.11123624855055    0.13673878436248
C         1.00614822071716   -0.38379680841737   -0.00071969886584
C        -1.37418682183287    1.24931968595511   -0.20109216768809
C         2.18323189807586   -0.75530632637979    0.09377885605448
5
 energy: -11.032009053204 gnorm: 0.003370561583 xtb: 6.2.2 (9d81278992624c895f80dd42a50cac0aa55982e2)
N        -1.55113964589075    0.00890431630629   -0.02425519494736
C        -0.26304997782980   -0.13111472650149    0.12618430364933
C         1.01010904584592   -0.38186788377979    0.00454044384283
C        -1.38291591237812    1.25810184401016   -0.20085123909657
C         2.18699649025275   -0.75402455003517    0.09438068655177
5
 energy: -11.032073032020 gnorm: 0.006059235558 xtb: 6.2.2 (9d81278992624c895f80dd42a50cac0aa55982e2)
N        -1.54765056871420    0.02222327765649   -0.01533959088847
C        -0.26825741975073   -0.16846344138090    0.10668786761346
C         1.01574876125979   -0.37524457759581    0.01180000069107
C        -1.39200448541396    1.27204521147351   -0.19990712534717
C         2.19216371261910   -0.75056147015330    0.09675784793111
5
 energy: -11.029698084735 gnorm: 0.100571073062 xtb: 6.2.2 (9d81278992624c895f80dd42a50cac0aa55982e2)
N        -1.52243755841165    0.11907472757391    0.04869688052228
C        -0.30459438351299   -0.44009403845369   -0.03272112918251
C         1.05281682594328   -0.32351619087214    0.06363152995957
C        -1.45212124753289    1.36905679564324   -0.19311066674099
C         2.22633636351424   -0.72452229389131    0.11350238544165
5
 energy: -11.032720196852 gnorm: 0.023855174218 xtb: 6.2.2 (9d81278992624c895f80dd42a50cac0aa55982e2)
N        -1.52143085140314    0.07358741007740    0.00839339358695
C        -0.28362631673262   -0.29762988059113    0.04653050305379
C         1.02150412653926   -0.37241475062824    0.05584012478035
C        -1.42601004651398    1.32071980310828   -0.20034079474608
C         2.20956308811046   -0.72426358196631    0.08957577332498
5
 energy: -11.034978146406 gnorm: 0.054456827009 xtb: 6.2.2 (9d81278992624c895f80dd42a50cac0aa55982e2)
N        -1.50163528951109    0.10572015890214    0.00855909679876
C        -0.29600643163467   -0.38517863947230    0.05422095869303
C         1.02774187335650   -0.34666097697539    0.07857406253708
C        -1.44288594109554    1.34502983994273   -0.21352732887815
C         2.21278578888478   -0.71891138239718    0.07217221084928
5
 energy: -11.043932243271 gnorm: 0.135832339950 xtb: 6.2.2 (9d81278992624c895f80dd42a50cac0aa55982e2)
N        -1.43620563202248    0.19102543199674    0.02135310958738
C        -0.30854706597277   -0.57724762040316    0.01440546018799
C         1.03463931382629   -0.34516197337280    0.16037264325524
C        -1.52735122970377    1.42036115984268   -0.23093778318629
C         2.23746461387272   -0.68897799806346    0.03480557015567
5
 energy: -11.053350899315 gnorm: 0.138363748639 xtb: 6.2.2 (9d81278992624c895f80dd42a50cac0aa55982e2)
N        -1.37183484300432    0.20911992536885    0.01926411526672
C        -0.28029518365456   -0.57025807043965   -0.00014932759033
C         1.03808366210749   -0.34639803481035    0.18226210631977
C        -1.61715420108315    1.42740983284414   -0.23058936940703
C         2.23120056563453   -0.71987465296300    0.02921147541087
5
 energy: -11.054832997415 gnorm: 0.200038276718 xtb: 6.2.2 (9d81278992624c895f80dd42a50cac0aa55982e2)
N        -1.24751947829677    0.23860495733661   -0.03637448667954
C        -0.23871252386058   -0.42419001333468    0.12274174543541
C         0.95646985927261   -0.47221738564107    0.11845697243736
C        -1.64531544526613    1.32996695784605   -0.23376540375097
C         2.17507758815086   -0.67216551620691    0.02894017255773
5
 energy: -11.076756408879 gnorm: 0.093745727225 xtb: 6.2.2 (9d81278992624c895f80dd42a50cac0aa55982e2)
N        -1.24356815402372    0.29817392883418   -0.04883698917550
C        -0.26045143980081   -0.52514488719005    0.15950899722175
C         1.00638796684493   -0.44647845216732    0.14721748731560
C        -1.71338271624357    1.36451876556023   -0.25874880618200
C         2.21101434322316   -0.69107035503705    0.00085831082013
5
 energy: -11.077346143698 gnorm: 0.116795222767 xtb: 6.2.2 (9d81278992624c895f80dd42a50cac0aa55982e2)
N        -1.21183689565839    0.29453204447226   -0.02003766521814
C        -0.23539764585206   -0.45662446592818    0.07272799030310
C         1.08290219497296   -0.36102557278704    0.12774190786186
C        -1.85696699055538    1.35466370558245   -0.23229197032059
C         2.22129933709286   -0.83154671133949    0.05185873737377
5
 energy: -11.084684911558 gnorm: 0.043736692980 xtb: 6.2.2 (9d81278992624c895f80dd42a50cac0aa55982e2)
N        -1.22106074786690    0.33210186145564   -0.01640350150853
C        -0.24997845138780   -0.47256712259754    0.05531090829403
C         1.06074936314266   -0.45332753451757    0.12749837502434
C        -1.84024350954495    1.35514643575593   -0.22413386068514
C         2.25053334565699   -0.76135464009646    0.05772707887530
5
 energy: -11.085778334408 gnorm: 0.039405565249 xtb: 6.2.2 (9d81278992624c895f80dd42a50cac0aa55982e2)
N        -1.20607419696908    0.38241619874614    0.06313364947557
C        -0.23124628196589   -0.42706283700811   -0.00376097243122
C         1.08270244886066   -0.44885730348083    0.07741822799342
C        -1.91322594151153    1.31411142401766   -0.24607897908223
C         2.26784397158583   -0.82060848227486    0.10928707404447
5
 energy: -11.088163893317 gnorm: 0.066329794639 xtb: 6.2.2 (9d81278992624c895f80dd42a50cac0aa55982e2)
N        -1.21207220062681    0.39737997470158   -0.03500434820326
C        -0.21369124841132   -0.35892324243913    0.05777924077088
C         1.11047302364200   -0.43501318011219    0.04253976693577
C        -1.97166898250028    1.28424570756451   -0.19486658429113
C         2.28695940789640   -0.88769025971476    0.12955092478775
5
 energy: -11.090153232982 gnorm: 0.051030875209 xtb: 6.2.2 (9d81278992624c895f80dd42a50cac0aa55982e2)
N        -1.17852216048994    0.45206885993880   -0.08362810261341
C        -0.18839557325615   -0.30420084248728    0.03247916506603
C         1.11656699028825   -0.52336731184955    0.21361853652950
C        -2.04244547692685    1.25548871198587   -0.19225285433401
C         2.29279622038468   -0.87999041758784    0.02978225535188
5
 energy: -11.092928604072 gnorm: 0.051218044986 xtb: 6.2.2 (9d81278992624c895f80dd42a50cac0aa55982e2)
N        -1.15491134644710    0.47438460954386   -0.06930847479067
C        -0.15140228828895   -0.26501263779768    0.02997519707088
C         1.13325097632302   -0.50249668276887    0.13696976747431
C        -2.10789181955823    1.23020847820917   -0.18492574278958
C         2.28095447797125   -0.93708476718648    0.08728825303506
5
 energy: -11.093937966453 gnorm: 0.017315030437 xtb: 6.2.2 (9d81278992624c895f80dd42a50cac0aa55982e2)
N        -1.15764270009968    0.46838926880256   -0.04556176578048
C        -0.15860028737422   -0.27261592763005    0.02621908133634
C         1.12309784010643   -0.48643185561124    0.09713447646446
C        -2.08210016057162    1.22393008815018   -0.18929976322693
C         2.27524530793908   -0.93327257371145    0.11150697120662
5
 energy: -11.094623658719 gnorm: 0.023713819713 xtb: 6.2.2 (9d81278992624c895f80dd42a50cac0aa55982e2)
N        -1.15124353050834    0.49566315340668   -0.04695172075592
C        -0.14496539471149   -0.23246099668645    0.01910492883602
C         1.13382917110893   -0.49230719544373    0.08604088281970
C        -2.12204232511076    1.19513261002200   -0.18335619648949
C         2.28442207922165   -0.96602857129850    0.12516110558970
5
 energy: -11.095300144808 gnorm: 0.018159597818 xtb: 6.2.2 (9d81278992624c895f80dd42a50cac0aa55982e2)
N        -1.14017125289672    0.52710142164939   -0.06356361238639
C        -0.12535266278753   -0.18708069389979    0.01816315676796
C         1.14045184204240   -0.50874105369272    0.08948759659085
C        -2.15863996207368    1.15958578287808   -0.17210784948335
C         2.28371203571551   -0.99086645693495    0.12801970851093
5
 energy: -11.095658851954 gnorm: 0.004947129199 xtb: 6.2.2 (9d81278992624c895f80dd42a50cac0aa55982e2)
N        -1.13368142532942    0.54465049391699   -0.07643150413712
C        -0.10936378599112   -0.15719796682488    0.02349776270904
C         1.14080154767484   -0.51314266775372    0.07588918051233
C        -2.17438686277197    1.13296455178018   -0.16145732465974
C         2.27663052641766   -1.00727541111856    0.13850088557550
5
 energy: -11.095731587483 gnorm: 0.007784400397 xtb: 6.2.2 (9d81278992624c895f80dd42a50cac0aa55982e2)
N        -1.12726899219663    0.55897140589429   -0.08177750317047
C        -0.09586701053749   -0.13092876232244    0.02283618304851
C         1.14278060647226   -0.51567330990669    0.06735974500223
C        -2.19142815165695    1.11149111304878   -0.15511910925732
C         2.27178354791879   -1.02386144671393    0.14669968437706
5
 energy: -11.095772538714 gnorm: 0.004808200216 xtb: 6.2.2 (9d81278992624c895f80dd42a50cac0aa55982e2)
N        -1.12703762843500    0.56105191407195   -0.08432689223137
C        -0.09114757987810   -0.12134432289763    0.02337586674759
C         1.14233854008299   -0.51566025614208    0.06477254820517
C        -2.19177598102755    1.10368140715481   -0.15254245393175
C         2.26762264925765   -1.02772974218704    0.14871993121037
5
 energy: -11.095800390083 gnorm: 0.004146846060 xtb: 6.2.2 (9d81278992624c895f80dd42a50cac0aa55982e2)
N        -1.12710873593361    0.56336180576123   -0.08511924958779
C        -0.08678046917789   -0.11152318035815    0.02186917874326
C         1.14413783306237   -0.51514873262000    0.06399771444437
C        -2.19658842943069    1.09763424658327   -0.15108468210283
C         2.26633980147981   -1.03432513936634    0.15033603850299
5
 energy: -11.095882137592 gnorm: 0.003912017984 xtb: 6.2.2 (9d81278992624c895f80dd42a50cac0aa55982e2)
N        -1.12956706912532    0.56681422428660   -0.08530901909312
C        -0.06987216280881   -0.07546224321174    0.01330413426098
C         1.15103596888402   -0.51104982574223    0.06660938324159
C        -2.21181485861923    1.07829173597465   -0.14764913320087
C         2.26021812166932   -1.05859489130728    0.15304363479143
5
 energy: -11.095916064960 gnorm: 0.003637733627 xtb: 6.2.2 (9d81278992624c895f80dd42a50cac0aa55982e2)
N        -1.13229462588725    0.56336561519008   -0.08223681878352
C        -0.06393855043235   -0.06442821719526    0.00782340906578
C         1.15301560541465   -0.50790895074170    0.07130452703281
C        -2.21391038644430    1.07480555526816   -0.14849583040225
C         2.25712795734923   -1.06583500252127    0.15160371308719
5
 energy: -11.095935802937 gnorm: 0.002957030114 xtb: 6.2.2 (9d81278992624c895f80dd42a50cac0aa55982e2)
N        -1.13455438551149    0.55927527959738   -0.07808722557277
C        -0.05954817477439   -0.05778670640221    0.00237046813477
C         1.15346696317159   -0.50646596912285    0.07737779152092
C        -2.21418284766985    1.07419849932508   -0.15051540532531
C         2.25481844478412   -1.06922210339739    0.14885337124241
5
 energy: -11.095944067315 gnorm: 0.002504374294 xtb: 6.2.2 (9d81278992624c895f80dd42a50cac0aa55982e2)
N        -1.13571767134374    0.55770268549582   -0.07579543658963
C        -0.05735787495412   -0.05438084281479   -0.00021906261033
C         1.15310941666312   -0.50697980369798    0.07989307352207
C        -2.21449305285134    1.07394439435935   -0.15164406192941
C         2.25445918248607   -1.07028743334239    0.14776448760732
5
 energy: -11.095962416472 gnorm: 0.002559860524 xtb: 6.2.2 (9d81278992624c895f80dd42a50cac0aa55982e2)
N        -1.13781955344480    0.55545811048611   -0.07143408586296
C        -0.05292251975295   -0.04669869765877   -0.00516634710224
C         1.15122281517209   -0.51121270986410    0.08547941150833
C        -2.21541953283848    1.07325471225992   -0.15401310747767
C         2.25493879086412   -1.07080241522315    0.14513312893455
5
 energy: -11.095982776972 gnorm: 0.002811973121 xtb: 6.2.2 (9d81278992624c895f80dd42a50cac0aa55982e2)
N        -1.13974948125416    0.55405402723367   -0.06824301236049
C        -0.04781288501907   -0.03660477631784   -0.00884501868009
C         1.14808127897021   -0.51835156196635    0.08941725479031
C        -2.21695403793723    1.07153823706391   -0.15570197545264
C         2.25643512524023   -1.07063692601338    0.14337175170293
5
 energy: -11.096002870933 gnorm: 0.002868049418 xtb: 6.2.2 (9d81278992624c895f80dd42a50cac0aa55982e2)
N        -1.14099022814572    0.55377099669262   -0.06779584435980
C        -0.04171749396290   -0.02316098644646   -0.01021237313069
C         1.14415555980889   -0.52815908445190    0.09094029201313
C        -2.21958395031275    1.06797092327877   -0.15582175758864
C         2.25813611261247   -1.07042284907303    0.14288868306600
5
 energy: -11.096017483702 gnorm: 0.003046430827 xtb: 6.2.2 (9d81278992624c895f80dd42a50cac0aa55982e2)
N        -1.14156874196621    0.55349511359413   -0.07026781269132
C        -0.03630653959172   -0.01069348768602   -0.00844610683151
C         1.14128602121813   -0.53555089938799    0.08800212700926
C        -2.22208800536882    1.06401836936301   -0.15407991558831
C         2.25867726570860   -1.07127009588313    0.14479070810189
5
 energy: -11.096029803632 gnorm: 0.002372010490 xtb: 6.2.2 (9d81278992624c895f80dd42a50cac0aa55982e2)
N        -1.14219202034224    0.55219181255506   -0.07428971600402
C        -0.03070208131217    0.00220074658602   -0.00520850634240
C         1.13955089833465   -0.54102606010396    0.08294981100868
C        -2.22459695641646    1.06003484689119   -0.15132759092455
C         2.25794015973620   -1.07340234592829    0.14787500226231
5
 energy: -11.096037755688 gnorm: 0.001488812217 xtb: 6.2.2 (9d81278992624c895f80dd42a50cac0aa55982e2)
N        -1.14310646908032    0.54905919527489   -0.07744448406780
C        -0.02732453915485    0.00994652855188   -0.00182781144144
C         1.13875207781584   -0.54331167866156    0.07769600297447
C        -2.22503788840581    1.05891768943126   -0.14922008690109
C         2.25671681882512   -1.07461273459647    0.15079537943588
5
 energy: -11.096039934883 gnorm: 0.000717800706 xtb: 6.2.2 (9d81278992624c895f80dd42a50cac0aa55982e2)
N        -1.14479995897655    0.54544720358358   -0.07838167061777
C        -0.02345715431085    0.01798715732646   -0.00121446986523
C         1.13923583480972   -0.54408990219255    0.07559357371664
C        -2.22610576381698    1.05799015266542   -0.14829841349121
C         2.25512704229465   -1.07733561138291    0.15229998025759
