$hessian                                                                        
        2.4705817215   0.0325062243  -0.0000072726  -1.4618729960  -0.0200491112
        0.0000021986  -1.0084040718  -0.0125352445   0.0000011035
        0.0325062243   0.1102803046  -0.0000000972  -0.0197126398  -0.0561287266
        0.0000000304  -0.0127892950  -0.0540916124   0.0000000132
       -0.0000072726  -0.0000000972   0.1097693358   0.0000046205   0.0000000682
       -0.0559132022   0.0000026510   0.0000000343  -0.0540010468
       -1.4618729960  -0.0197126398   0.0000046205   1.4703525000   0.0203470245
       -0.0000026418  -0.0085676396  -0.0006075501   0.0000004654
       -0.0200491112  -0.0561287266   0.0000000682   0.0203470245   0.0286881565
       -0.0000000349  -0.0002994154   0.0274557397   0.0000000007
        0.0000021986   0.0000000304  -0.0559132022  -0.0000026418  -0.0000000349
        0.0284048101   0.0000004434   0.0000000054   0.0275524927
       -1.0084040718  -0.0127892950   0.0000026510  -0.0085676396  -0.0002994154
        0.0000004434   1.0167551932   0.0131400072  -0.0000015681
       -0.0125352445  -0.0540916124   0.0000000343  -0.0006075501   0.0274557397
        0.0000000054   0.0131400072   0.0265607376  -0.0000000200
        0.0000011035   0.0000000132  -0.0540010468   0.0000004654   0.0000000007
        0.0275524927  -0.0000015681  -0.0000000200   0.0265493667
