3
 energy: -9.623099852782 gnorm: 0.348029961013 xtb: 6.2.2 (9d81278992624c895f80dd42a50cac0aa55982e2)
N        -0.02420400000000    0.54743800000000    0.00000000000000
N         1.11661400000000   -0.26406300000000    0.00000000000000
O        -1.09241100000000   -0.28337500000000    0.00000000000000
3
 energy: -9.740804857061 gnorm: 0.313307289359 xtb: 6.2.2 (9d81278992624c895f80dd42a50cac0aa55982e2)
N         0.00242258784926    0.38441024558923    0.00000000000000
N         1.12940955957824   -0.17510238994206    0.00000000000000
O        -1.13183314742749   -0.20930785564717    0.00000000000000
3
 energy: -9.707823111347 gnorm: 1.407701542344 xtb: 6.2.2 (9d81278992624c895f80dd42a50cac0aa55982e2)
N         0.07692344000945    0.06789830408180    0.00000000000000
N         1.00215243057963    0.00485888632796    0.00000000000000
O        -1.07907687058908   -0.07275719040976    0.00000000000000
3
 energy: -9.840858444926 gnorm: 0.160100457564 xtb: 6.2.2 (9d81278992624c895f80dd42a50cac0aa55982e2)
N        -0.00340039127797   -0.00489530555007    0.00000000000000
N         1.14088698427239    0.01106243849307    0.00000000000000
O        -1.13748759299442   -0.00616713294301    0.00000000000000
3
 energy: -9.843298952041 gnorm: 0.065731290127 xtb: 6.2.2 (9d81278992624c895f80dd42a50cac0aa55982e2)
N         0.01405884171976   -0.00338369895780    0.00000000000000
N         1.14024406478870    0.01689226519959    0.00000000000000
O        -1.15430390650846   -0.01350856624180    0.00000000000000
3
 energy: -9.844417004517 gnorm: 0.024816200962 xtb: 6.2.2 (9d81278992624c895f80dd42a50cac0aa55982e2)
N         0.01641114791233    0.03172017791550    0.00000000000000
N         1.11662053107280    0.00059543826393    0.00000000000000
O        -1.13303267898512   -0.03231561617943    0.00000000000000
3
 energy: -9.844899300844 gnorm: 0.005560422884 xtb: 6.2.2 (9d81278992624c895f80dd42a50cac0aa55982e2)
N         0.01451853881381    0.00846466425133    0.00000000000000
N         1.12151075791117    0.01117193165011    0.00000000000000
O        -1.13603029672498   -0.01963659590143    0.00000000000000
3
 energy: -9.844932744438 gnorm: 0.002019325708 xtb: 6.2.2 (9d81278992624c895f80dd42a50cac0aa55982e2)
N         0.01482243438101    0.00097892778321    0.00000000000000
N         1.12101250751245    0.01490171029524    0.00000000000000
O        -1.13583594189346   -0.01588063807846    0.00000000000000
3
 energy: -9.844933799157 gnorm: 0.000810776379 xtb: 6.2.2 (9d81278992624c895f80dd42a50cac0aa55982e2)
N         0.01495955188899   -0.00016777513163    0.00000000000000
N         1.12031305356837    0.01550167056466    0.00000000000000
O        -1.13527360545735   -0.01533389543303    0.00000000000000
