[Molden Format]
[Title]
[Atoms] AU
N      1     7  0.28269451733852E-01 -0.31719703839439E-03 -0.98125652965612E-07
N      2     7  0.21170848020050E+01  0.29282824093742E-01 -0.74411470487269E-05
O      3     8 -0.21453561434648E+01 -0.28965627045454E-01  0.75392792983614E-05
[GTO]
           1 0
 s           4   1.0000000000000000     
   63.594024466941008      -0.19234388414721629     
   10.951417231523665      -0.23478107924953728     
  0.87999310257376984       0.37593753901700888     
  0.33538715296521110       0.14982889271862770     
 p           4   1.0000000000000000     
   7.2965040481495080       0.97658666315667420     
   1.8918745450712575       0.90372226730345739     
  0.66694432110824120       0.47404958461536373     
  0.26552202674130870        7.1516067715011844E-002

           2 0
 s           4   1.0000000000000000     
   63.594024466941008      -0.19234388414721629     
   10.951417231523665      -0.23478107924953728     
  0.87999310257376984       0.37593753901700888     
  0.33538715296521110       0.14982889271862770     
 p           4   1.0000000000000000     
   7.2965040481495080       0.97658666315667420     
   1.8918745450712575       0.90372226730345739     
  0.66694432110824120       0.47404958461536373     
  0.26552202674130870        7.1516067715011844E-002

           3 0
 s           4   1.0000000000000000     
   69.137961906196551      -0.20478756370077797     
   11.906129132707308      -0.24997023136827334     
  0.95670827744340703       0.40025880240639616     
  0.36462520496073686       0.15952206667693555     
 p           4   1.0000000000000000     
   8.2124193257781641        1.1321556799186829     
   2.1293576997098116        1.0476840782254817     
  0.75066448202360914       0.54956508217158984     
  0.29885246543283073        8.2908486592766617E-002

[MO]
Sym=     1a
Ene=  -0.81033582691777206     
Spin= Alpha
Occup=     2.00000000
           1 -0.44605864786678878     
           2  0.24805012023537135     
           3   3.2239173388751495E-003
           4  -8.6682195214587137E-007
           5  -2.8328910242618365E-002
           6   6.3144087278437427E-002
           7   8.4891056895830650E-004
           8  -2.2008460051989141E-007
           9 -0.51230616205006452     
          10 -0.28876546565350525     
          11  -3.8113437304977825E-003
          12   1.0396998521754778E-006
Sym=     2a
Ene=  -0.74653166759509126     
Spin= Alpha
Occup=     2.00000000
           1  0.40141115097606234     
           2  0.35668083329714612     
           3   4.9945804853033949E-003
           4  -1.2423070439079996E-006
           5  0.40245844817431892     
           6 -0.25006262911097332     
           7  -3.5407912751439625E-003
           8   8.7871456461988385E-007
           9 -0.31785161662452383     
          10   6.9322782363810440E-002
          11   1.0488194086440445E-003
          12  -2.2340150283886138E-007
Sym=     3a
Ene=  -0.66648757325234809     
Spin= Alpha
Occup=     2.00000000
           1   1.0051853014257070E-004
           2   1.7973933954191904E-003
           3 -0.13341717158726715     
           4  0.64824454097787432     
           5  -4.9570725491536192E-005
           6   8.0332349895782600E-004
           7  -5.7368630961310570E-002
           8  0.27874355081407121     
           9  -9.5446131309381439E-005
          10   1.3766479467317385E-003
          11  -9.8788576116843732E-002
          12  0.47999481361927787     
Sym=     4a
Ene=  -0.66648757053334950     
Spin= Alpha
Occup=     2.00000000
           1   4.8818686052323133E-004
           2   8.7210915696756472E-003
           3 -0.64818568739935978     
           4 -0.13342931993218329     
           5  -2.4054117470339331E-004
           6   3.8978018139674271E-003
           7 -0.27871617862455222     
           8  -5.7374275940342785E-002
           9  -4.6321245484498037E-004
          10   6.6792369118240085E-003
          11 -0.47994827655615663     
          12  -9.8798180779766501E-002
Sym=     5a
Ene=  -0.64007568565865269     
Spin= Alpha
Occup=     2.00000000
           1 -0.15120274624912486     
           2  0.24661173304466555     
           3   2.9328345260141919E-003
           4  -7.4635329410971093E-007
           5  0.31082266153325783     
           6  -1.5955916597533412E-002
           7  -5.2424469569629809E-004
           8   1.1801834439415056E-007
           9  0.70426144203397889     
          10 -0.57538664444453314     
          11  -7.9831722306696710E-003
          12   2.0696117258819999E-006
Sym=     6a
Ene=  -0.51380890215757524     
Spin= Alpha
Occup=     2.00000000
           1 -0.15759223255177923     
           2 -0.18477175530324311     
           3  -2.3096045979058657E-003
           4   6.4245412289365312E-007
           5  0.73284075328965870     
           6  0.61728444800739479     
           7   9.4672081307473725E-003
           8  -2.1764149902732753E-006
           9  -5.8509493050284175E-002
          10  0.24146091004241746     
          11   2.1085246898735767E-003
          12  -8.3571528075403386E-007
Sym=     7a
Ene=  -0.49011120017358673     
Spin= Alpha
Occup=     2.00000000
           1  -4.5423117321687632E-006
           2   9.9354658055381221E-005
           3  -8.1374894392436201E-003
           4 -0.19541355953240827     
           5   3.5351205675412005E-005
           6   4.2386957272233169E-004
           7  -2.7346271777740683E-002
           8 -0.65672288530213674     
           9   3.2967715158892482E-007
          10  -3.8389477654050092E-004
          11   3.0510548650593956E-002
          12  0.73268408668978524     
Sym=     8a
Ene=  -0.49011114896216679     
Spin= Alpha
Occup=     2.00000000
           1  -1.0909739914903924E-004
           2   2.4022564932442837E-003
           3 -0.19539883574353534     
           4   8.1380966048116340E-003
           5   8.4892366186161197E-004
           6   1.0233759258481337E-002
           7 -0.65664339365035462     
           8   2.7349544458931667E-002
           9   7.0978829721160155E-006
          10  -9.2794940876480634E-003
          11  0.73262466648122282     
          12  -3.0512997355451380E-002
Sym=     9a
Ene=  -0.26069794644338334     
Spin= Alpha
Occup=     0.00000000
           1   7.4541731026573244E-004
           2   1.0920128578774930E-002
           3 -0.80564640065892446     
           4   1.2618068790474847E-002
           5  -1.4947341827980839E-005
           6  -1.0141928767230857E-002
           7  0.74803656701368360     
           8  -1.1715774249532962E-002
           9  -1.0532266980143828E-004
          10  -7.3680498064317571E-003
          11  0.52303661905138532     
          12  -8.1918705055268239E-003
Sym=    10a
Ene=  -0.26069778774679209     
Spin= Alpha
Occup=     0.00000000
           1  -1.1670867940718403E-005
           2  -1.6818419715153640E-004
           3   1.2616939517599134E-002
           4  0.80572087869354259     
           5   2.3295888813516259E-007
           6   1.5620491668422265E-004
           7  -1.1714733312418469E-002
           8 -0.74810533608678720     
           9   1.6370811224671159E-006
          10   1.1355162011586603E-004
          11  -8.1910942672677508E-003
          12 -0.52308845688688943     
Sym=    11a
Ene=   0.16046432337817307     
Spin= Alpha
Occup=     0.00000000
           1  -1.1590836887853635     
           2  0.21033962522179095     
           3   1.8611330572039090E-003
           4  -7.3040599949332721E-007
           5  0.34667106481830312     
           6 -0.64310495714474447     
           7  -8.6351340096130665E-003
           8   2.2582183813084342E-006
           9  0.49429278814225214     
          10  0.79013305920999422     
          11   1.0747424745944993E-002
          12  -2.7726194496714075E-006
Sym=    12a
Ene=    1.1561266700824684     
Spin= Alpha
Occup=     0.00000000
           1  0.28310868076065793     
           2   1.4532324785636739     
           3   2.0003301344028602E-002
           4  -5.1074231663618923E-006
           5 -0.87636158504001005     
           6  0.89746474136434873     
           7   1.2873569000946645E-002
           8  -3.1556572455218379E-006
           9  0.61990446735594296     
          10  0.62825880802261669     
          11   8.0942667725184374E-003
          12  -2.2039154095416417E-006
