      -----------------------------------------------------------      
     |                   =====================                   |     
     |                           x T B                           |     
     |                   =====================                   |     
     |                         S. Grimme                         |     
     |          Mulliken Center for Theoretical Chemistry        |     
     |                    University of Bonn                     |     
      -----------------------------------------------------------      

   * xtb version 6.2.2 (9d81278992624c895f80dd42a50cac0aa55982e2) compiled by '@Darwin' on 04/03/2020

   xtb is free software: you can redistribute it and/or modify it under
   the terms of the GNU Lesser General Public License as published by
   the Free Software Foundation, either version 3 of the License, or
   (at your option) any later version.
   
   xtb is distributed in the hope that it will be useful,
   but WITHOUT ANY WARRANTY; without even the implied warranty of
   MERCHANTABILITY or FITNESS FOR A PARTICULAR PURPOSE.  See the
   GNU Lesser General Public License for more details.
   
   Cite this work as:
   * S. Grimme, C. Bannwarth, P. Shushkov, J. Chem. Theory Comput., 2017,
     13, 1989-2009. DOI: 10.1021/acs.jctc.7b00118
   * C. Bannwarth, S. Ehlert and S. Grimme., J. Chem. Theory Comput., 2019,
     15, 1652-1671. DOI: 10.1021/acs.jctc.8b01176
   * P. Pracht, E. Caldeweyher, S. Ehlert, S. Grimme, ChemRxiv, 2019, preprint.
     DOI: 10.26434/chemrxiv.8326202.v1
   
   for DFT-D4:
   * E. Caldeweyher, C. Bannwarth and S. Grimme, J. Chem. Phys., 2017,
     147, 034112. DOI: 10.1063/1.4993215
   * E. Caldeweyher, S. Ehlert, A. Hansen, H. Neugebauer, S. Spicher,
     C. Bannwarth and S. Grimme, J. Chem. Phys., 2019, 150, 154122.
     DOI: 10.1063/1.5090222
   
   for sTDA-xTB:
   * S. Grimme and C. Bannwarth, J. Chem. Phys., 2016, 145, 054103.
     DOI: 10.1063/1.4959605
   
   in the mass-spec context:
   * V. Asgeirsson, C. Bauer and S. Grimme, Chem. Sci., 2017, 8, 4879.
     DOI: 10.1039/c7sc00601b
   
   for metadynamics refer to:
   * S. Grimme, J. Chem. Theory Comput., 2019, 155, 2847-2862
     DOI: 10.1021/acs.jctc.9b00143
   
   with help from (in alphabetical order)
   C. Bannwarth, F. Bohle, G. Brandenburg, E. Caldeweyher, M. Checinski,
   S. Dohm, S. Ehlert, S. Ehrlich, F. März, H. Neugebauer, J. Pisarek,
   P. Pracht, P. Shushkov, and S. Spicher.
   
 * started run on 2020/05/12 at 11:43:54.563     

           -------------------------------------------------
          |                Calculation Setup                |
           -------------------------------------------------

          program call               : xtb --input N2O1_1_S_0.input N2O1_1_S_0.xyz --ohess --molden --namespace N2O1_1_S_0 output.out
          calculation namespace      : N2O1_1_S_0
          coordinate file            : N2O1_1_S_0.xyz
          number of atoms            :                     3
          number of electrons        :                    16
          charge                     :                     0
          spin                       :                   0.0
          first test random number   :      0.65764178870364

   ID    Z sym.   atoms
    1    7 N      1, 2
    2    8 O      3

           -------------------------------------------------
          |                 G F N 2 - x T B                 |
           -------------------------------------------------

        Reference                      10.1021/acs.jctc.8b01176
      * Hamiltonian:
        H0-scaling (s, p, d)           1.850000    2.230000    2.230000
        zeta-weighting                 0.500000
      * Dispersion:
        s8                             2.700000
        a1                             0.520000
        a2                             5.000000
        s9                             5.000000
      * Repulsion:
        kExp                           1.500000    1.000000
        rExp                           1.000000
      * Coulomb:
        alpha                          2.000000
        third order                    shell-resolved
        anisotropic                    true
        a3                             3.000000
        a5                             4.000000
        cn-shift                       1.200000
        cn-exp                         4.000000
        max-rad                        5.000000


          ...................................................
          :                      SETUP                      :
          :.................................................:
          :  # basis functions                  12          :
          :  # atomic orbitals                  12          :
          :  # shells                            6          :
          :  # electrons                        16          :
          :  max. iterations                   250          :
          :  Hamiltonian                  GFN2-xTB          :
          :  restarted?                      false          :
          :  GBSA solvation                  false          :
          :  PC potential                    false          :
          :  electronic temp.          300.0000000     K    :
          :  accuracy                    1.0000000          :
          :  -> integral cutoff          0.2500000E+02      :
          :  -> integral neglect         0.1000000E-07      :
          :  -> SCF convergence          0.1000000E-05 Eh   :
          :  -> wf. convergence          0.1000000E-03 e    :
          :  Broyden damping             0.4000000          :
          ...................................................

 iter      E             dE          RMSdq      gap      omega  full diag
   1     -9.4964136 -0.949641E+01  0.106E+01    1.33       0.0  T
   2     -8.7884622  0.707951E+00  0.153E+01    1.38       1.0  T
   3     -9.4127876 -0.624325E+00  0.100E+01    1.14       1.0  T
   4     -9.5669557 -0.154168E+00  0.610E+00    0.66       1.0  T
   5     -9.6023168 -0.353610E-01  0.396E+00    0.33       1.0  T
   6     -9.6265347 -0.242179E-01  0.224E+00    0.18       1.0  T
   7     -9.6199946  0.654011E-02  0.319E+00    0.05       1.0  T
   8     -9.6288661 -0.887158E-02  0.172E+00    0.05       1.0  T
   9     -9.6282775  0.588616E-03  0.209E+00    0.19       1.0  T
  10     -9.6175723  0.107052E-01  0.280E+00    0.16       1.0  T
  11     -9.6351105 -0.175382E-01  0.350E-01    0.09       1.0  T
  12     -9.6353433 -0.232792E-03  0.144E-01    0.09       1.0  T
  13     -9.6353316  0.117512E-04  0.125E-01    0.08       1.0  T
  14     -9.6353380 -0.636781E-05  0.123E-01    0.08       1.0  T
  15     -9.6353714 -0.334817E-04  0.182E-03    0.08      31.8  T
  16     -9.6353713  0.105804E-06  0.665E-03    0.08       8.7  T
  17     -9.6353712  0.168003E-06  0.112E-02    0.08       5.2  T
  18     -9.6353714 -0.258299E-06  0.285E-03    0.08      20.3  T
  19     -9.6353714 -0.190346E-07  0.185E-04    0.08     311.4  T
  20     -9.6353714 -0.426823E-10  0.118E-04    0.08     487.4  T

   *** convergence criteria satisfied after 20 iterations ***

         #    Occupation            Energy/Eh            Energy/eV
      -------------------------------------------------------------
         1        2.0000           -0.7669797             -20.8706
         2        2.0000           -0.7034243             -19.1412
         3        2.0000           -0.6433963             -17.5077
         4        2.0000           -0.6077579             -16.5379
         5        2.0000           -0.5960257             -16.2187
         6        2.0000           -0.5568404             -15.1524
         7        2.0000           -0.4864989             -13.2383
         8        1.6597           -0.4680870             -12.7373 (HOMO)
         9        0.3403           -0.4650763             -12.6554 (LUMO)
        10                         -0.3921163             -10.6700
        11                         -0.0535228              -1.4564
        12                         -0.0218438              -0.5944
      -------------------------------------------------------------
                  HL-Gap            0.0030106 Eh            0.0819 eV
             Fermi-level           -0.4665817 Eh          -12.6963 eV

 SCC (total)                   0 d,  0 h,  0 min,  0.002 sec
 SCC setup                      ...        0 min,  0.000 sec (  2.987%)
 Dispersion                     ...        0 min,  0.000 sec (  0.303%)
 integral evaluation            ...        0 min,  0.001 sec ( 24.710%)
 zeroth order Hamiltonian       ...        0 min,  0.000 sec (  0.386%)
 iterations                     ...        0 min,  0.001 sec ( 46.507%)
 molecular gradient             ...        0 min,  0.000 sec ( 21.869%)
 printout                       ...        0 min,  0.000 sec (  2.924%)

         :::::::::::::::::::::::::::::::::::::::::::::::::::::
         ::                     SUMMARY                     ::
         :::::::::::::::::::::::::::::::::::::::::::::::::::::
         :: total energy              -9.623099852728 Eh    ::
         :: gradient norm              0.348030453076 Eh/a0 ::
         :: HOMO-LUMO gap              0.081922935429 eV    ::
         ::.................................................::
         :: SCC energy                -9.635371443291 Eh    ::
         :: -> isotropic ES            0.013326178460 Eh    ::
         :: -> anisotropic ES         -0.000845034484 Eh    ::
         :: -> anisotropic XC          0.011692485166 Eh    ::
         :: -> dispersion             -0.000707925200 Eh    ::
         :: repulsion energy           0.012271589650 Eh    ::
         :: add. restraining           0.000000000000 Eh    ::
         :::::::::::::::::::::::::::::::::::::::::::::::::::::

      ----------------------------------------------------------- 
     |                   =====================                   |
     |                        A N C O P T                        |
     |                   =====================                   |
     |               Approximate Normal Coordinate               |
     |                Rational Function Optimizer                |
      ----------------------------------------------------------- 

          ...................................................
          :                      SETUP                      :
          :.................................................:
          :   optimization level            normal          :
          :   max. optcycles                   200          :
          :   ANC micro-cycles                  20          :
          :   degrees of freedom                 3          :
          :.................................................:
          :   RF solver                   davidson          :
          :   write xtbopt.log                true          :
          :   linear?                        false          :
          :   energy convergence         0.5000000E-05 Eh   :
          :   grad. convergence          0.1000000E-02 Eh/α :
          :   maximium RF displ.         1.0000000          :
          :   Hlow (freq-cutoff)         0.1000000E-01      :
          :   Hmax (freq-cutoff)         5.0000000          :
          :   S6 in model hess.         20.0000000          :
          ...................................................

generating ANC from model Hessian ...
Using Lindh-Hessian (1995)
 Shifting diagonal of input Hessian by    0.0000000000000000     
 Lowest  eigenvalues of input Hessian
   -0.000000   -0.000000   -0.000000    0.000000    0.000000    0.000000
    0.193654    1.091439    1.405132
 Highest eigenvalues
    0.000000    0.000000    0.000000    0.193654    1.091439    1.405132


........................................................................
.............................. CYCLE    1 ..............................
........................................................................
   1     -9.6353714 -0.963537E+01  0.949E-05    0.08       0.0  T
   2     -9.6353714  0.737589E-08  0.168E-03    0.08      34.3  T
   3     -9.6353714 -0.737283E-08  0.979E-05    0.08     589.7  T
   4     -9.6353714 -0.188543E-10  0.455E-05    0.08    1268.0  T
     SCC iter.                  ...        0 min,  0.000 sec
     gradient                   ...        0 min,  0.000 sec
 * total energy  :    -9.6230999 Eh     change       -0.5388046E-10 Eh
   gradient norm :     0.3480300 Eh/α   predicted     0.0000000E+00 (-100.00%)
   displ. norm   :     0.3891404 α      lambda       -0.1171209E+00
   maximum displ.:     0.2790031 α      in ANC's #2, #1, #3, ...

........................................................................
.............................. CYCLE    2 ..............................
........................................................................
   1     -9.7497718 -0.974977E+01  0.442E+00    1.91       0.0  T
   2     -9.6931677  0.566042E-01  0.595E+00    1.84       1.0  T
   3     -9.7694420 -0.762744E-01  0.195E+00    1.70       1.0  T
   4     -9.7718527 -0.241065E-02  0.113E+00    1.76       1.0  T
   5     -9.7744240 -0.257133E-02  0.251E-01    1.71       1.0  T
   6     -9.7744975 -0.734726E-04  0.557E-02    1.71       1.0  T
   7     -9.7745053 -0.776274E-05  0.119E-02    1.71       4.8  T
   8     -9.7745053 -0.779244E-07  0.214E-03    1.71      27.0  T
   9     -9.7745053  0.701984E-09  0.151E-03    1.71      38.2  T
  10     -9.7745053 -0.556460E-08  0.179E-04    1.71     322.1  T
  11     -9.7745053 -0.532907E-13  0.141E-04    1.71     409.9  T
     SCC iter.                  ...        0 min,  0.001 sec
     gradient                   ...        0 min,  0.000 sec
 * total energy  :    -9.7408049 Eh     change       -0.1177050E+00 Eh
   gradient norm :     0.3132741 Eh/α   predicted    -0.6742829E-01 ( -42.71%)
   displ. norm   :     0.7921986 α      lambda       -0.2450880E+00
   maximum displ.:     0.7618521 α      in ANC's #2, #1, #3, ...

........................................................................
.............................. CYCLE    3 ..............................
........................................................................
   1    -10.0341014 -0.100341E+02  0.657E+00    9.47       0.0  T
   2    -10.0499623 -0.158609E-01  0.328E+00    8.63       1.0  T
   3    -10.0509434 -0.981115E-03  0.109E+00    8.51       1.0  T
   4    -10.0511323 -0.188874E-03  0.309E-01    8.47       1.0  T
   5    -10.0511757 -0.434222E-04  0.777E-02    8.52       1.0  T
   6    -10.0511759 -0.149629E-06  0.275E-02    8.50       2.1  T
   7    -10.0511775 -0.161365E-05  0.488E-03    8.51      11.8  T
   8    -10.0511775 -0.223521E-07  0.902E-04    8.51      64.0  T
   9    -10.0511775 -0.976438E-09  0.492E-04    8.51     117.3  T
     SCC iter.                  ...        0 min,  0.000 sec
     gradient                   ...        0 min,  0.001 sec
 * total energy  :    -9.7078231 Eh     change        0.3298175E-01 Eh
   gradient norm :     1.3390987 Eh/α   predicted    -0.1994499E+00 (-704.73%)
   displ. norm   :     0.3726290 α      lambda       -0.4087058E+00
   maximum displ.:     0.3099016 α      in ANC's #1, #3, #2, ...

........................................................................
.............................. CYCLE    4 ..............................
........................................................................
   1     -9.8550184 -0.985502E+01  0.606E+00    5.44       0.0  T
   2     -9.8669806 -0.119622E-01  0.572E+00    5.80       1.0  T
   3     -9.9362091 -0.692285E-01  0.128E+00    5.94       1.0  T
   4     -9.9364880 -0.278893E-03  0.724E-01    5.87       1.0  T
   5     -9.9365556 -0.676098E-04  0.103E-01    5.84       1.0  T
   6     -9.9365701 -0.144897E-04  0.494E-02    5.86       1.2  T
   7     -9.9365731 -0.299718E-05  0.845E-03    5.85       6.8  T
   8     -9.9365733 -0.166282E-06  0.151E-03    5.85      38.1  T
   9     -9.9365733 -0.606496E-09  0.323E-04    5.85     179.0  T
  10     -9.9365733 -0.512905E-10  0.194E-04    5.85     297.3  T
     SCC iter.                  ...        0 min,  0.001 sec
     gradient                   ...        0 min,  0.000 sec
 * total energy  :    -9.8408584 Eh     change       -0.1330353E+00 Eh
   gradient norm :     0.1478539 Eh/α   predicted    -0.2327277E+00 (  74.94%)
   displ. norm   :     0.0492126 α      lambda       -0.5320049E-02
   maximum displ.:     0.0462720 α      in ANC's #3, #1, #2, ...

........................................................................
.............................. CYCLE    5 ..............................
........................................................................
   1     -9.9346708 -0.993467E+01  0.125E+00    5.88       0.0  T
   2     -9.9348961 -0.225344E-03  0.133E+00    5.81       1.0  T
   3     -9.9388985 -0.400240E-02  0.222E-01    5.84       1.0  T
   4     -9.9389088 -0.102951E-04  0.483E-02    5.83       1.2  T
   5     -9.9389109 -0.205284E-05  0.267E-02    5.84       2.2  T
   6     -9.9389112 -0.320086E-06  0.925E-03    5.84       6.2  T
   7     -9.9389113 -0.789212E-07  0.166E-03    5.84      34.9  T
   8     -9.9389113 -0.411434E-09  0.158E-04    5.84     366.1  T
   9     -9.9389113 -0.676081E-11  0.835E-05    5.84     691.2  T
     SCC iter.                  ...        0 min,  0.000 sec
     gradient                   ...        0 min,  0.000 sec
 * total energy  :    -9.8432990 Eh     change       -0.2440507E-02 Eh
   gradient norm :     0.0649101 Eh/α   predicted    -0.2666465E-02 (   9.26%)
   displ. norm   :     0.1011956 α      lambda       -0.3934051E-02
   maximum displ.:     0.0952417 α      in ANC's #1, #2, #3, ...

........................................................................
.............................. CYCLE    6 ..............................
........................................................................
   1     -9.9593747 -0.995937E+01  0.850E-01    6.32       0.0  T
   2     -9.9596863 -0.311651E-03  0.417E-01    6.27       1.0  T
   3     -9.9597186 -0.322760E-04  0.271E-01    6.25       1.0  T
   4     -9.9597943 -0.756852E-04  0.883E-02    6.26       1.0  T
   5     -9.9598021 -0.777577E-05  0.154E-02    6.26       3.7  T
   6     -9.9598021 -0.429162E-07  0.244E-03    6.26      23.6  T
   7     -9.9598021 -0.153944E-08  0.848E-04    6.26      68.1  T
   8     -9.9598021 -0.130434E-09  0.160E-04    6.26     361.0  T
     SCC iter.                  ...        0 min,  0.000 sec
     gradient                   ...        0 min,  0.000 sec
 * total energy  :    -9.8444170 Eh     change       -0.1118052E-02 Eh
   gradient norm :     0.0236473 Eh/α   predicted    -0.1987170E-02 (  77.73%)
   displ. norm   :     0.0550919 α      lambda       -0.8327102E-03
   maximum displ.:     0.0389564 α      in ANC's #1, #2, #3, ...

........................................................................
.............................. CYCLE    7 ..............................
........................................................................
   1     -9.9562368 -0.995624E+01  0.383E-01    6.20       0.0  T
   2     -9.9562603 -0.234889E-04  0.219E-01    6.22       1.0  T
   3     -9.9562396  0.206217E-04  0.140E-01    6.21       1.0  T
   4     -9.9562768 -0.371775E-04  0.188E-02    6.22       3.1  T
   5     -9.9562769 -0.355600E-07  0.788E-03    6.22       7.3  T
   6     -9.9562769 -0.813497E-08  0.565E-04    6.22     102.1  T
   7     -9.9562769 -0.400266E-10  0.844E-05    6.22     683.8  T
     SCC iter.                  ...        0 min,  0.000 sec
     gradient                   ...        0 min,  0.000 sec
 * total energy  :    -9.8448993 Eh     change       -0.4822963E-03 Eh
   gradient norm :     0.0054144 Eh/α   predicted    -0.4176170E-03 ( -13.41%)
   displ. norm   :     0.0173642 α      lambda       -0.5984043E-04
   maximum displ.:     0.0144635 α      in ANC's #2, #1, #3, ...

........................................................................
.............................. CYCLE    8 ..............................
........................................................................
   1     -9.9567922 -0.995679E+01  0.118E-01    6.23       0.0  T
   2     -9.9567935 -0.128163E-05  0.643E-02    6.23       1.0  T
   3     -9.9567937 -0.183507E-06  0.121E-02    6.23       4.8  T
   4     -9.9567939 -0.230072E-06  0.535E-03    6.23      10.8  T
   5     -9.9567939 -0.204402E-07  0.179E-03    6.23      32.2  T
   6     -9.9567939 -0.358478E-09  0.169E-04    6.23     341.5  T
   7     -9.9567939 -0.362554E-11  0.198E-05    6.23    2921.3  T
     SCC iter.                  ...        0 min,  0.001 sec
     gradient                   ...        0 min,  0.000 sec
 * total energy  :    -9.8449327 Eh     change       -0.3344359E-04 Eh
   gradient norm :     0.0019561 Eh/α   predicted    -0.2992735E-04 ( -10.51%)
   displ. norm   :     0.0031610 α      lambda       -0.2494261E-05
   maximum displ.:     0.0031179 α      in ANC's #2, #3, #1, ...

........................................................................
.............................. CYCLE    9 ..............................
........................................................................
   1     -9.9574334 -0.995743E+01  0.256E-02    6.24       0.0  T
   2     -9.9574336 -0.262342E-06  0.123E-02    6.24       4.7  T
   3     -9.9574336  0.672738E-08  0.776E-03    6.24       7.4  T
   4     -9.9574337 -0.619971E-07  0.277E-03    6.24      20.8  T
   5     -9.9574337 -0.967660E-08  0.482E-04    6.24     119.8  T
   6     -9.9574337 -0.344951E-10  0.641E-05    6.24     900.0  T
     SCC iter.                  ...        0 min,  0.000 sec
     gradient                   ...        0 min,  0.000 sec
 * total energy  :    -9.8449338 Eh     change       -0.1054719E-05 Eh
   gradient norm :     0.0007933 Eh/α   predicted    -0.1248734E-05 (  18.39%)
   displ. norm   :     0.0010244 α      lambda       -0.3338084E-06
   maximum displ.:     0.0010002 α      in ANC's #2, #3, #1, ...

   *** GEOMETRY OPTIMIZATION CONVERGED AFTER 9 ITERATIONS ***

------------------------------------------------------------------------
 total energy gain   :        -0.2218339 Eh     -139.2029 kcal/mol
 total RMSD          :         0.7335414 a0        0.3882 Å
 total power (kW/mol):       -64.7138830 (step)********** (real)
------------------------------------------------------------------------

 ANCopt (total)                0 d,  0 h,  0 min,  0.013 sec
 optimizer setup                ...        0 min,  0.000 sec (  0.399%)
 model hessian                  ...        0 min,  0.000 sec (  0.240%)
 ANC generation                 ...        0 min,  0.000 sec (  0.209%)
 coordinate transformation      ...        0 min,  0.000 sec (  0.120%)
 single point calculation       ...        0 min,  0.013 sec ( 94.123%)
 optimization log               ...        0 min,  0.000 sec (  1.462%)
 hessian update                 ...        0 min,  0.000 sec (  0.120%)
 rational function              ...        0 min,  0.000 sec (  1.135%)

================
 final structure:
================
3
 xtb: 6.2.2 (9d81278992624c895f80dd42a50cac0aa55982e2)
N         0.01495955188899   -0.00016777513163    0.00000000000000
N         1.12031305356837    0.01550167056466    0.00000000000000
O        -1.13527360545735   -0.01533389543303    0.00000000000000

 Bond Distances (Angstroems)
 ---------------------------
N1-N2=1.1055         N1-O3=1.1503         N2-N1=1.1055         O3-N1=1.1503         
 N  N  Rav=1.1055 sigma=0.0000  Rmin=1.1055  Rmax=1.1055     1
 O  N  Rav=1.1503 sigma=0.0000  Rmin=1.1503  Rmax=1.1503     1

 selected bond angles (degree)
 --------------------
O3-N1-N2=179.94                

 selected dihedral angles (degree)
 ---------------------------------

           -------------------------------------------------
          |                Final Singlepoint                |
           -------------------------------------------------

          ...................................................
          :                      SETUP                      :
          :.................................................:
          :  # basis functions                  12          :
          :  # atomic orbitals                  12          :
          :  # shells                            6          :
          :  # electrons                        16          :
          :  max. iterations                   250          :
          :  Hamiltonian                  GFN2-xTB          :
          :  restarted?                      false          :
          :  GBSA solvation                  false          :
          :  PC potential                    false          :
          :  electronic temp.          300.0000000     K    :
          :  accuracy                    1.0000000          :
          :  -> integral cutoff          0.2500000E+02      :
          :  -> integral neglect         0.1000000E-07      :
          :  -> SCF convergence          0.1000000E-05 Eh   :
          :  -> wf. convergence          0.1000000E-03 e    :
          :  Broyden damping             0.4000000          :
          ...................................................

 iter      E             dE          RMSdq      gap      omega  full diag
   1     -9.9574337 -0.995743E+01  0.113E-05    6.24       0.0  T
   2     -9.9574337 -0.177636E-13  0.822E-06    6.24    7021.2  T
   3     -9.9574337  0.195399E-13  0.479E-06    6.24   12045.7  T

   *** convergence criteria satisfied after 3 iterations ***

         #    Occupation            Energy/Eh            Energy/eV
      -------------------------------------------------------------
         1        2.0000           -0.8103359             -22.0504
         2        2.0000           -0.7465317             -20.3142
         3        2.0000           -0.6664876             -18.1361
         4        2.0000           -0.6664876             -18.1361
         5        2.0000           -0.6400757             -17.4173
         6        2.0000           -0.5138089             -13.9815
         7        2.0000           -0.4901112             -13.3366
         8        2.0000           -0.4901111             -13.3366 (HOMO)
         9                         -0.2606979              -7.0940 (LUMO)
        10                         -0.2606978              -7.0939
        11                          0.1604643               4.3665
        12                          1.1561267              31.4598
      -------------------------------------------------------------
                  HL-Gap            0.2294132 Eh            6.2427 eV
             Fermi-level           -0.3754045 Eh          -10.2153 eV

 SCC (total)                   0 d,  0 h,  0 min,  0.001 sec
 SCC setup                      ...        0 min,  0.000 sec (  5.270%)
 Dispersion                     ...        0 min,  0.000 sec (  0.274%)
 integral evaluation            ...        0 min,  0.000 sec ( 42.026%)
 zeroth order Hamiltonian       ...        0 min,  0.000 sec (  0.502%)
 iterations                     ...        0 min,  0.000 sec ( 12.708%)
 molecular gradient             ...        0 min,  0.000 sec ( 35.501%)
 printout                       ...        0 min,  0.000 sec (  3.057%)

         :::::::::::::::::::::::::::::::::::::::::::::::::::::
         ::                     SUMMARY                     ::
         :::::::::::::::::::::::::::::::::::::::::::::::::::::
         :: total energy              -9.844933799146 Eh    ::
         :: gradient norm              0.000810983825 Eh/a0 ::
         :: HOMO-LUMO gap              6.242651134466 eV    ::
         ::.................................................::
         :: SCC energy                -9.957433706162 Eh    ::
         :: -> isotropic ES            0.020650848490 Eh    ::
         :: -> anisotropic ES          0.006650016523 Eh    ::
         :: -> anisotropic XC          0.012869100107 Eh    ::
         :: -> dispersion             -0.000714753599 Eh    ::
         :: repulsion energy           0.112499908743 Eh    ::
         :: add. restraining           0.000000000000 Eh    ::
         :::::::::::::::::::::::::::::::::::::::::::::::::::::

           ------------------------------------------------- 
          |                Numerical Hessian                |
           ------------------------------------------------- 
step length          :   0.00500
SCC accuracy         :   0.30000
Hessian scale factor :   1.00000
frozen atoms in %    :   0.00000    0
RMS gradient         :   0.00081
estimated CPU  time      0.00 min
estimated wall time      0.00 min

writing file <hessian>.

 vibrational frequencies (cm-1)
eigval :        0.00     0.00     0.00     0.00     0.00   551.82
eigval :      551.99  1442.94  2652.12
           -------------------------------------------------
          |                Property Printout                |
           -------------------------------------------------

    * Orbital Energies and Occupations

         #    Occupation            Energy/Eh            Energy/eV
      -------------------------------------------------------------
         1        2.0000           -0.8103358             -22.0504
         2        2.0000           -0.7465317             -20.3142
         3        2.0000           -0.6664876             -18.1360
         4        2.0000           -0.6664876             -18.1360
         5        2.0000           -0.6400757             -17.4173
         6        2.0000           -0.5138089             -13.9815
         7        2.0000           -0.4901112             -13.3366
         8        2.0000           -0.4901111             -13.3366 (HOMO)
         9                         -0.2606979              -7.0940 (LUMO)
        10                         -0.2606978              -7.0939
        11                          0.1604643               4.3665
        12                          1.1561267              31.4598
      -------------------------------------------------------------
                  HL-Gap            0.2294132 Eh            6.2427 eV
             Fermi-level           -0.3754045 Eh          -10.2153 eV

     #   Z        covCN         q      C6AA      α(0)
     1   7 N      1.904     0.493    14.553     5.656
     2   7 N      0.983    -0.222    25.430     7.254
     3   8 O      0.926    -0.271    19.245     5.883

 Mol. C6AA /au·bohr⁶  :        175.161940
 Mol. C8AA /au·bohr⁸  :       3753.577084
 Mol. α(0) /au        :         18.792558


Wiberg/Mayer (AO) data.
largest (>0.10) Wiberg bond orders for each atom
          total WBO             WBO to atom ...
     1  N   3.889        N    2 2.308    O    3 1.581
     2  N   2.959        N    1 2.308    O    3 0.651
     3  O   2.232        N    1 1.581    N    2 0.651

MOs/occ written to file <molden.input>


molecular dipole:
                 x           y           z       tot (Debye)
 q only:        0.127       0.001      -0.000
   full:       -0.078      -0.002       0.000       0.199
molecular quadrupole (traceless):
                xx          xy          yy          xz          yz          zz
 q only:       -2.242      -0.046       1.120       0.000       0.000       1.121
  q+dip:       -3.794      -0.077       1.896       0.000       0.000       1.897
   full:       -4.684      -0.096       2.341       0.000       0.000       2.342

           -------------------------------------------------
          |                Geometry Summary                 |
           -------------------------------------------------

      molecular mass/u    :       44.0128113
   center of mass at/Å    :       -0.0514004      -0.0006940       0.0000002
  moments of inertia/u·Å² :        0.2970252E-05   0.3809456E+02   0.3809456E+02
rotational constants/cm⁻¹ :        0.5675489E+07   0.4425207E+00   0.4425207E+00

 * 2 selected distances

     #   Z        #   Z                                     value/Å
     1   7 N      2   7 N                                 1.1054646 (min)
     1   7 N      3   8 O                                 1.1503331 (max)

 * 2 distinct bonds (by element types)

   Z      Z             #   av. dist./Å        max./Å        min./Å
   7 N    7 N           1     1.1054646     1.1054646     1.1054646
   7 N    8 O           1     1.1503331     1.1503331     1.1503331

           -------------------------------------------------
          |               Frequency Printout                |
           -------------------------------------------------
 vibrational frequencies (cm-1)
eigval :        0.00     0.00     0.00     0.00     0.00   551.82
eigval :      551.99  1442.94  2652.12
 reduced masses (amu)
   1: 14.59   2: 15.53   3: 14.73   4: 15.13   5: 14.19   6: 14.29   7: 14.29   8: 15.13
   9: 14.15
 IR intensities (amu)
   1:  0.02   2:  0.01   3:  0.07   4:  0.01   5:  0.02   6:  0.74   7:  0.74   8:  1.09
   9:  3.25
 Raman intensities (amu)
Molecule has the following symmetry elements: (Cinf) (sigma) 
It seems to be the Cinfv point group
   1:  0.00   2:  0.00   3:  0.00   4:  0.00   5:  0.00   6:  0.00   7:  0.00   8:  0.00
   9:  0.00
 output can be read by thermo (or use thermo option).
 writing <g98.out> molden fake output.
 recommended (thermochemical) frequency scaling factor: 1.0
           -------------------------------------------------
          |             Thermodynamic Functions             |
           -------------------------------------------------

cin symmetry found (for desy threshold:  0.10E+00) used in thermo

          ...................................................
          :                      SETUP                      :
          :.................................................:
          :  # frequencies                           4      :
          :  # imaginary freq.                       0      :
          :  linear?                              true      :
          :  only rotor calc.                    false      :
          :  symmetry                              cin      :
          :  rotational number                       1      :
          :  scaling factor                  1.0000000      :
          :  rotor cutoff                   50.0000000 cm⁻¹ :
          :  imag. cutoff                  -20.0000000 cm⁻¹ :
          :.................................................:

    mode    ω/cm⁻¹     T·S(HO)/kcal·mol⁻¹    T·S(FR)/kcal·mol⁻¹   T·S(vib)
   ------------------------------------------------------------------------
   ------------------------------------------------------------------------

   temp. (K)  partition function   enthalpy   heat capacity  entropy
                                   cal/mol     cal/K/mol   cal/K/mol   J/K/mol
 298.15  VIB   1.16                  240.444      2.363      1.096
         ROT   468.                  592.502      1.987     14.207
         INT   542.                  832.946      4.351     15.303
         TR   0.283E+27             1481.254      4.968     37.255
         TOT                        2314.1996     9.3187    52.5575   219.9006

   temp. (K)  partition function   enthalpy   heat capacity  entropy
                                   cal/mol     cal/K/mol   cal/K/mol   J/K/mol
 120.00  VIB   1.00                    4.226      0.233      0.041
         ROT   188.                  238.471      1.987     12.398
         INT   189.                  242.697      2.221     12.439
         TR   0.721E+26              596.178      4.968     32.735
         TOT                         838.8749     7.1888    45.1745   189.0100

   temp. (K)  partition function   enthalpy   heat capacity  entropy
                                   cal/mol     cal/K/mol   cal/K/mol   J/K/mol
 100.00  VIB   1.00                    1.124      0.089      0.013
         ROT   157.                  198.726      1.987     12.036
         INT   157.                  199.850      2.077     12.049
         TR   0.549E+26              496.815      4.968     31.830
         TOT                         696.6648     7.0447    43.8789   183.5893

   temp. (K)  partition function   enthalpy   heat capacity  entropy
                                   cal/mol     cal/K/mol   cal/K/mol   J/K/mol
  80.00  VIB   1.00                    0.154      0.019      0.002
         ROT   126.                  158.981      1.987     11.593
         INT   126.                  159.135      2.006     11.595
         TR   0.393E+26              397.452      4.968     30.722
         TOT                         556.5871     6.9746    42.3168   177.0536

   temp. (K)  partition function   enthalpy   heat capacity  entropy
                                   cal/mol     cal/K/mol   cal/K/mol   J/K/mol
  60.00  VIB   1.00                    0.006      0.001      0.000
         ROT   94.2                  119.236      1.987     11.021
         INT   94.2                  119.241      1.989     11.021
         TR   0.255E+26              298.089      4.968     29.293
         TOT                         417.3302     6.9567    40.3145   168.6759

   temp. (K)  partition function   enthalpy   heat capacity  entropy
                                   cal/mol     cal/K/mol   cal/K/mol   J/K/mol
  40.00  VIB   1.00                    0.000      0.000     -0.000
         ROT   62.8                   79.490      1.987     10.215
         INT   62.8                   79.490      1.987     10.215
         TR   0.139E+26              198.726      4.968     27.280
         TOT                         278.2164     6.9554    37.4952   156.8798

   temp. (K)  partition function   enthalpy   heat capacity  entropy
                                   cal/mol     cal/K/mol   cal/K/mol   J/K/mol
  20.00  VIB   1.00                    0.000      0.000     -0.000
         ROT   31.4                   39.745      1.987      8.838
         INT   31.4                   39.745      1.987      8.838
         TR   0.491E+25               99.363      4.968     23.838
         TOT                         139.1082     6.9554    32.6756   136.7148

   temp. (K)  partition function   enthalpy   heat capacity  entropy
                                   cal/mol     cal/K/mol   cal/K/mol   J/K/mol
  10.00  VIB   1.00                    0.000      0.000     -0.000
         ROT   15.7                   19.873      1.987      7.460
         INT   15.7                   19.873      1.987      7.460
         TR   0.174E+25               49.681      4.968     20.396
         TOT                          69.5541     6.9554    27.8561   116.5499

       T/K    H(0)-H(T)+PV         H(T)/Eh          T*S/Eh         G(T)/Eh
   ------------------------------------------------------------------------
    298.15    0.368791E-02    0.155318E-01    0.249718E-01   -0.943996E-02
    120.00    0.133683E-02    0.131807E-01    0.863881E-02    0.454191E-02
    100.00    0.111021E-02    0.129541E-01    0.699255E-02    0.596155E-02
     80.00    0.886978E-03    0.127309E-01    0.539489E-02    0.733597E-02
     60.00    0.665058E-03    0.125089E-01    0.385472E-02    0.865423E-02
     40.00    0.443366E-03    0.122873E-01    0.239009E-02    0.989716E-02
     20.00    0.221683E-03    0.120656E-01    0.104144E-02    0.110241E-01
     10.00    0.110842E-03    0.119547E-01    0.443915E-03    0.115108E-01 (used)
   ------------------------------------------------------------------------

         :::::::::::::::::::::::::::::::::::::::::::::::::::::
         ::                  THERMODYNAMIC                  ::
         :::::::::::::::::::::::::::::::::::::::::::::::::::::
         :: total free energy          -9.833422984419 Eh   ::
         ::.................................................::
         :: total energy               -9.844933799138 Eh   ::
         :: zero point energy           0.011843888337 Eh   ::
         :: G(RRHO) w/o ZPVE           -0.000333073618 Eh   ::
         :: G(RRHO) contrib.            0.011510814720 Eh   ::
         :::::::::::::::::::::::::::::::::::::::::::::::::::::

optimized geometry written to: xtbopt.xyz


           -------------------------------------------------
          | TOTAL ENERGY               -9.844933799138 Eh   |
          | TOTAL ENTHALPY             -9.832979069287 Eh   |
          | TOTAL FREE ENERGY          -9.833422984419 Eh   |
          | GRADIENT NORM               0.000811067022 Eh/α |
          | HOMO-LUMO GAP               6.242650989292 eV   |
           -------------------------------------------------

------------------------------------------------------------------------
 * finished run on 2020/05/12 at 11:43:54.622     
------------------------------------------------------------------------
 total:
 * wall-time:     0 d,  0 h,  0 min,  0.058 sec
 *  cpu-time:     0 d,  0 h,  0 min,  0.057 sec
 * ratio c/w:     0.980 speedup
 SCF:
 * wall-time:     0 d,  0 h,  0 min,  0.002 sec
 *  cpu-time:     0 d,  0 h,  0 min,  0.002 sec
 * ratio c/w:     1.000 speedup
 ANC optimizer:
 * wall-time:     0 d,  0 h,  0 min,  0.015 sec
 *  cpu-time:     0 d,  0 h,  0 min,  0.015 sec
 * ratio c/w:     0.999 speedup
 numerical hessian:
 * wall-time:     0 d,  0 h,  0 min,  0.023 sec
 *  cpu-time:     0 d,  0 h,  0 min,  0.023 sec
 * ratio c/w:     0.995 speedup

