$hessian                                                                        
        0.7348958298  -0.4226771088  -0.0037356177  -0.6278381599   0.3544448465
        0.0031444324  -0.0039379651   0.0035203482  -0.0031593958  -0.0992029874
        0.0612701669   0.0005494940  -0.0039167174   0.0034417472   0.0032010870
       -0.4226771088   0.2628599482   0.0022286274   0.3544618983  -0.2319560503
       -0.0018546626   0.0034408839  -0.0000132236   0.0018578268   0.0613343455
       -0.0309253758  -0.0004033811   0.0034399811   0.0000347015  -0.0018284106
       -0.0037356177   0.0022286274   0.0115114344   0.0031329518  -0.0018438253
       -0.0230953100   0.0003453454  -0.0001803376  -0.0004093327   0.0005339611
       -0.0004023426   0.0124275068  -0.0002766406   0.0001978781  -0.0004342985
       -0.6278381599   0.3544618983   0.0031329518   0.9593123419  -0.5392529032
       -0.0047696654  -0.0120732344   0.0056084860   0.0187190266  -0.3073062349
        0.1731546935   0.0015262474  -0.0120947127   0.0060278254  -0.0186085604
        0.3544448465  -0.2319560503  -0.0018438253  -0.5392529032   0.3576154483
        0.0026096017   0.0059650936  -0.0055782559  -0.0110157149   0.1730579863
       -0.1143601158  -0.0006103847   0.0057849769  -0.0057210263   0.0108603232
        0.0031444324  -0.0018546626  -0.0230953100  -0.0047696654   0.0026096017
        0.0576217749  -0.0089106458   0.0052022939   0.0016312987   0.0015701367
       -0.0006300371  -0.0378650732   0.0089657421  -0.0053271959   0.0017073096
       -0.0039379651   0.0034408839   0.0003453454  -0.0120732344   0.0059650936
       -0.0089106458   0.1179669244  -0.0697204062   0.0758814323  -0.1421769394
        0.0830510184  -0.0261450429   0.0402212145  -0.0227365896  -0.0411710890
        0.0035203482  -0.0000132236  -0.0001803376   0.0056084860  -0.0055782559
        0.0052022939  -0.0697204062   0.0423668154  -0.0522775237   0.0842482451
       -0.0511471882   0.0155827438  -0.0236566731   0.0143718522   0.0316728236
       -0.0031593958   0.0018578268  -0.0004093327   0.0187190266  -0.0110157149
        0.0016312987   0.0758814323  -0.0522775237   0.6968444447  -0.1342312454
        0.0791279959  -0.0211237934   0.0427901823  -0.0176925843  -0.6769426172
       -0.0992029874   0.0613343455   0.0005339611  -0.3073062349   0.1730579863
        0.0015701367  -0.1421769394   0.0842482451  -0.1342312454   0.6915108264
       -0.4002938501  -0.0035142693  -0.1428246646   0.0816532733   0.1356414170
        0.0612701669  -0.0309253758  -0.0004023426   0.1731546935  -0.1143601158
       -0.0006300371   0.0830510184  -0.0511471882   0.0791279959  -0.4002938501
        0.2456995808   0.0013994527   0.0828179713  -0.0492669010  -0.0794950689
        0.0005494940  -0.0004033811   0.0124275068   0.0015262474  -0.0006103847
       -0.0378650732  -0.0261450429   0.0155827438  -0.0211237934  -0.0035142693
        0.0013994527   0.0692704336   0.0275835708  -0.0159684307  -0.0227090738
       -0.0039167174   0.0034399811  -0.0002766406  -0.0120947127   0.0057849769
        0.0089657421   0.0402212145  -0.0236566731   0.0427901823  -0.1428246646
        0.0828179713   0.0275835708   0.1186148802  -0.0683862563  -0.0790628546
        0.0034417472   0.0000347015   0.0001978781   0.0060278254  -0.0057210263
       -0.0053271959  -0.0227365896   0.0143718522  -0.0176925843   0.0816532733
       -0.0492669010  -0.0159684307  -0.0683862563   0.0405813736   0.0387903327
        0.0032010870  -0.0018284106  -0.0004342985  -0.0186085604   0.0108603232
        0.0017073096  -0.0411710890   0.0316728236  -0.6769426172   0.1356414170
       -0.0794950689  -0.0227090738  -0.0790628546   0.0387903327   0.6983786799
