5
 energy: -6.301697988378 gnorm: 0.000219930955 xtb: 6.2.2 (9d81278992624c895f80dd42a50cac0aa55982e2)
C         1.50038235930482   -0.04868911614433   -0.14000913409060
N        -0.12960328827990    0.00420618554195    0.01209430397993
H        -0.37628434496387   -0.19736507383836    0.98063891243059
H        -0.45395138942187    0.93580626074794   -0.24574408679202
H        -0.54054433664267   -0.69395825630371   -0.60698099552440
