[Molden Format]
[Title]
[Atoms] AU
C      1     6  0.28353114782461E+01 -0.92009086226283E-01 -0.26457889382964E+00
N      2     7 -0.24491469697677E+00  0.79485379661846E-02  0.22854920069567E-01
H      3     1 -0.71107429099252E+00 -0.37296590151731E+00  0.18531387997107E+01
H      4     1 -0.85784372031004E+00  0.17684173744502E+01 -0.46438897769724E+00
H      5     1 -0.10214806596993E+01 -0.13113909246662E+01 -0.11470277379727E+01
[GTO]
           1 0
 s           4   1.0000000000000000     
   51.049363095579913      -0.16312063210127389     
   8.7911227406887544      -0.19911024581000730     
  0.70640422258929825       0.31882047753655751     
  0.26922813413411617       0.12706504184240380     
 p           4   1.0000000000000000     
   5.8263656140800002       0.73716451545209605     
   1.5106896018720002       0.68216371614850257     
  0.53256483288000001       0.35783053929253711     
  0.21202323690600003        5.3983030275847881E-002

           2 0
 s           4   1.0000000000000000     
   63.594024466941008      -0.19234388414721629     
   10.951417231523665      -0.23478107924953728     
  0.87999310257376984       0.37593753901700888     
  0.33538715296521110       0.14982889271862770     
 p           4   1.0000000000000000     
   7.2965040481495080       0.97658666315667420     
   1.8918745450712575       0.90372226730345739     
  0.66694432110824120       0.47404958461536373     
  0.26552202674130870        7.1516067715011844E-002

           3 0
 s           3   1.0000000000000000     
   3.3702276975336001       0.27359110588908298     
  0.61389118221497996       0.26460540653860526     
  0.16614291148415999        8.2465947534082318E-002

           4 0
 s           3   1.0000000000000000     
   3.3702276975336001       0.27359110588908298     
  0.61389118221497996       0.26460540653860526     
  0.16614291148415999        8.2465947534082318E-002

           5 0
 s           3   1.0000000000000000     
   3.3702276975336001       0.27359110588908298     
  0.61389118221497996       0.26460540653860526     
  0.16614291148415999        8.2465947534082318E-002

[MO]
Sym=     1a
Ene=  -0.66050760173359468     
Spin= Alpha
Occup=     2.00000000
           1  -7.9372031949124677E-002
           2   3.9587541332932893E-002
           3  -1.2846416438943953E-003
           4  -3.6941074465157995E-003
           5 -0.61158474845055033     
           6  0.11497364672293595     
           7  -3.7306695426437019E-003
           8  -1.0728387043375464E-002
           9 -0.22297190228390246     
          10 -0.22297192851759245     
          11 -0.22297211997524052     
Sym=     2a
Ene=  -0.57192353285529363     
Spin= Alpha
Occup=     2.00000000
           1  -1.5175621128021221E-006
           2   2.7595306435841782E-003
           3  -3.5468162589499065E-002
           4   4.1902237854942084E-002
           5  -2.1668315281222149E-007
           6   3.3358198599959199E-002
           7 -0.42883290781811473     
           8  0.50662589500661659     
           9  0.37272427747113779     
          10 -0.35441041134961437     
          11  -1.8313216370765318E-002
Sym=     3a
Ene=  -0.57192352424175308     
Spin= Alpha
Occup=     2.00000000
           1  -7.2612583176624693E-006
           2   4.6487090858581374E-003
           3   4.1955478785806383E-002
           4   3.5207074717611885E-002
           5  -9.7787811605885546E-007
           6   5.6175588296376200E-002
           7  0.50726937985666454     
           8  0.42567876567323892     
           9  0.19404683177622020     
          10  0.22576661492201119     
          11 -0.41981028100298518     
Sym=     4a
Ene=  -0.56134015033643814     
Spin= Alpha
Occup=     2.00000000
           1  0.59976985457347620     
           2 -0.14067160284880975     
           3   4.5654995620605142E-003
           4   1.3127538732164538E-002
           5  0.13737857746192028     
           6  0.60556548013845335     
           7  -1.9645377474671055E-002
           8  -5.6501074322507457E-002
           9  -8.2502723924546731E-002
          10  -8.2504167471662990E-002
          11  -8.2511082321009635E-002
Sym=     5a
Ene=  -0.40638229650798802     
Spin= Alpha
Occup=     2.00000000
           1  0.76936803054381453     
           2  0.38980099069909496     
           3  -1.2649783790073730E-002
           4  -3.6374852701841626E-002
           5 -0.27772826261129119     
           6 -0.47512252958168616     
           7   1.5417648453871977E-002
           8   4.4335500683860170E-002
           9   6.4657648987846816E-002
          10   6.4657520763082010E-002
          11   6.4656906943687545E-002
Sym=     6a
Ene=  -0.21777400235245029     
Spin= Alpha
Occup=     1.00000272
           1   1.3800527691012984E-008
           2   5.0399801556436523E-002
           3 -0.64234384468704364     
           4  0.76347838550041536     
           5   1.1424688767851407E-007
           6  -1.6055782850862425E-003
           7   2.0462091714555805E-002
           8  -2.4320829841087716E-002
           9 -0.11589011830094305     
          10  0.10981481665707847     
          11   6.0751914241330566E-003
Sym=     7a
Ene=  -0.21777399200221056     
Spin= Alpha
Occup=     0.99999728
           1  -6.4206776244029804E-008
           2  -8.4307005365723539E-002
           3 -0.76445966745513427     
           4 -0.63760403579299607     
           5  -5.3918679209197000E-007
           6   2.6860494105141290E-003
           7   2.4352621909834025E-002
           8   2.0311455523632223E-002
           9   5.9894111923550215E-002
          10   7.0416631233466642E-002
          11 -0.13031022270477677     
Sym=     8a
Ene=   -6.7273613036941071E-002
Spin= Alpha
Occup=     0.00000000
           1  0.19325395046430824     
           2 -0.79193153999316301     
           3   2.5699932418672584E-002
           4   7.3900571747408980E-002
           5 -0.89471489794646408     
           6 -0.21668857833341124     
           7   7.0305459631184392E-003
           8   2.0218803636191867E-002
           9  0.32356261397722808     
          10  0.32356193206853634     
          11  0.32355865788702265     
Sym=     9a
Ene=    2.4914026813967424E-002
Spin= Alpha
Occup=     0.00000000
           1  0.27488949765541237     
           2 -0.57636886095105588     
           3   1.8703854377766782E-002
           4   5.3784180241982039E-002
           5  0.64765230900768656     
           6 -0.74353517401082903     
           7   2.4127468525503154E-002
           8   6.9381951379714674E-002
           9 -0.49863434807660650     
          10 -0.49863453598740892     
          11 -0.49863540147144947     
Sym=    10a
Ene=   0.15429547070805436     
Spin= Alpha
Occup=     0.00000000
           1  -2.1320851201809103E-007
           2   4.9153881594371255E-003
           3  -5.4793085513139682E-002
           4   7.1723624861236179E-002
           5   5.5942116291755765E-007
           6  -5.4174131958079290E-002
           7  0.60397039666868424     
           8 -0.79059259926757042     
           9  0.91015469582864572     
          10 -0.81641376862427717     
          11  -9.3741429246061339E-002
Sym=    11a
Ene=   0.15429578539739411     
Spin= Alpha
Occup=     0.00000000
           1   8.1234371470937178E-007
           2  -7.4065523664885282E-003
           3  -7.1831836057701243E-002
           4  -5.4368138992359705E-002
           5  -2.1294005281813859E-006
           6   8.1614740722383075E-002
           7  0.79179309671945852     
           8  0.59929497736735127     
           9 -0.41723457211074333     
          10 -0.57959924255823303     
          11  0.99683574003463016     
