$hessian                                                                        
        0.0380452949  -0.0022687522   0.0006768354  -0.0422165123   0.0029602692
       -0.0008768735   0.0013860132  -0.0007178420   0.0041190701   0.0014077221
        0.0034528634  -0.0014290004   0.0013774822  -0.0034265384  -0.0024900316
       -0.0022687522  -0.0018491882  -0.0000384525   0.0029506785   0.0098336465
        0.0000493260   0.0003269209  -0.0013795636   0.0001389487  -0.0036115948
       -0.0036292863   0.0009559265   0.0026027476  -0.0029756084  -0.0011057487
        0.0006768354  -0.0000384525  -0.0019675206  -0.0008763978   0.0000496384
        0.0099870367  -0.0034337321   0.0005460778  -0.0039497211   0.0014553583
        0.0009107063  -0.0017224066   0.0021779362  -0.0014679700  -0.0023473884
       -0.0422165123   0.0029506785  -0.0008763978   0.0959956372   0.0204432754
       -0.0060750456  -0.0155963294   0.0046098244  -0.0361506002  -0.0232624156
       -0.0544158163   0.0221951301  -0.0149203799   0.0264120380   0.0209069134
        0.0029602692   0.0098336465   0.0000496384   0.0204432754   0.4559444371
        0.0003487479   0.0041895470  -0.0278776523   0.0381772569  -0.0515829363
       -0.2457821911   0.0914205297   0.0239898448  -0.1921182402  -0.1299961730
       -0.0008768735   0.0000493260   0.0099870367  -0.0060750456   0.0003487479
        0.4569994998  -0.0331193166   0.0380146736  -0.2853768954   0.0210384049
        0.0914413851  -0.0598105930   0.0190328307  -0.1298541326  -0.1217990481
        0.0013860132   0.0003269209  -0.0034337321  -0.0155963294   0.0041895470
       -0.0331193166   0.0037897460  -0.0031511923   0.0332801311   0.0051999795
       -0.0013799960   0.0025861164   0.0052205906   0.0000147204   0.0006868012
       -0.0007178420  -0.0013795636   0.0005460778   0.0046098244  -0.0278776523
        0.0380146736  -0.0031511923   0.0360364483  -0.0415930809  -0.0000596171
       -0.0061538912   0.0203689239  -0.0006811731  -0.0006253412  -0.0173365944
        0.0041190701   0.0001389487  -0.0039497211  -0.0361506002   0.0381772569
       -0.2853768954   0.0332801311  -0.0415930809   0.3190306242  -0.0005060575
        0.0025710025  -0.0120741021  -0.0007425436   0.0007058728  -0.0176299055
        0.0014077221  -0.0036115948   0.0014553583  -0.0232624156  -0.0515829363
        0.0210384049   0.0051999795  -0.0000596171  -0.0005060575   0.0114719543
        0.0551872267  -0.0223864964   0.0051827597   0.0000669215   0.0003987906
        0.0034528634  -0.0036292863   0.0009107063  -0.0544158163  -0.2457821911
        0.0914413851  -0.0013799960  -0.0061538912   0.0025710025   0.0551872267
        0.2760722455  -0.1006389046  -0.0028442778  -0.0205068769   0.0057158107
       -0.0014290004   0.0009559265  -0.0017224066   0.0221951301   0.0914205297
       -0.0598105930   0.0025861164   0.0203689239  -0.0120741021  -0.0223864964
       -0.1006389046   0.0713161994  -0.0009657497  -0.0121064755   0.0022909023
        0.0013774822   0.0026027476   0.0021779362  -0.0149203799   0.0239898448
        0.0190328307   0.0052205906  -0.0006811731  -0.0007425436   0.0051827597
       -0.0028442778  -0.0009657497   0.0031395474  -0.0230671415  -0.0195024737
       -0.0034265384  -0.0029756084  -0.0014679700   0.0264120380  -0.1921182402
       -0.1298541326   0.0000147204  -0.0006253412   0.0007058728   0.0000669215
       -0.0205068769  -0.0121064755  -0.0230671415   0.2162260667   0.1427227054
       -0.0024900316  -0.0011057487  -0.0023473884   0.0209069134  -0.1299961730
       -0.1217990481   0.0006868012  -0.0173365944  -0.0176299055   0.0003987906
        0.0057158107   0.0022909023  -0.0195024737   0.1427227054   0.1394854397
