5
 energy: -7.088507113670 gnorm: 0.523824132821 xtb: 6.2.2 (9d81278992624c895f80dd42a50cac0aa55982e2)
O         1.33462700000000   -0.07553100000000    0.02246900000000
C        -0.05679500000000    0.00321400000000   -0.00095600000000
H        -0.45138400000000   -0.11720400000000    1.02888300000000
H        -0.36459100000000    0.99082000000000   -0.40178800000000
H        -0.46185800000000   -0.80129900000000   -0.64860800000000
5
 energy: -7.270253854207 gnorm: 0.259721830153 xtb: 6.2.2 (9d81278992624c895f80dd42a50cac0aa55982e2)
O         1.58588484290492   -0.08975027759600    0.02669936028191
C        -0.05586045235943    0.00316111775603   -0.00094024188844
H        -0.53749913417939   -0.12384098089520    1.11101053733873
H        -0.44370772817498    1.07352933254900   -0.43502330026964
H        -0.54881852819112   -0.86309919181382   -0.70174635546257
5
 energy: -7.321207057180 gnorm: 0.124437671312 xtb: 6.2.2 (9d81278992624c895f80dd42a50cac0aa55982e2)
O         1.74326853742915   -0.09865683519410    0.02934919363650
C        -0.10728493434653    0.00607131528243   -0.00180614550736
H        -0.57185755999842   -0.11650334405467    1.07127194932915
H        -0.48134528454746    1.03900382141919   -0.42070869380221
H        -0.58278175853674   -0.82991495745285   -0.67810630365609
5
 energy: -7.338463729965 gnorm: 0.060946604823 xtb: 6.2.2 (9d81278992624c895f80dd42a50cac0aa55982e2)
O         1.81050058121627   -0.10246159398809    0.03048108497823
C        -0.17356821571893    0.00982246699226   -0.00292220959354
H        -0.57141586286164   -0.11227524748470    1.04039655207328
H        -0.48348949613205    1.01021748220931   -0.40895623376687
H        -0.58202800650366   -0.80530310772878   -0.65899919369109
5
 energy: -7.344579494773 gnorm: 0.018552936299 xtb: 6.2.2 (9d81278992624c895f80dd42a50cac0aa55982e2)
O         1.84511192787316   -0.10442027341223    0.03106377506281
C        -0.24597558393540    0.01392015553573   -0.00414139616974
H        -0.55842013888764   -0.11078261122400    1.02443602492288
H        -0.47184846175018    0.99441407324766   -0.40258433077609
H        -0.56886874329994   -0.79313134414715   -0.64877407303987
5
 energy: -7.346209907123 gnorm: 0.010512615764 xtb: 6.2.2 (9d81278992624c895f80dd42a50cac0aa55982e2)
O         1.84526687593084   -0.10442893134981    0.03106641543343
C        -0.29672599138209    0.01679224473161   -0.00499585365200
H        -0.54182267806940   -0.11322411996158    1.03562263983934
H        -0.45433758025139    1.00363268127000   -0.40645303001306
H        -0.55238162622796   -0.80277187469022   -0.65524017160771
5
 energy: -7.347341773977 gnorm: 0.010178378897 xtb: 6.2.2 (9d81278992624c895f80dd42a50cac0aa55982e2)
O         1.83677514816939   -0.10394816409078    0.03092351522207
C        -0.36594923933824    0.02070978625677   -0.00616123535614
H        -0.51640336759031   -0.11738828356894    1.05584110173477
H        -0.42726096146033    1.02062500337285   -0.41355163124296
H        -0.52716257978052   -0.81999834196990   -0.66705175035774
5
 energy: -7.347684886179 gnorm: 0.010509126965 xtb: 6.2.2 (9d81278992624c895f80dd42a50cac0aa55982e2)
O         1.83255925730684   -0.10370941877081    0.03085260647508
C        -0.40609415567136    0.02298171394178   -0.00683704910980
H        -0.50172740935084   -0.11884198478369    1.06061252961756
H        -0.41220609745799    1.02400787275203   -0.41502526195036
H        -0.51253259482666   -0.82443818313931   -0.66960282503248
5
 energy: -7.348023520388 gnorm: 0.009114712418 xtb: 6.2.2 (9d81278992624c895f80dd42a50cac0aa55982e2)
O         1.82490706536090   -0.10327609955270    0.03072390705420
C        -0.45311715668089    0.02564290077510   -0.00762865589514
H        -0.48350103235635   -0.11986688490617    1.06087080909334
H        -0.39398371237618    1.02293103529576   -0.41470003580377
H        -0.49430616394749   -0.82543095161200   -0.66926602444863
5
 energy: -7.348284115244 gnorm: 0.008208705976 xtb: 6.2.2 (9d81278992624c895f80dd42a50cac0aa55982e2)
O         1.81118750468487   -0.10249932187355    0.03049312047470
C        -0.49501090981199    0.02801380057842   -0.00833393982432
H        -0.46489106556016   -0.12051603839781    1.05824941504952
H        -0.37561939183032    1.01914467280900   -0.41327072967648
H        -0.47566713748240   -0.82414311311606   -0.66713786602342
5
 energy: -7.348528377624 gnorm: 0.007514423694 xtb: 6.2.2 (9d81278992624c895f80dd42a50cac0aa55982e2)
O         1.79044743140258   -0.10132514464812    0.03014421340704
C        -0.52296332076708    0.02959569413513   -0.00880455887104
H        -0.44851823035811   -0.12064717857533    1.05274837158765
H        -0.35973018063827    1.01283819382645   -0.41079823242682
H        -0.45923669963913   -0.82046156473814   -0.66328979369683
5
 energy: -7.348899952356 gnorm: 0.008488313828 xtb: 6.2.2 (9d81278992624c895f80dd42a50cac0aa55982e2)
O         1.75006811552086   -0.09903920070892    0.02946487656466
C        -0.54690419246665    0.03095051029817   -0.00920770318548
H        -0.42692336997405   -0.12100309863241    1.04682090768492
H        -0.33866194002409    1.00575717439343   -0.40804226137167
H        -0.43757961305608   -0.81666538535028   -0.65903581969244
5
 energy: -7.349583553513 gnorm: 0.013155689621 xtb: 6.2.2 (9d81278992624c895f80dd42a50cac0aa55982e2)
O         1.65394807605916   -0.09359772821918    0.02784774433088
C        -0.55633343051853    0.03148391434629   -0.00936668126997
H        -0.39144323064472   -0.12134974806574    1.03535261784524
H        -0.30419174966471    0.99251239923617   -0.40285650472030
H        -0.40198066523120   -0.80904883729754   -0.65097717618584
5
 energy: -7.349422219528 gnorm: 0.011959442404 xtb: 6.2.2 (9d81278992624c895f80dd42a50cac0aa55982e2)
O         1.55322599403929   -0.08789551463474    0.02615326045169
C        -0.59271943184373    0.03354281359600   -0.00997948877446
H        -0.34582676219528   -0.12442133886293    1.03967468165292
H        -0.25827713677068    0.99324049597397   -0.40344054570156
H        -0.35640366322961   -0.81446645607231   -0.65240790762860
5
 energy: -7.350001084095 gnorm: 0.005533350062 xtb: 6.2.2 (9d81278992624c895f80dd42a50cac0aa55982e2)
O         1.58331813368496   -0.08959892679694    0.02665962515917
C        -0.53894227820206    0.03049937330215   -0.00907408512661
H        -0.37387781835234   -0.12336340636447    1.04304916204965
H        -0.28600617333445    0.99841048521656   -0.40537560659880
H        -0.38449286379611   -0.81594752535730   -0.65525909548341
5
 energy: -7.350030030086 gnorm: 0.002101064817 xtb: 6.2.2 (9d81278992624c895f80dd42a50cac0aa55982e2)
O         1.62900288672914   -0.09218477457400    0.02742847315741
C        -0.53911058276686    0.03050886522450   -0.00907687489226
H        -0.38918861653126   -0.12327353152840    1.04843057952865
H        -0.30084482844235    1.00452872646693   -0.40777804116575
H        -0.39985985898867   -0.81957928558903   -0.65900413662805
5
 energy: -7.350068661222 gnorm: 0.000313263632 xtb: 6.2.2 (9d81278992624c895f80dd42a50cac0aa55982e2)
O         1.60774311990900   -0.09098096821450    0.02707094465847
C        -0.53834307894225    0.03046529690323   -0.00906404004567
H        -0.38233501262878   -0.12353511019030    1.04762800744938
H        -0.29406792319272    1.00328588770073   -0.40731363627760
H        -0.39299810514524   -0.81923510619916   -0.65832127578459
5
 energy: -7.350068979729 gnorm: 0.000143879212 xtb: 6.2.2 (9d81278992624c895f80dd42a50cac0aa55982e2)
O         1.60426539491553   -0.09078341017180    0.02701282321361
C        -0.53801881758976    0.03044675122229   -0.00905868020835
H        -0.38128943548878   -0.12362765620471    1.04788698455065
H        -0.29300192131487    1.00345139819361   -0.40738791851513
H        -0.39195622052212   -0.81948708303939   -0.65845320904079
