[Molden Format]
[Title]
[Atoms] AU
O      1     8  0.30316212261961E+01 -0.17157155040753E+00  0.51036550054522E-01
C      2     6 -0.10167078792866E+01  0.57541309449987E-01 -0.17114974494424E-01
H      3     1 -0.72052685137713E+00 -0.23361516117938E+00  0.19802221495021E+01
H      4     1 -0.55368609246697E+00  0.18962497014974E+01 -0.76985289786537E+00
H      5     1 -0.74070229279128E+00 -0.15486042993506E+01 -0.12442908271903E+01
[GTO]
           1 0
 s           4   1.0000000000000000     
   69.137961906196551      -0.20478756370077797     
   11.906129132707308      -0.24997023136827334     
  0.95670827744340703       0.40025880240639616     
  0.36462520496073686       0.15952206667693555     
 p           4   1.0000000000000000     
   8.2124193257781641        1.1321556799186829     
   2.1293576997098116        1.0476840782254817     
  0.75066448202360914       0.54956508217158984     
  0.29885246543283073        8.2908486592766617E-002

           2 0
 s           4   1.0000000000000000     
   51.049363095579913      -0.16312063210127389     
   8.7911227406887544      -0.19911024581000730     
  0.70640422258929825       0.31882047753655751     
  0.26922813413411617       0.12706504184240380     
 p           4   1.0000000000000000     
   5.8263656140800002       0.73716451545209605     
   1.5106896018720002       0.68216371614850257     
  0.53256483288000001       0.35783053929253711     
  0.21202323690600003        5.3983030275847881E-002

           3 0
 s           3   1.0000000000000000     
   3.3702276975336001       0.27359110588908298     
  0.61389118221497996       0.26460540653860526     
  0.16614291148415999        8.2465947534082318E-002

           4 0
 s           3   1.0000000000000000     
   3.3702276975336001       0.27359110588908298     
  0.61389118221497996       0.26460540653860526     
  0.16614291148415999        8.2465947534082318E-002

           5 0
 s           3   1.0000000000000000     
   3.3702276975336001       0.27359110588908298     
  0.61389118221497996       0.26460540653860526     
  0.16614291148415999        8.2465947534082318E-002

[MO]
Sym=     1a
Ene=  -0.66670777826542460     
Spin= Alpha
Occup=     2.00000000
           1  0.98203555793702202     
           2  -5.1291794807802972E-002
           3   2.9037157939477650E-003
           4  -8.6295539359739490E-004
           5   6.6106176394520363E-002
           6   5.4072274001485662E-002
           7  -3.0600819932971339E-003
           8   9.1034102012726558E-004
           9   2.3846382512514447E-002
          10   2.3846516833396048E-002
          11   2.3845573714395097E-002
Sym=     2a
Ene=  -0.60437518934688361     
Spin= Alpha
Occup=     2.00000000
           1  0.17045676862391060     
           2  0.20893902092823291     
           3  -1.1825113747155277E-002
           4   3.5171886278765182E-003
           5 -0.57595024136238937     
           6  -3.2106919187616746E-002
           7   1.8171270630429016E-003
           8  -5.4047087017091257E-004
           9 -0.23754689238524612     
          10 -0.23754699023199194     
          11 -0.23754631377918994     
Sym=     3a
Ene=  -0.50712053965846260     
Spin= Alpha
Occup=     2.00000000
           1   8.8862554520445467E-007
           2  -2.2153539983640409E-002
           3 -0.29391195601933939     
           4  0.32824634334110642     
           5   1.6813863808385555E-006
           6  -2.5695387576772203E-002
           7 -0.34076721332707077     
           8  0.38057555569503232     
           9  0.35103087812020461     
          10 -0.38119692061393412     
          11   3.0167331339754522E-002
Sym=     4a
Ene=  -0.50712043380918048     
Spin= Alpha
Occup=     2.00000000
           1  -4.3161815708961440E-006
           2   1.3575690642593233E-002
           3  0.32804550134505500     
           4  0.29464844998532930     
           5  -8.1667211623968887E-006
           6   1.5789265143464390E-002
           7  0.38034629732628039     
           8  0.34162795175929850     
           9  0.23749977032286576     
          10  0.18524905666089958     
          11 -0.42275507552732949     
Sym=     5a
Ene=  -0.49229193188341580     
Spin= Alpha
Occup=     1.99998489
           1  -5.5483064503304542E-002
           2 -0.88522848906077367     
           3   5.0069911046635621E-002
           4  -1.4919301757630718E-002
           5 -0.21561697864414409     
           6  0.32262451694807898     
           7  -1.8272832345163654E-002
           8   5.4230220979355117E-003
           9  -5.9064273784462884E-002
          10  -5.9066597424428283E-002
          11  -5.9050285827297919E-002
Sym=     6a
Ene=  -0.47054288778802700     
Spin= Alpha
Occup=     1.00000756
           1  -8.5203901337383674E-007
           2   2.7948366672531998E-002
           3  0.67134573996003011     
           4  0.59567535075892586     
           5  -5.1869698839035459E-006
           6  -8.8090726186636475E-003
           7 -0.21155537603256927     
           8 -0.18771015305361322     
           9 -0.12172753631954650     
          10  -9.7006269060846126E-002
          11  0.21873089366569229     
Sym=     7a
Ene=  -0.47054267047158005     
Spin= Alpha
Occup=     1.00000756
           1  -1.6986318755362903E-007
           2   4.4931659379253884E-002
           3  0.59416844474806130     
           4 -0.67175554226458134     
           5  -1.0334639974694304E-006
           6  -1.4159583988226516E-002
           7 -0.18723872519139648     
           8  0.21168856196926789     
           9  0.18229256829071311     
          10 -0.19656592415075547     
          11   1.4272776950076395E-002
Sym=     8a
Ene=  -0.32951290832006458     
Spin= Alpha
Occup=     1.00000000
           1 -0.10840823437194858     
           2  0.42938745487800534     
           3  -2.4300640596654530E-002
           4   7.2286873348914021E-003
           5 -0.13505942190311379     
           6  0.92594275067148879     
           7  -5.2412201089516559E-002
           8   1.5582524680779940E-002
           9   8.2316750297815891E-002
          10   8.2317086061698699E-002
          11   8.2314726628733598E-002
Sym=     9a
Ene=   0.10962021663278169     
Spin= Alpha
Occup=     0.00000000
           1  -1.5631408240471240E-002
           2  -9.9634780451295594E-003
           3   5.6253628540525963E-004
           4  -1.6851068516913857E-004
           5  -1.1601452730822090     
           6 -0.26409126743871347     
           7   1.4945768315227171E-002
           8  -4.4460220873765192E-003
           9  0.61933521020401794     
          10  0.61933582701862933     
          11  0.61933158979226388     
Sym=    10a
Ene=   0.24236405175348155     
Spin= Alpha
Occup=     0.00000000
           1   1.3186621591662447E-007
           2   1.3201026716469087E-003
           3   1.7447956819359619E-002
           4  -1.9765724772608545E-002
           5  -8.6981791387234726E-007
           6   5.4795773688362949E-002
           7  0.72415232140047026     
           8 -0.82034850025090655     
           9  0.82937175081657744     
          10 -0.89328138222526421     
          11   6.3910858093379680E-002
Sym=    11a
Ene=   0.24236635685732336     
Spin= Alpha
Occup=     0.00000000
           1   6.6562144479595516E-007
           2   8.2289782218139952E-004
           3   1.9751960793289117E-002
           4   1.7490755950746978E-002
           5  -4.3401918434081993E-006
           6   3.4190253480205400E-002
           7  0.81984351164217140     
           8  0.72599031047377616     
           9 -0.55263365341734738     
          10 -0.44193740909514606     
          11  0.99457716171820998     
