 Entering Gaussian System
 *********************************************
 Gaussian 98:
 frequency output generated by the xtb code
 *********************************************
                         Standard orientation:
 --------------------------------------------------------------------
  Center     Atomic     Atomic              Coordinates (Angstroms)
  Number     Number      Type              X           Y           Z
 --------------------------------------------------------------------
    1          8             0        1.604265   -0.090792    0.027007
    2          6             0       -0.538019    0.030450   -0.009057
    3          1             0       -0.381286   -0.123624    1.047889
    4          1             0       -0.292998    1.003452   -0.407389
    5          1             0       -0.391963   -0.819486   -0.658450
 --------------------------------------------------------------------
     1 basis functions        1 primitive gaussians
     1 alpha electrons        1 beta electrons

 Harmonic frequencies (cm**-1), IR intensities (KM/Mole),
 Raman scattering activities (A**4/amu), Raman depolarization ratios,
 reduced masses (AMU), force constants (mDyne/A) and normal coordinates:
                      1                      2                      3
                        a                      a                      a 
 Frequencies --  -391.5714              -391.4703               340.1058
 Red. masses --     1.4408                 1.4408                11.0306
 Frc consts  --     0.0000                 0.0000                 0.0000
 IR Inten    --     0.0098                 0.0105                 0.0774
 Raman Activ --     0.0000                 0.0000                 0.0000
 Depolar     --     0.0000                 0.0000                 0.0000
 Atom AN      X      Y      Z        X      Y      Z        X      Y      Z
   1   8     0.00  -0.00  -0.15    -0.01  -0.15   0.00    -0.68   0.04  -0.01
   2   6    -0.00   0.00   0.08     0.00   0.08  -0.00     0.53  -0.03   0.01
   3   1    -0.78   0.04   0.12     0.12   0.08  -0.01     0.29  -0.01  -0.01
   4   1     0.28  -0.03   0.10    -0.73   0.17  -0.03     0.29  -0.03   0.01
   5   1     0.49  -0.00   0.11     0.62   0.08   0.03     0.29  -0.01   0.01
                      4                      5                      6
                        a                      a                      a 
 Frequencies --   644.1979              1133.6596              1133.7313
 Red. masses --     4.9434                 2.0239                 2.0239
 Frc consts  --     0.0000                 0.0000                 0.0000
 IR Inten    --     0.3328                 0.3645                 0.3642
 Raman Activ --     0.0000                 0.0000                 0.0000
 Depolar     --     0.0000                 0.0000                 0.0000
 Atom AN      X      Y      Z        X      Y      Z        X      Y      Z
   1   8    -0.15   0.01  -0.00    -0.00  -0.00   0.01    -0.00  -0.01  -0.00
   2   6     0.57  -0.03   0.01    -0.01  -0.11   0.28    -0.01  -0.28  -0.11
   3   1    -0.46   0.02   0.07    -0.05   0.18   0.06     0.05   0.75   0.09
   4   1    -0.45   0.10  -0.04     0.03  -0.24  -0.51     0.04   0.17   0.51
   5   1    -0.46  -0.04  -0.06     0.05   0.46  -0.58    -0.05   0.11  -0.20
                      7                      8                      9
                        a                      a                      a 
 Frequencies --  3014.9265              3050.8567              3050.8906
 Red. masses --     1.0570                 2.0583                 2.0583
 Frc consts  --     0.0000                 0.0000                 0.0000
 IR Inten    --     0.0947                 0.2651                 0.2648
 Raman Activ --     0.0000                 0.0000                 0.0000
 Depolar     --     0.0000                 0.0000                 0.0000
 Atom AN      X      Y      Z        X      Y      Z        X      Y      Z
   1   8    -0.01   0.00  -0.00    -0.00  -0.00  -0.00     0.00   0.00  -0.00
   2   6     0.07  -0.00   0.00    -0.02  -0.31  -0.02     0.01   0.02  -0.31
   3   1    -0.05   0.08  -0.57    -0.01  -0.04  -0.06     0.08  -0.11   0.76
   4   1    -0.10  -0.52   0.21     0.13   0.63  -0.28    -0.06  -0.32   0.09
   5   1    -0.05   0.46   0.35    -0.06   0.49   0.41    -0.04   0.37   0.23
