      -----------------------------------------------------------      
     |                   =====================                   |     
     |                           x T B                           |     
     |                   =====================                   |     
     |                         S. Grimme                         |     
     |          Mulliken Center for Theoretical Chemistry        |     
     |                    University of Bonn                     |     
      -----------------------------------------------------------      

   * xtb version 6.2.2 (9d81278992624c895f80dd42a50cac0aa55982e2) compiled by '@Darwin' on 04/03/2020

   xtb is free software: you can redistribute it and/or modify it under
   the terms of the GNU Lesser General Public License as published by
   the Free Software Foundation, either version 3 of the License, or
   (at your option) any later version.
   
   xtb is distributed in the hope that it will be useful,
   but WITHOUT ANY WARRANTY; without even the implied warranty of
   MERCHANTABILITY or FITNESS FOR A PARTICULAR PURPOSE.  See the
   GNU Lesser General Public License for more details.
   
   Cite this work as:
   * S. Grimme, C. Bannwarth, P. Shushkov, J. Chem. Theory Comput., 2017,
     13, 1989-2009. DOI: 10.1021/acs.jctc.7b00118
   * C. Bannwarth, S. Ehlert and S. Grimme., J. Chem. Theory Comput., 2019,
     15, 1652-1671. DOI: 10.1021/acs.jctc.8b01176
   * P. Pracht, E. Caldeweyher, S. Ehlert, S. Grimme, ChemRxiv, 2019, preprint.
     DOI: 10.26434/chemrxiv.8326202.v1
   
   for DFT-D4:
   * E. Caldeweyher, C. Bannwarth and S. Grimme, J. Chem. Phys., 2017,
     147, 034112. DOI: 10.1063/1.4993215
   * E. Caldeweyher, S. Ehlert, A. Hansen, H. Neugebauer, S. Spicher,
     C. Bannwarth and S. Grimme, J. Chem. Phys., 2019, 150, 154122.
     DOI: 10.1063/1.5090222
   
   for sTDA-xTB:
   * S. Grimme and C. Bannwarth, J. Chem. Phys., 2016, 145, 054103.
     DOI: 10.1063/1.4959605
   
   in the mass-spec context:
   * V. Asgeirsson, C. Bauer and S. Grimme, Chem. Sci., 2017, 8, 4879.
     DOI: 10.1039/c7sc00601b
   
   for metadynamics refer to:
   * S. Grimme, J. Chem. Theory Comput., 2019, 155, 2847-2862
     DOI: 10.1021/acs.jctc.9b00143
   
   with help from (in alphabetical order)
   C. Bannwarth, F. Bohle, G. Brandenburg, E. Caldeweyher, M. Checinski,
   S. Dohm, S. Ehlert, S. Ehrlich, F. März, H. Neugebauer, J. Pisarek,
   P. Pracht, P. Shushkov, and S. Spicher.
   
 * started run on 2020/05/12 at 11:44:44.746     

           -------------------------------------------------
          |                Calculation Setup                |
           -------------------------------------------------

          program call               : xtb --input H3C1O1_1_S_3.input H3C1O1_1_S_3.xyz --ohess --molden --namespace H3C1O1_1_S_3 output.out
          calculation namespace      : H3C1O1_1_S_3
          coordinate file            : H3C1O1_1_S_3.xyz
          number of atoms            :                     5
          number of electrons        :                    13
          charge                     :                     0
          spin                       :                   1.5
          first test random number   :      0.55472603634022

   ID    Z sym.   atoms
    1    8 O      1
    2    6 C      2
    3    1 H      3-5

           -------------------------------------------------
          |                 G F N 2 - x T B                 |
           -------------------------------------------------

        Reference                      10.1021/acs.jctc.8b01176
      * Hamiltonian:
        H0-scaling (s, p, d)           1.850000    2.230000    2.230000
        zeta-weighting                 0.500000
      * Dispersion:
        s8                             2.700000
        a1                             0.520000
        a2                             5.000000
        s9                             5.000000
      * Repulsion:
        kExp                           1.500000    1.000000
        rExp                           1.000000
      * Coulomb:
        alpha                          2.000000
        third order                    shell-resolved
        anisotropic                    true
        a3                             3.000000
        a5                             4.000000
        cn-shift                       1.200000
        cn-exp                         4.000000
        max-rad                        5.000000


          ...................................................
          :                      SETUP                      :
          :.................................................:
          :  # basis functions                  11          :
          :  # atomic orbitals                  11          :
          :  # shells                            7          :
          :  # electrons                        13          :
          :  max. iterations                   250          :
          :  Hamiltonian                  GFN2-xTB          :
          :  restarted?                      false          :
          :  GBSA solvation                  false          :
          :  PC potential                    false          :
          :  electronic temp.          300.0000000     K    :
          :  accuracy                    1.0000000          :
          :  -> integral cutoff          0.2500000E+02      :
          :  -> integral neglect         0.1000000E-07      :
          :  -> SCF convergence          0.1000000E-05 Eh   :
          :  -> wf. convergence          0.1000000E-03 e    :
          :  Broyden damping             0.4000000          :
          ...................................................

 iter      E             dE          RMSdq      gap      omega  full diag
   1     -7.1047519 -0.710475E+01  0.420E+00    0.20       0.0  T
   2     -7.0594805  0.452715E-01  0.461E+00    0.52       1.0  T
   3     -7.1380095 -0.785291E-01  0.139E+00    0.09       1.0  T
   4     -7.1378589  0.150612E-03  0.123E+00    0.05       1.0  T
   5     -7.1385354 -0.676472E-03  0.101E+00    0.02       1.0  T
   6     -7.1380638  0.471567E-03  0.113E+00    0.03       1.0  T
   7     -7.1388872 -0.823361E-03  0.903E-01    0.02       1.0  T
   8     -7.1379323  0.954859E-03  0.110E+00    0.02       1.0  T
   9     -7.1379637 -0.313345E-04  0.122E+00    0.07       1.0  T
  10     -7.1379402  0.234481E-04  0.121E+00    0.06       1.0  T
  11     -7.1381475 -0.207290E-03  0.976E-01    0.02       1.0  T
  12     -7.1295027  0.864478E-02  0.610E+00    0.13       1.0  T
  13     -7.1259507  0.355205E-02  0.912E+00    0.33       1.0  T
  14     -7.1292454 -0.329468E-02  0.785E+00    0.21       1.0  T
  15     -7.1339923 -0.474693E-02  0.560E+00    0.07       1.0  T
  16     -7.1362690 -0.227669E-02  0.276E+00    0.09       1.0  T
  17     -7.1366036 -0.334665E-03  0.211E+00    0.09       1.0  T
  18     -7.1377352 -0.113155E-02  0.128E+00    0.06       1.0  T
  19     -7.1390636 -0.132842E-02  0.657E-01    0.03       1.0  T
  20     -7.1400637 -0.100012E-02  0.390E-01    0.13       1.0  T
  21     -7.1396982  0.365578E-03  0.636E-01    0.06       1.0  T
  22     -7.1399903 -0.292173E-03  0.581E-01    0.09       1.0  T
  23     -7.1400754 -0.850218E-04  0.518E-01    0.11       1.0  T
  24     -7.1401091 -0.337851E-04  0.511E-01    0.12       1.0  T
  25     -7.1401970 -0.878770E-04  0.527E-01    0.13       1.0  T
  26     -7.1402637 -0.666633E-04  0.481E-01    0.14       1.0  T
  27     -7.1403344 -0.707349E-04  0.329E-01    0.17       1.0  T
  28     -7.1403763 -0.419277E-04  0.216E-01    0.19       1.0  T
  29     -7.1403976 -0.212463E-04  0.177E-01    0.20       1.0  T
  30     -7.1404143 -0.167044E-04  0.122E-01    0.22       1.0  T
  31     -7.1404221 -0.781902E-05  0.610E-02    0.23       1.0  T
  32     -7.1404237 -0.155643E-05  0.224E-02    0.24       2.0  T
  33     -7.1404239 -0.269706E-06  0.387E-03    0.24      11.6  T
  34     -7.1404239 -0.103403E-07  0.110E-03    0.24      40.5  T
  35     -7.1404239  0.472272E-09  0.169E-03    0.24      26.5  T
  36     -7.1404239 -0.113246E-08  0.185E-04    0.24     241.1  T
  37     -7.1404239 -0.953531E-10  0.224E-05    0.24    1999.3  T

   *** convergence criteria satisfied after 37 iterations ***

         #    Occupation            Energy/Eh            Energy/eV
      -------------------------------------------------------------
         1        2.0000           -0.7105219             -19.3343
         2        2.0000           -0.6385986             -17.3772
         3        2.0000           -0.5488573             -14.9352
         4        2.0000           -0.5488573             -14.9352
         5        2.0000           -0.5422025             -14.7541
         6        1.0000           -0.4386971             -11.9376
         7        1.0000           -0.4386971             -11.9376
         8        0.9906            0.0924770               2.5164 (HOMO)
         9        0.0094            0.1013241               2.7572 (LUMO)
        10                          0.1724032               4.6913
        11                          0.1724037               4.6913
      -------------------------------------------------------------
                  HL-Gap            0.0088471 Eh            0.2407 eV
             Fermi-level           -0.1967746 Eh           -5.3545 eV

 SCC (total)                   0 d,  0 h,  0 min,  0.004 sec
 SCC setup                      ...        0 min,  0.000 sec (  2.345%)
 Dispersion                     ...        0 min,  0.000 sec (  0.266%)
 integral evaluation            ...        0 min,  0.000 sec ( 11.704%)
 zeroth order Hamiltonian       ...        0 min,  0.000 sec (  0.298%)
 iterations                     ...        0 min,  0.003 sec ( 71.203%)
 molecular gradient             ...        0 min,  0.000 sec ( 12.170%)
 printout                       ...        0 min,  0.000 sec (  1.742%)

         :::::::::::::::::::::::::::::::::::::::::::::::::::::
         ::                     SUMMARY                     ::
         :::::::::::::::::::::::::::::::::::::::::::::::::::::
         :: total energy              -7.088507113928 Eh    ::
         :: gradient norm              0.523826239176 Eh/a0 ::
         :: HOMO-LUMO gap              0.240742247611 eV    ::
         ::.................................................::
         :: SCC energy                -7.140423945824 Eh    ::
         :: -> isotropic ES            0.009223526736 Eh    ::
         :: -> anisotropic ES         -0.001487978528 Eh    ::
         :: -> anisotropic XC         -0.000674089062 Eh    ::
         :: -> dispersion             -0.000806593417 Eh    ::
         :: repulsion energy           0.051916816310 Eh    ::
         :: add. restraining           0.000000000000 Eh    ::
         :::::::::::::::::::::::::::::::::::::::::::::::::::::

      ----------------------------------------------------------- 
     |                   =====================                   |
     |                        A N C O P T                        |
     |                   =====================                   |
     |               Approximate Normal Coordinate               |
     |                Rational Function Optimizer                |
      ----------------------------------------------------------- 

          ...................................................
          :                      SETUP                      :
          :.................................................:
          :   optimization level            normal          :
          :   max. optcycles                   200          :
          :   ANC micro-cycles                  20          :
          :   degrees of freedom                 9          :
          :.................................................:
          :   RF solver                   davidson          :
          :   write xtbopt.log                true          :
          :   linear?                        false          :
          :   energy convergence         0.5000000E-05 Eh   :
          :   grad. convergence          0.1000000E-02 Eh/α :
          :   maximium RF displ.         1.0000000          :
          :   Hlow (freq-cutoff)         0.1000000E-01      :
          :   Hmax (freq-cutoff)         5.0000000          :
          :   S6 in model hess.         20.0000000          :
          ...................................................

generating ANC from model Hessian ...
Using Lindh-Hessian (1995)
 Shifting diagonal of input Hessian by    0.0000000000000000     
 Lowest  eigenvalues of input Hessian
   -0.000000   -0.000000   -0.000000   -0.000000    0.000000    0.000000
    0.093089    0.093089    0.123050    0.123050    0.141181    0.432252
    1.045367    1.045368    1.384258
 Highest eigenvalues
    0.123050    0.141181    0.432252    1.045367    1.045368    1.384258


........................................................................
.............................. CYCLE    1 ..............................
........................................................................
   1     -7.1404239 -0.714042E+01  0.350E-05    0.24       0.0  T
   2     -7.1404239  0.146194E-11  0.243E-05    0.24    1840.4  T
   3     -7.1404239  0.962785E-12  0.361E-05    0.24    1240.5  T
     SCC iter.                  ...        0 min,  0.000 sec
     gradient                   ...        0 min,  0.000 sec
 * total energy  :    -7.0885071 Eh     change        0.2581713E-09 Eh
   gradient norm :     0.5238241 Eh/α   predicted     0.0000000E+00 (-100.00%)
   displ. norm   :     0.6151522 α      lambda       -0.2998861E+00
   maximum displ.:     0.5434458 α      in ANC's #6, #5, #9, ...

........................................................................
.............................. CYCLE    2 ..............................
........................................................................
   1     -7.2857840 -0.728578E+01  0.217E+00    4.27       0.0  T
   2     -7.2729947  0.127893E-01  0.161E+00    4.25       1.0  T
   3     -7.2712870  0.170773E-02  0.210E+00    4.00       1.0  T
   4     -7.2879007 -0.166138E-01  0.682E-01    4.06       1.0  T
   5     -7.2898120 -0.191130E-02  0.610E-02    4.08       1.0  T
   6     -7.2897956  0.164342E-04  0.769E-02    4.07       1.0  T
   7     -7.2898275 -0.319006E-04  0.874E-03    4.07       5.1  T
   8     -7.2898278 -0.339004E-06  0.521E-03    4.07       8.6  T
   9     -7.2898280 -0.152533E-06  0.415E-04    4.07     107.8  T
  10     -7.2898280  0.455869E-09  0.469E-04    4.07      95.3  T
     SCC iter.                  ...        0 min,  0.001 sec
     gradient                   ...        0 min,  0.000 sec
 * total energy  :    -7.2702539 Eh     change       -0.1817467E+00 Eh
   gradient norm :     0.2597218 Eh/α   predicted    -0.2066833E+00 (  13.72%)
   displ. norm   :     0.3583023 α      lambda       -0.7717558E-01
   maximum displ.:     0.2526319 α      in ANC's #9, #5, #6, ...

........................................................................
.............................. CYCLE    3 ..............................
........................................................................
   1     -7.3327234 -0.733272E+01  0.197E+00    8.00       0.0  T
   2     -7.0654586  0.267265E+00  0.595E+00    8.18       1.0  T
   3     -7.3358414 -0.270383E+00  0.157E+00    7.93       1.0  T
   4     -7.3437532 -0.791180E-02  0.818E-01    7.96       1.0  T
   5     -7.3474193 -0.366613E-02  0.684E-02    8.00       1.0  T
   6     -7.3474383 -0.190351E-04  0.228E-02    8.00       2.0  T
   7     -7.3474401 -0.178287E-05  0.247E-03    8.00      18.1  T
   8     -7.3474401 -0.259661E-07  0.594E-04    8.00      75.3  T
   9     -7.3474401  0.287488E-08  0.674E-04    8.00      66.3  T
     SCC iter.                  ...        0 min,  0.000 sec
     gradient                   ...        0 min,  0.000 sec
 * total energy  :    -7.3212071 Eh     change       -0.5095320E-01 Eh
   gradient norm :     0.1244377 Eh/α   predicted    -0.4354171E-01 ( -14.55%)
   displ. norm   :     0.2057878 α      lambda       -0.2410197E-01
   maximum displ.:     0.1878625 α      in ANC's #9, #5, #6, ...

........................................................................
.............................. CYCLE    4 ..............................
........................................................................
   1     -7.3686600 -0.736866E+01  0.141E+00   10.52       0.0  T
   2     -7.0503948  0.318265E+00  0.636E+00   10.61       1.0  T
   3     -7.3703846 -0.319990E+00  0.117E+00   10.48       1.0  T
   4     -7.3746969 -0.431228E-02  0.708E-01   10.49       1.0  T
   5     -7.3776497 -0.295279E-02  0.117E-01   10.51       1.0  T
   6     -7.3777316 -0.819300E-04  0.201E-02   10.51       2.2  T
   7     -7.3777321 -0.484330E-06  0.131E-03   10.51      34.2  T
   8     -7.3777321 -0.340824E-08  0.747E-04   10.51      59.9  T
   9     -7.3777321  0.215200E-08  0.780E-04   10.51      57.4  T
     SCC iter.                  ...        0 min,  0.000 sec
     gradient                   ...        0 min,  0.000 sec
 * total energy  :    -7.3384637 Eh     change       -0.1725667E-01 Eh
   gradient norm :     0.0609466 Eh/α   predicted    -0.1256133E-01 ( -27.21%)
   displ. norm   :     0.1662617 α      lambda       -0.9909501E-02
   maximum displ.:     0.1598746 α      in ANC's #9, #6, #5, ...

........................................................................
.............................. CYCLE    5 ..............................
........................................................................
   1     -7.3932618 -0.739326E+01  0.107E+00   12.18       0.0  T
   2     -7.1145213  0.278741E+00  0.590E+00   12.19       1.0  T
   3     -7.3931560 -0.278635E+00  0.963E-01   12.14       1.0  T
   4     -7.3958905 -0.273446E-02  0.611E-01   12.14       1.0  T
   5     -7.3979779 -0.208743E-02  0.226E-01   12.15       1.0  T
   6     -7.3982933 -0.315430E-03  0.581E-02   12.15       1.0  T
   7     -7.3983127 -0.193778E-04  0.116E-03   12.15      38.5  T
   8     -7.3983127 -0.101117E-07  0.447E-04   12.15     100.1  T
   9     -7.3983127  0.147682E-07  0.149E-03   12.15      30.1  T
  10     -7.3983127 -0.144711E-07  0.304E-04   12.15     147.2  T
     SCC iter.                  ...        0 min,  0.001 sec
     gradient                   ...        0 min,  0.000 sec
 * total energy  :    -7.3445795 Eh     change       -0.6115765E-02 Eh
   gradient norm :     0.0185529 Eh/α   predicted    -0.5091712E-02 ( -16.74%)
   displ. norm   :     0.1165570 α      lambda       -0.2108410E-02
   maximum displ.:     0.0862402 α      in ANC's #5, #9, #6, ...

........................................................................
.............................. CYCLE    6 ..............................
........................................................................
   1     -7.4019327 -0.740193E+01  0.378E-01   12.05       0.0  T
   2     -7.3985159  0.341686E-02  0.692E-01   12.04       1.0  T
   3     -7.4010329 -0.251699E-02  0.431E-01   12.03       1.0  T
   4     -7.4019624 -0.929539E-03  0.118E-01   12.02       1.0  T
   5     -7.4020578 -0.953973E-04  0.656E-03   12.02       6.8  T
   6     -7.4020575  0.341453E-06  0.101E-02   12.02       4.4  T
   7     -7.4020581 -0.636538E-06  0.896E-04   12.02      49.9  T
   8     -7.4020581 -0.564727E-08  0.102E-04   12.02     440.0  T
     SCC iter.                  ...        0 min,  0.000 sec
     gradient                   ...        0 min,  0.000 sec
 * total energy  :    -7.3462099 Eh     change       -0.1630412E-02 Eh
   gradient norm :     0.0105126 Eh/α   predicted    -0.1068528E-02 ( -34.46%)
   displ. norm   :     0.1700515 α      lambda       -0.1772565E-02
   maximum displ.:     0.1401972 α      in ANC's #5, #9, #6, ...

........................................................................
.............................. CYCLE    7 ..............................
........................................................................
   1     -7.4010141 -0.740101E+01  0.506E-01   11.48       0.0  T
   2     -7.3977178  0.329630E-02  0.761E-01   11.47       1.0  T
   3     -7.4003519 -0.263415E-02  0.419E-01   11.46       1.0  T
   4     -7.4011585 -0.806626E-03  0.108E-01   11.45       1.0  T
   5     -7.4012384 -0.798618E-04  0.114E-02   11.45       3.9  T
   6     -7.4012387 -0.340065E-06  0.976E-03   11.45       4.6  T
   7     -7.4012393 -0.579016E-06  0.165E-03   11.45      27.1  T
   8     -7.4012393 -0.194157E-07  0.136E-04   11.45     329.1  T
   9     -7.4012393 -0.122333E-09  0.170E-05   11.45    2629.7  T
     SCC iter.                  ...        0 min,  0.000 sec
     gradient                   ...        0 min,  0.000 sec
 * total energy  :    -7.3473418 Eh     change       -0.1131867E-02 Eh
   gradient norm :     0.0101784 Eh/α   predicted    -0.9119126E-03 ( -19.43%)
   displ. norm   :     0.0917219 α      lambda       -0.4567726E-03
   maximum displ.:     0.0666785 α      in ANC's #5, #9, #6, ...

........................................................................
.............................. CYCLE    8 ..............................
........................................................................
   1     -7.4016527 -0.740165E+01  0.294E-01   11.41       0.0  T
   2     -7.4004059  0.124676E-02  0.468E-01   11.41       1.0  T
   3     -7.4015481 -0.114214E-02  0.210E-01   11.40       1.0  T
   4     -7.4017211 -0.173045E-03  0.262E-02   11.40       1.7  T
   5     -7.4017255 -0.436886E-05  0.775E-03   11.40       5.8  T
   6     -7.4017259 -0.408342E-06  0.108E-03   11.40      41.5  T
   7     -7.4017259  0.811249E-09  0.338E-04   11.40     132.5  T
   8     -7.4017259 -0.795355E-09  0.106E-04   11.40     420.6  T
     SCC iter.                  ...        0 min,  0.000 sec
     gradient                   ...        0 min,  0.000 sec
 * total energy  :    -7.3476849 Eh     change       -0.3431122E-03 Eh
   gradient norm :     0.0105091 Eh/α   predicted    -0.2303075E-03 ( -32.88%)
   displ. norm   :     0.1081870 α      lambda       -0.4627002E-03
   maximum displ.:     0.0717117 α      in ANC's #5, #9, #6, ...

........................................................................
.............................. CYCLE    9 ..............................
........................................................................
   1     -7.4028169 -0.740282E+01  0.361E-01   11.56       0.0  T
   2     -7.4000061  0.281075E-02  0.683E-01   11.57       1.0  T
   3     -7.4029545 -0.294836E-02  0.201E-01   11.56       1.0  T
   4     -7.4030069 -0.524052E-04  0.695E-03   11.56       6.4  T
   5     -7.4030070 -0.773261E-07  0.339E-03   11.56      13.2  T
   6     -7.4030070 -0.635507E-08  0.148E-03   11.56      30.3  T
   7     -7.4030070 -0.110593E-07  0.324E-04   11.56     138.2  T
   8     -7.4030070 -0.702156E-09  0.212E-05   11.56    2114.4  T
     SCC iter.                  ...        0 min,  0.000 sec
     gradient                   ...        0 min,  0.000 sec
 * total energy  :    -7.3480235 Eh     change       -0.3386342E-03 Eh
   gradient norm :     0.0091147 Eh/α   predicted    -0.2340560E-03 ( -30.88%)
   displ. norm   :     0.1036931 α      lambda       -0.3588758E-03
   maximum displ.:     0.0685379 α      in ANC's #5, #9, #6, ...

........................................................................
.............................. CYCLE   10 ..............................
........................................................................
   1     -7.4033625 -0.740336E+01  0.393E-01   11.80       0.0  T
   2     -7.3971657  0.619680E-02  0.982E-01   11.82       1.0  T
   3     -7.4038877 -0.672199E-02  0.187E-01   11.80       1.0  T
   4     -7.4037749  0.112817E-03  0.132E-01   11.80       1.0  T
   5     -7.4039038 -0.128951E-03  0.797E-03   11.80       5.6  T
   6     -7.4039041 -0.214923E-06  0.411E-03   11.80      10.9  T
   7     -7.4039041 -0.671746E-07  0.188E-03   11.80      23.8  T
   8     -7.4039041 -0.236690E-07  0.446E-04   11.80     100.2  T
   9     -7.4039041 -0.136510E-08  0.565E-06   11.80    7909.1  T
     SCC iter.                  ...        0 min,  0.000 sec
     gradient                   ...        0 min,  0.000 sec
 * total energy  :    -7.3482841 Eh     change       -0.2605949E-03 Eh
   gradient norm :     0.0082087 Eh/α   predicted    -0.1813662E-03 ( -30.40%)
   displ. norm   :     0.0868191 α      lambda       -0.3252957E-03
   maximum displ.:     0.0599505 α      in ANC's #6, #5, #9, ...

........................................................................
.............................. CYCLE   11 ..............................
........................................................................
   1     -7.4045979 -0.740460E+01  0.362E-01   12.11       0.0  T
   2     -7.3975071  0.709081E-02  0.103E+00   12.14       1.0  T
   3     -7.4052416 -0.773452E-02  0.143E-01   12.11       1.0  T
   4     -7.4051324  0.109232E-03  0.136E-01   12.12       1.0  T
   5     -7.4052702 -0.137757E-03  0.259E-03   12.12      17.3  T
   6     -7.4052701  0.343698E-07  0.275E-03   12.12      16.3  T
   7     -7.4052702 -0.354276E-07  0.710E-04   12.12      63.0  T
   8     -7.4052702 -0.291647E-08  0.291E-04   12.12     153.7  T
     SCC iter.                  ...        0 min,  0.000 sec
     gradient                   ...        0 min,  0.000 sec
 * total energy  :    -7.3485284 Eh     change       -0.2442624E-03 Eh
   gradient norm :     0.0075144 Eh/α   predicted    -0.1638734E-03 ( -32.91%)
   displ. norm   :     0.1151971 α      lambda       -0.4594100E-03
   maximum displ.:     0.0840263 α      in ANC's #6, #5, #9, ...

........................................................................
.............................. CYCLE   12 ..............................
........................................................................
   1     -7.4037957 -0.740380E+01  0.611E-01   12.39       0.0  T
   2     -7.3883424  0.154533E-01  0.154E+00   12.43       1.0  T
   3     -7.4059886 -0.176462E-01  0.187E-01   12.39       1.0  T
   4     -7.4058262  0.162442E-03  0.211E-01   12.39       1.0  T
   5     -7.4061327 -0.306462E-03  0.148E-02   12.39       3.0  T
   6     -7.4061340 -0.132008E-05  0.500E-03   12.40       8.9  T
   7     -7.4061341 -0.132528E-06  0.175E-03   12.40      25.5  T
   8     -7.4061341 -0.214009E-07  0.199E-04   12.40     225.0  T
   9     -7.4061341 -0.204563E-09  0.984E-05   12.40     454.3  T
     SCC iter.                  ...        0 min,  0.000 sec
     gradient                   ...        0 min,  0.000 sec
 * total energy  :    -7.3489000 Eh     change       -0.3715747E-03 Eh
   gradient norm :     0.0084883 Eh/α   predicted    -0.2327522E-03 ( -37.36%)
   displ. norm   :     0.2198243 α      lambda       -0.1059420E-02
   maximum displ.:     0.1616357 α      in ANC's #6, #5, #9, ...

........................................................................
.............................. CYCLE   13 ..............................
........................................................................
   1     -7.4008455 -0.740085E+01  0.119E+00   12.76       0.0  T
   2     -7.3686569  0.321885E-01  0.231E+00   12.78       1.0  T
   3     -7.4087591 -0.401022E-01  0.238E-01   12.74       1.0  T
   4     -7.4087291  0.299843E-04  0.249E-01   12.75       1.0  T
   5     -7.4090327 -0.303542E-03  0.830E-02   12.75       1.0  T
   6     -7.4090662 -0.335457E-04  0.395E-02   12.75       1.1  T
   7     -7.4090714 -0.517346E-05  0.261E-02   12.75       1.7  T
   8     -7.4090758 -0.445104E-05  0.117E-03   12.75      38.3  T
   9     -7.4090759 -0.806837E-08  0.291E-04   12.75     153.9  T
  10     -7.4090759 -0.525022E-09  0.121E-05   12.75    3698.8  T
     SCC iter.                  ...        0 min,  0.000 sec
     gradient                   ...        0 min,  0.000 sec
 * total energy  :    -7.3495836 Eh     change       -0.6836012E-03 Eh
   gradient norm :     0.0131557 Eh/α   predicted    -0.5553071E-03 ( -18.77%)
   displ. norm   :     0.2523725 α      lambda       -0.8669522E-03
   maximum displ.:     0.2038577 α      in ANC's #5, #6, #9, ...

........................................................................
.............................. CYCLE   14 ..............................
........................................................................
   1     -7.3766446 -0.737664E+01  0.193E+00   12.33       0.0  T
   2     -7.3095458  0.670989E-01  0.346E+00   12.28       1.0  T
   3     -7.3980362 -0.884904E-01  0.592E-01   12.30       1.0  T
   4     -7.4000237 -0.198757E-02  0.210E-01   12.32       1.0  T
   5     -7.4000585 -0.348160E-04  0.608E-02   12.33       1.0  T
   6     -7.4000751 -0.165959E-04  0.355E-02   12.33       1.3  T
   7     -7.4000823 -0.716275E-05  0.675E-03   12.32       6.6  T
   8     -7.4000825 -0.237509E-06  0.146E-03   12.33      30.7  T
   9     -7.4000826 -0.787698E-08  0.992E-04   12.33      45.1  T
  10     -7.4000826 -0.557144E-08  0.181E-04   12.33     247.1  T
     SCC iter.                  ...        0 min,  0.000 sec
     gradient                   ...        0 min,  0.000 sec
 * total energy  :    -7.3494222 Eh     change        0.1613340E-03 Eh
   gradient norm :     0.0119594 Eh/α   predicted    -0.4610860E-03 (-385.80%)
   displ. norm   :     0.1489030 α      lambda       -0.1390440E-02
   maximum displ.:     0.1064341 α      in ANC's #5, #6, #9, ...

........................................................................
.............................. CYCLE   15 ..............................
........................................................................
   1     -7.4020296 -0.740203E+01  0.876E-01   12.11       0.0  T
   2     -7.3117638  0.902658E-01  0.352E+00   12.07       1.0  T
   3     -7.4060081 -0.942444E-01  0.318E-01   12.10       1.0  T
   4     -7.4062226 -0.214506E-03  0.533E-02   12.11       1.0  T
   5     -7.4062219  0.757641E-06  0.149E-02   12.11       3.0  T
   6     -7.4062217  0.114732E-06  0.125E-02   12.11       3.6  T
   7     -7.4062225 -0.711241E-06  0.628E-03   12.11       7.1  T
   8     -7.4062227 -0.223073E-06  0.198E-03   12.11      22.6  T
   9     -7.4062227 -0.242031E-07  0.813E-05   12.11     550.2  T
  10     -7.4062227 -0.415170E-10  0.308E-06   12.11   14528.3  T
     SCC iter.                  ...        0 min,  0.001 sec
     gradient                   ...        0 min,  0.000 sec
 * total energy  :    -7.3500011 Eh     change       -0.5788646E-03 Eh
   gradient norm :     0.0055334 Eh/α   predicted    -0.7106324E-03 (  22.76%)
   displ. norm   :     0.1014933 α      lambda       -0.2207692E-03
   maximum displ.:     0.0735659 α      in ANC's #6, #5, #9, ...

........................................................................
.............................. CYCLE   16 ..............................
........................................................................
   1     -7.4038829 -0.740388E+01  0.474E-01   12.00       0.0  T
   2     -7.3824382  0.214447E-01  0.168E+00   11.99       1.0  T
   3     -7.4042679 -0.218296E-01  0.347E-01   12.01       1.0  T
   4     -7.4049225 -0.654659E-03  0.607E-02   12.01       1.0  T
   5     -7.4049408 -0.182546E-04  0.138E-02   12.00       3.2  T
   6     -7.4049419 -0.113282E-05  0.249E-03   12.00      18.0  T
   7     -7.4049419 -0.343913E-07  0.133E-04   12.00     335.9  T
   8     -7.4049419 -0.230909E-10  0.200E-05   12.00    2232.7  T
     SCC iter.                  ...        0 min,  0.000 sec
     gradient                   ...        0 min,  0.000 sec
 * total energy  :    -7.3500300 Eh     change       -0.2894599E-04 Eh
   gradient norm :     0.0021011 Eh/α   predicted    -0.1115203E-03 ( 285.27%)
   displ. norm   :     0.0461799 α      lambda       -0.6911848E-04
   maximum displ.:     0.0293206 α      in ANC's #6, #5, #9, ...

........................................................................
.............................. CYCLE   17 ..............................
........................................................................
   1     -7.4046428 -0.740464E+01  0.247E-01   11.98       0.0  T
   2     -7.4017266  0.291625E-02  0.642E-01   11.98       1.0  T
   3     -7.4048864 -0.315977E-02  0.111E-01   11.97       1.0  T
   4     -7.4049459 -0.594845E-04  0.132E-02   11.97       3.4  T
   5     -7.4049463 -0.419205E-06  0.139E-03   11.97      32.3  T
   6     -7.4049463 -0.530881E-08  0.690E-04   11.97      64.8  T
   7     -7.4049463 -0.170412E-08  0.188E-05   11.97    2375.6  T
     SCC iter.                  ...        0 min,  0.000 sec
     gradient                   ...        0 min,  0.000 sec
 * total energy  :    -7.3500687 Eh     change       -0.3863114E-04 Eh
   gradient norm :     0.0003133 Eh/α   predicted    -0.3463104E-04 ( -10.35%)
   displ. norm   :     0.0074989 α      lambda       -0.9568784E-06
   maximum displ.:     0.0052405 α      in ANC's #5, #9, #6, ...

........................................................................
.............................. CYCLE   18 ..............................
........................................................................
   1     -7.4047855 -0.740479E+01  0.433E-02   11.95       0.0  T
   2     -7.4046771  0.108460E-03  0.122E-01   11.95       1.0  T
   3     -7.4047921 -0.115035E-03  0.231E-02   11.95       1.9  T
   4     -7.4047949 -0.278159E-05  0.179E-03   11.95      25.0  T
   5     -7.4047949 -0.777302E-08  0.181E-04   11.95     247.5  T
   6     -7.4047949 -0.916991E-10  0.767E-05   11.95     582.9  T
     SCC iter.                  ...        0 min,  0.000 sec
     gradient                   ...        0 min,  0.000 sec
 * total energy  :    -7.3500690 Eh     change       -0.3185069E-06 Eh
   gradient norm :     0.0001439 Eh/α   predicted    -0.4792109E-06 (  50.46%)
   displ. norm   :     0.0029154 α      lambda       -0.1980571E-06
   maximum displ.:     0.0019168 α      in ANC's #5, #6, #9, ...

   *** GEOMETRY OPTIMIZATION CONVERGED AFTER 18 ITERATIONS ***

------------------------------------------------------------------------
 total energy gain   :        -0.2615619 Eh     -164.1325 kcal/mol
 total RMSD          :         0.4790277 a0        0.2535 Å
 total power (kW/mol):       -38.1516991 (step)********** (real)
------------------------------------------------------------------------

 ANCopt (total)                0 d,  0 h,  0 min,  0.026 sec
 optimizer setup                ...        0 min,  0.000 sec (  0.343%)
 model hessian                  ...        0 min,  0.000 sec (  0.527%)
 ANC generation                 ...        0 min,  0.000 sec (  0.219%)
 coordinate transformation      ...        0 min,  0.000 sec (  0.158%)
 single point calculation       ...        0 min,  0.024 sec ( 92.712%)
 optimization log               ...        0 min,  0.000 sec (  1.841%)
 hessian update                 ...        0 min,  0.000 sec (  0.194%)
 rational function              ...        0 min,  0.000 sec (  1.663%)

================
 final structure:
================
5
 xtb: 6.2.2 (9d81278992624c895f80dd42a50cac0aa55982e2)
O         1.60426539491553   -0.09078341017180    0.02701282321361
C        -0.53801881758976    0.03044675122229   -0.00905868020835
H        -0.38128943548878   -0.12362765620471    1.04788698455065
H        -0.29300192131487    1.00345139819361   -0.40738791851513
H        -0.39195622052212   -0.81948708303939   -0.65845320904079

 Bond Distances (Angstroems)
 ---------------------------
C2-H3=1.0796         C2-H4=1.0796         C2-H5=1.0796         H3-C2=1.0796         H4-C2=1.0796         H5-C2=1.0796         
 C  H  Rav=1.0796 sigma=0.0000  Rmin=1.0796  Rmax=1.0796     3

 selected bond angles (degree)
 --------------------
H4-C2-H3=117.19                H5-C2-H3=117.19                H5-C2-H4=117.19                

 selected dihedral angles (degree)
 ---------------------------------

           -------------------------------------------------
          |                Final Singlepoint                |
           -------------------------------------------------

          ...................................................
          :                      SETUP                      :
          :.................................................:
          :  # basis functions                  11          :
          :  # atomic orbitals                  11          :
          :  # shells                            7          :
          :  # electrons                        13          :
          :  max. iterations                   250          :
          :  Hamiltonian                  GFN2-xTB          :
          :  restarted?                      false          :
          :  GBSA solvation                  false          :
          :  PC potential                    false          :
          :  electronic temp.          300.0000000     K    :
          :  accuracy                    1.0000000          :
          :  -> integral cutoff          0.2500000E+02      :
          :  -> integral neglect         0.1000000E-07      :
          :  -> SCF convergence          0.1000000E-05 Eh   :
          :  -> wf. convergence          0.1000000E-03 e    :
          :  Broyden damping             0.4000000          :
          ...................................................

 iter      E             dE          RMSdq      gap      omega  full diag
   1     -7.4047949 -0.740479E+01  0.219E-05   11.95       0.0  T
   2     -7.4047949  0.409184E-11  0.227E-05   11.95    1966.2  T
   3     -7.4047949  0.233413E-11  0.341E-05   11.95    1312.1  T

   *** convergence criteria satisfied after 3 iterations ***

         #    Occupation            Energy/Eh            Energy/eV
      -------------------------------------------------------------
         1        2.0000           -0.6667079             -18.1420
         2        2.0000           -0.6043751             -16.4459
         3        2.0000           -0.5071205             -13.7995
         4        2.0000           -0.5071204             -13.7994
         5        2.0000           -0.4922920             -13.3959
         6        1.0000           -0.4705430             -12.8041
         7        1.0000           -0.4705428             -12.8041
         8        1.0000           -0.3295128              -8.9665 (HOMO)
         9                          0.1096203               2.9829 (LUMO)
        10                          0.2423642               6.5951
        11                          0.2423665               6.5951
      -------------------------------------------------------------
                  HL-Gap            0.4391331 Eh           11.9494 eV
             Fermi-level           -0.2958465 Eh           -8.0504 eV

 SCC (total)                   0 d,  0 h,  0 min,  0.001 sec
 SCC setup                      ...        0 min,  0.000 sec (  6.783%)
 Dispersion                     ...        0 min,  0.000 sec (  0.538%)
 integral evaluation            ...        0 min,  0.000 sec ( 36.757%)
 zeroth order Hamiltonian       ...        0 min,  0.000 sec (  0.624%)
 iterations                     ...        0 min,  0.000 sec ( 15.719%)
 molecular gradient             ...        0 min,  0.000 sec ( 35.056%)
 printout                       ...        0 min,  0.000 sec (  3.725%)

         :::::::::::::::::::::::::::::::::::::::::::::::::::::
         ::                     SUMMARY                     ::
         :::::::::::::::::::::::::::::::::::::::::::::::::::::
         :: total energy              -7.350068980976 Eh    ::
         :: gradient norm              0.000143748366 Eh/a0 ::
         :: HOMO-LUMO gap             11.949420329236 eV    ::
         ::.................................................::
         :: SCC energy                -7.404794909910 Eh    ::
         :: -> isotropic ES            0.014903983054 Eh    ::
         :: -> anisotropic ES         -0.003281711734 Eh    ::
         :: -> anisotropic XC          0.003641786441 Eh    ::
         :: -> dispersion             -0.000862558508 Eh    ::
         :: repulsion energy           0.054725901875 Eh    ::
         :: add. restraining           0.000000000000 Eh    ::
         :::::::::::::::::::::::::::::::::::::::::::::::::::::

           ------------------------------------------------- 
          |                Numerical Hessian                |
           ------------------------------------------------- 
step length          :   0.00500
SCC accuracy         :   0.30000
Hessian scale factor :   1.00000
frozen atoms in %    :   0.00000    0
RMS gradient         :   0.00014
estimated CPU  time      0.00 min
estimated wall time      0.00 min

writing file <hessian>.

 projected vibrational frequencies (cm-1)
eigval :       -0.00    -0.00     0.00     0.00     0.00     0.00
eigval :     -391.57  -391.47   340.11   644.20  1133.66  1133.73
eigval :     3014.93  3050.86  3050.89
           -------------------------------------------------
          |                Property Printout                |
           -------------------------------------------------

    * Orbital Energies and Occupations

         #    Occupation            Energy/Eh            Energy/eV
      -------------------------------------------------------------
         1        2.0000           -0.6667078             -18.1420
         2        2.0000           -0.6043752             -16.4459
         3        2.0000           -0.5071205             -13.7995
         4        2.0000           -0.5071204             -13.7994
         5        2.0000           -0.4922919             -13.3959
         6        1.0000           -0.4705429             -12.8041
         7        1.0000           -0.4705427             -12.8041
         8        1.0000           -0.3295129              -8.9665 (HOMO)
         9                          0.1096202               2.9829 (LUMO)
        10                          0.2423641               6.5951
        11                          0.2423664               6.5951
      -------------------------------------------------------------
                  HL-Gap            0.4391331 Eh           11.9494 eV
             Fermi-level           -0.2958465 Eh           -8.0504 eV

     #   Z        covCN         q      C6AA      α(0)
     1   8 O      0.033    -0.274    19.879     5.873
     2   6 C      2.810    -0.138    31.533     9.200
     3   1 H      0.926     0.137     1.480     1.902
     4   1 H      0.926     0.137     1.480     1.902
     5   1 H      0.926     0.137     1.480     1.902

 Mol. C6AA /au·bohr⁶  :        186.816460
 Mol. C8AA /au·bohr⁸  :       3927.717945
 Mol. α(0) /au        :         20.779540


Wiberg/Mayer (AO) data.
largest (>0.10) Wiberg bond orders for each atom
          total WBO             WBO to atom ...
     1  O   0.453        C    2 0.283
     2  C   2.846        H    5 0.855    H    3 0.855    H    4 0.855    O    1 0.283
     3  H   0.911        C    2 0.855
     4  H   0.911        C    2 0.855
     5  H   0.911        C    2 0.855

MOs/occ written to file <molden.input>


molecular dipole:
                 x           y           z       tot (Debye)
 q only:       -0.966       0.055      -0.016
   full:       -0.794       0.045      -0.013       2.021
molecular quadrupole (traceless):
                xx          xy          yy          xz          yz          zz
 q only:       -3.299       0.281       1.642      -0.083       0.005       1.657
  q+dip:       -4.372       0.372       2.176      -0.111       0.006       2.196
   full:       -4.655       0.396       2.317      -0.118       0.007       2.338

           -------------------------------------------------
          |                Geometry Summary                 |
           -------------------------------------------------

      molecular mass/u    :       31.0339631
   center of mass at/Å    :        0.5842171      -0.0330629       0.0098353
  moments of inertia/u·Å² :        0.3422896E+01   0.3627511E+02   0.3627512E+02
rotational constants/cm⁻¹ :        0.4924962E+01   0.4647162E+00   0.4647161E+00

 * 3 selected distances

     #   Z        #   Z                                     value/Å
     2   6 C      3   1 H                                 1.0795541
     2   6 C      4   1 H                                 1.0795543 (max)
     2   6 C      5   1 H                                 1.0795532 (min)

 * 1 distinct bonds (by element types)

   Z      Z             #   av. dist./Å        max./Å        min./Å
   1 H    6 C           3     1.0795539     1.0795543     1.0795532

           -------------------------------------------------
          |               Frequency Printout                |
           -------------------------------------------------
 projected vibrational frequencies (cm-1)
eigval :       -0.00    -0.00     0.00     0.00     0.00     0.00
eigval :     -391.57  -391.47   340.11   644.20  1133.66  1133.73
eigval :     3014.93  3050.86  3050.89
 reduced masses (amu)
   1:  3.90   2: 15.58   3: 15.04   4: 13.00   5:  9.59   6:  7.92   7:  1.44   8:  1.44
Molecule has the following symmetry elements: (C3) 3*(sigma) 
It seems to be the C3v point group
   9: 11.03  10:  4.94  11:  2.02  12:  2.02  13:  1.06  14:  2.06  15:  2.06
 IR intensities (amu)
   1:  0.11   2:  0.20   3:  0.20   4:  0.16   5:  0.16   6:  0.14   7:  0.01   8:  0.01
   9:  0.08  10:  0.33  11:  0.36  12:  0.36  13:  0.09  14:  0.27  15:  0.26
 Raman intensities (amu)
   1:  0.00   2:  0.00   3:  0.00   4:  0.00   5:  0.00   6:  0.00   7:  0.00   8:  0.00
   9:  0.00  10:  0.00  11:  0.00  12:  0.00  13:  0.00  14:  0.00  15:  0.00
 output can be read by thermo (or use thermo option).
 writing <g98.out> molden fake output.
 recommended (thermochemical) frequency scaling factor: 1.0
           -------------------------------------------------
          |             Thermodynamic Functions             |
           -------------------------------------------------

c3v symmetry found (for desy threshold:  0.10E+00) used in thermo

          ...................................................
          :                      SETUP                      :
          :.................................................:
          :  # frequencies                           7      :
          :  # imaginary freq.                       2      :
          :  linear?                             false      :
          :  only rotor calc.                    false      :
          :  symmetry                              c3v      :
          :  rotational number                       3      :
          :  scaling factor                  1.0000000      :
          :  rotor cutoff                   50.0000000 cm⁻¹ :
          :  imag. cutoff                  -20.0000000 cm⁻¹ :
          :.................................................:

    mode    ω/cm⁻¹     T·S(HO)/kcal·mol⁻¹    T·S(FR)/kcal·mol⁻¹   T·S(vib)
   ------------------------------------------------------------------------
   ------------------------------------------------------------------------

   temp. (K)  partition function   enthalpy   heat capacity  entropy
                                   cal/mol     cal/K/mol   cal/K/mol   J/K/mol
 298.15  VIB   1.31                  347.178      3.040      1.700
         ROT  0.171E+04              888.752      2.981     17.773
         INT  0.224E+04             1235.930      6.021     19.473
         TR   0.167E+27             1481.254      4.968     36.214
         TOT                        2717.1844    10.9895    55.6873   232.9955

   temp. (K)  partition function   enthalpy   heat capacity  entropy
                                   cal/mol     cal/K/mol   cal/K/mol   J/K/mol
 120.00  VIB   1.02                   17.585      0.633      0.182
         ROT   436.                  357.707      2.981     15.060
         INT   444.                  375.291      3.614     15.242
         TR   0.427E+26              596.178      4.968     31.694
         TOT                         971.4693     8.5818    46.9365   196.3823

   temp. (K)  partition function   enthalpy   heat capacity  entropy
                                   cal/mol     cal/K/mol   cal/K/mol   J/K/mol
 100.00  VIB   1.01                    7.519      0.378      0.091
         ROT   332.                  298.089      2.981     14.517
         INT   334.                  305.608      3.359     14.607
         TR   0.325E+26              496.815      4.968     30.789
         TOT                         802.4229     8.3273    45.3965   189.9391

   temp. (K)  partition function   enthalpy   heat capacity  entropy
                                   cal/mol     cal/K/mol   cal/K/mol   J/K/mol
  80.00  VIB   1.00                    2.167      0.167      0.032
         ROT   238.                  238.471      2.981     13.852
         INT   238.                  240.638      3.148     13.883
         TR   0.232E+26              397.452      4.968     29.681
         TOT                         638.0900     8.1162    43.5644   182.2734

   temp. (K)  partition function   enthalpy   heat capacity  entropy
                                   cal/mol     cal/K/mol   cal/K/mol   J/K/mol
  60.00  VIB   1.00                    0.280      0.038      0.005
         ROT   154.                  178.853      2.981     12.994
         INT   154.                  179.133      3.019     12.999
         TR   0.151E+26              298.089      4.968     28.252
         TOT                         477.2220     7.9871    41.2519   172.5979

   temp. (K)  partition function   enthalpy   heat capacity  entropy
                                   cal/mol     cal/K/mol   cal/K/mol   J/K/mol
  40.00  VIB   1.00                    0.005      0.001     -0.000
         ROT   84.0                  119.236      2.981     11.786
         INT   84.0                  119.240      2.982     11.785
         TR   0.822E+25              198.726      4.968     26.239
         TOT                         317.9663     7.9505    38.0245   159.0945

   temp. (K)  partition function   enthalpy   heat capacity  entropy
                                   cal/mol     cal/K/mol   cal/K/mol   J/K/mol
  20.00  VIB   1.00                    0.000      0.000     -0.001
         ROT   29.7                   59.618      2.981      9.719
         INT   29.7                   59.618      2.981      9.719
         TR   0.291E+25               99.363      4.968     22.797
         TOT                         158.9808     7.9490    32.5159   136.0463

   temp. (K)  partition function   enthalpy   heat capacity  entropy
                                   cal/mol     cal/K/mol   cal/K/mol   J/K/mol
  10.00  VIB   1.00                    0.000      0.000     -0.001
         ROT   10.5                   29.809      2.981      7.653
         INT   10.5                   29.809      2.981      7.652
         TR   0.103E+25               49.681      4.968     19.355
         TOT                          79.4904     7.9490    27.0073   112.9987

       T/K    H(0)-H(T)+PV         H(T)/Eh          T*S/Eh         G(T)/Eh
   ------------------------------------------------------------------------
    298.15    0.433011E-02    0.325073E-01    0.264588E-01    0.604851E-02
    120.00    0.154813E-02    0.297254E-01    0.897577E-02    0.207496E-01
    100.00    0.127874E-02    0.294560E-01    0.723440E-02    0.222216E-01
     80.00    0.101686E-02    0.291941E-01    0.555394E-02    0.236401E-01
     60.00    0.760502E-03    0.289377E-01    0.394434E-02    0.249934E-01
     40.00    0.506712E-03    0.286839E-01    0.242384E-02    0.262601E-01
     20.00    0.253352E-03    0.284306E-01    0.103635E-02    0.273942E-01
     10.00    0.126676E-03    0.283039E-01    0.430389E-03    0.278735E-01 (used)
   ------------------------------------------------------------------------

         :::::::::::::::::::::::::::::::::::::::::::::::::::::
         ::                  THERMODYNAMIC                  ::
         :::::::::::::::::::::::::::::::::::::::::::::::::::::
         :: total free energy          -7.322195477045 Eh   ::
         ::.................................................::
         :: total energy               -7.350068980361 Eh   ::
         :: zero point energy           0.028177216526 Eh   ::
         :: G(RRHO) w/o ZPVE           -0.000303713210 Eh   ::
         :: G(RRHO) contrib.            0.027873503316 Eh   ::
         :::::::::::::::::::::::::::::::::::::::::::::::::::::
imag cut-off (cm-1) :    5.00
 found            2  significant imaginary frequencies
 writing imag mode distorted coords to xtbhess.xyz
 for further optimization.

optimized geometry written to: xtbopt.xyz


           -------------------------------------------------
          | TOTAL ENERGY               -7.350068980361 Eh   |
          | TOTAL ENTHALPY             -7.321765087819 Eh   |
          | TOTAL FREE ENERGY          -7.322195477045 Eh   |
          | GRADIENT NORM               0.000143806757 Eh/α |
          | HOMO-LUMO GAP              11.949420551302 eV   |
           -------------------------------------------------

------------------------------------------------------------------------
 * finished run on 2020/05/12 at 11:44:44.829     
------------------------------------------------------------------------
 total:
 * wall-time:     0 d,  0 h,  0 min,  0.081 sec
 *  cpu-time:     0 d,  0 h,  0 min,  0.081 sec
 * ratio c/w:     1.000 speedup
 SCF:
 * wall-time:     0 d,  0 h,  0 min,  0.004 sec
 *  cpu-time:     0 d,  0 h,  0 min,  0.004 sec
 * ratio c/w:     1.025 speedup
 ANC optimizer:
 * wall-time:     0 d,  0 h,  0 min,  0.027 sec
 *  cpu-time:     0 d,  0 h,  0 min,  0.027 sec
 * ratio c/w:     0.999 speedup
 numerical hessian:
 * wall-time:     0 d,  0 h,  0 min,  0.034 sec
 *  cpu-time:     0 d,  0 h,  0 min,  0.034 sec
 * ratio c/w:     0.999 speedup

