5
 energy: -7.350068980976 gnorm: 0.000143748366 xtb: 6.2.2 (9d81278992624c895f80dd42a50cac0aa55982e2)
O         1.60426501383628   -0.09079176293861    0.02700738171770
C        -0.53801868978132    0.03044955247156   -0.00905685530793
H        -0.38128642496818   -0.12362383088736    1.04788853126485
H        -0.29299808931178    1.00345222131419   -0.40738864709545
H        -0.39196280977501   -0.81948617995455   -0.65845041057568
