5
 energy: -10.847615925747 gnorm: 0.211559332999 xtb: 6.2.2 (9d81278992624c895f80dd42a50cac0aa55982e2)
N         0.32244500000000   -1.17979700000000    0.02765600000000
C        -0.58428900000000   -0.17891000000000   -0.58937400000000
C        -0.32656200000000    1.19486000000000   -0.02800000000000
C        -0.20151600000000   -0.04117400000000    0.82368600000000
C         0.78992300000000    0.20502100000000   -0.23396700000000
5
 energy: -10.868946845593 gnorm: 0.124443538557 xtb: 6.2.2 (9d81278992624c895f80dd42a50cac0aa55982e2)
N         0.31559424163088   -1.15473589302130    0.02707420952175
C        -0.60864754579197   -0.19121636279431   -0.61508475576546
C        -0.32356106473929    1.18387305564955   -0.02773436003904
C        -0.20911999676311   -0.04744646786245    0.85986254232637
C         0.82573536566350    0.20952566802851   -0.24411663604362
5
 energy: -10.892775788861 gnorm: 0.069246450947 xtb: 6.2.2 (9d81278992624c895f80dd42a50cac0aa55982e2)
N         0.29673555400514   -1.08579249692844    0.02552523179351
C        -0.65109745542835   -0.21187306821440   -0.65982274018787
C        -0.31083659864793    1.13723364282407   -0.02655579695962
C        -0.22252868362592   -0.05761414778243    0.92269598869820
C         0.88772818369705    0.21804607010119   -0.26184168334422
5
 energy: -10.911121656514 gnorm: 0.041343860200 xtb: 6.2.2 (9d81278992624c895f80dd42a50cac0aa55982e2)
N         0.26852090542184   -0.98358268291677    0.02417509702735
C        -0.70379846705367   -0.23402251470578   -0.71622810847857
C        -0.28803607592524    1.05266524263097   -0.02342196185926
C        -0.24006207718817   -0.06680749173869    1.00050672238223
C         0.96337671474524    0.23174744673027   -0.28503074907174
5
 energy: -10.916602095111 gnorm: 0.099333082627 xtb: 6.2.2 (9d81278992624c895f80dd42a50cac0aa55982e2)
N         0.24753248117540   -0.92146250740602    0.03741914171687
C        -0.72835699692935   -0.24193856848250   -0.76497727381915
C        -0.27455673483472    0.98824388053400   -0.00678357917936
C        -0.25229300726120   -0.06790034244438    1.05007754350034
C         1.00767525784987    0.24305753779890   -0.31573483221869
5
 energy: -10.911337069328 gnorm: 0.141818159219 xtb: 6.2.2 (9d81278992624c895f80dd42a50cac0aa55982e2)
N         0.21149994378737   -0.85027481823389    0.09543426630759
C        -0.73010604613497   -0.24229963556298   -0.86135438321742
C        -0.26754496311722    0.89979388931402    0.05704769815257
C        -0.26708694253674   -0.06304088661117    1.10763337377707
C         1.05323900800156    0.25582145109402   -0.39875995501981
5
 energy: -10.931740250499 gnorm: 0.089145677364 xtb: 6.2.2 (9d81278992624c895f80dd42a50cac0aa55982e2)
N         0.23246429628036   -0.91714198058724    0.08622640482527
C        -0.69833724812104   -0.22935016893690   -0.81818165145198
C        -0.28094561167424    0.95828733078485    0.04526155864353
C        -0.25693179297536   -0.05784638086234    1.06321369486662
C         1.00375135649027    0.24605119960163   -0.37651900688344
5
 energy: -10.947099269318 gnorm: 0.093638390714 xtb: 6.2.2 (9d81278992624c895f80dd42a50cac0aa55982e2)
N         0.23862062475304   -0.96922179939617    0.11142135299709
C        -0.63793344310622   -0.20820146837665   -0.81713627489423
C        -0.29856821871420    0.99028737901108    0.07098167713439
C        -0.25095793227779   -0.04757205868086    1.03823779855411
C         0.94883996934517    0.23470794744259   -0.40350355379135
5
 energy: -10.963136199517 gnorm: 0.105298146711 xtb: 6.2.2 (9d81278992624c895f80dd42a50cac0aa55982e2)
N         0.23732220062385   -1.05035990431822    0.18029694647122
C        -0.47685811798258   -0.15685978912484   -0.84717626095136
C        -0.33542223246386    1.03404891961441    0.14033034007724
C        -0.24481333914211   -0.03087626459616    1.02848994887912
C         0.81977248896470    0.20404703842480   -0.50193997447623
5
 energy: -10.970761600541 gnorm: 0.075899482853 xtb: 6.2.2 (9d81278992624c895f80dd42a50cac0aa55982e2)
N         0.22680131521934   -0.99994638719085    0.16892009242503
C        -0.52742449433303   -0.17661583394221   -0.86295388061340
C        -0.32315223175820    1.00154490813254    0.13032855343592
C        -0.25000970639234   -0.03847746933608    1.05463040498751
C         0.87378611726423    0.21349478233659   -0.49092417023506
5
 energy: -10.975358845781 gnorm: 0.051015014916 xtb: 6.2.2 (9d81278992624c895f80dd42a50cac0aa55982e2)
N         0.21640200797699   -0.98311549670890    0.18215408415756
C        -0.50272988568006   -0.17325838873750   -0.88511713777946
C        -0.32622715219503    0.99056230797079    0.14419362295643
C        -0.25166244689490   -0.04100243205041    1.07749511441541
C         0.86421847679300    0.20681400952601   -0.51872468374994
5
 energy: -10.977460643644 gnorm: 0.012094871642 xtb: 6.2.2 (9d81278992624c895f80dd42a50cac0aa55982e2)
N         0.20599109772176   -0.96155913996479    0.18771536276356
C        -0.47273781019692   -0.17076726577298   -0.90091270911466
C        -0.32886951420445    0.98135142834370    0.15126472590527
C        -0.25254054890929   -0.04475419530641    1.10378821126800
C         0.84815777558890    0.19572917270048   -0.54185459082217
5
 energy: -10.977608305954 gnorm: 0.006556172351 xtb: 6.2.2 (9d81278992624c895f80dd42a50cac0aa55982e2)
N         0.20634630109154   -0.95802139186886    0.18219621057785
C        -0.47735673728653   -0.17341963742513   -0.89717941148799
C        -0.32768833752390    0.98035551669499    0.14733835772817
C        -0.25226248826696   -0.04402712376214    1.10334599295732
C         0.85096226198585    0.19511263636114   -0.53570014977536
5
 energy: -10.977643714398 gnorm: 0.002468299346 xtb: 6.2.2 (9d81278992624c895f80dd42a50cac0aa55982e2)
N         0.20617323445296   -0.95646396789079    0.17899575431228
C        -0.47757451379464   -0.17474290183074   -0.89514297807813
C        -0.32786913306407    0.97991731111683    0.14603327203406
C        -0.25136237190379   -0.04235589637473    1.10254701927080
C         0.85063378430955    0.19364545497943   -0.53243206753901
5
 energy: -10.977651353437 gnorm: 0.001805521131 xtb: 6.2.2 (9d81278992624c895f80dd42a50cac0aa55982e2)
N         0.20557328858528   -0.95638348724669    0.17842140324088
C        -0.47705636493760   -0.17503095425483   -0.89533622939172
C        -0.32866139798921    0.97960289948840    0.14632219060151
C        -0.25025458520565   -0.04121177971814    1.10208721427150
C         0.85040005954719    0.19302332173127   -0.53149357872217
5
 energy: -10.977667158905 gnorm: 0.003953814879 xtb: 6.2.2 (9d81278992624c895f80dd42a50cac0aa55982e2)
N         0.20285362391634   -0.95681292227152    0.17739066231575
C        -0.47523018468387   -0.17536530552508   -0.89729172645744
C        -0.33205226271927    0.97879739462302    0.14706019456294
C        -0.24560577968780   -0.03819055046912    1.10157008018215
C         0.85003560317461    0.19157138364270   -0.52872821060341
5
 energy: -10.977696811803 gnorm: 0.006023411005 xtb: 6.2.2 (9d81278992624c895f80dd42a50cac0aa55982e2)
N         0.19852915680082   -0.95781467310873    0.17599781558525
C        -0.47302823859364   -0.17535366482486   -0.90042440479198
C        -0.33722459896176    0.97791204960743    0.14698315879054
C        -0.23828644707681   -0.03494341897020    1.10185258091774
C         0.85001112783138    0.19019970729636   -0.52440815050156
5
 energy: -10.977736799214 gnorm: 0.007563065099 xtb: 6.2.2 (9d81278992624c895f80dd42a50cac0aa55982e2)
N         0.19418269720883   -0.95893208688640    0.17449664216573
C        -0.47105424773294   -0.17518882643072   -0.90333662048665
C        -0.34234458909562    0.97701473550882    0.14645599985569
C        -0.23089833720570   -0.03199479215628    1.10222731779157
C         0.85011547682543    0.18910096996459   -0.51984233932634
5
 energy: -10.977796182323 gnorm: 0.009108439552 xtb: 6.2.2 (9d81278992624c895f80dd42a50cac0aa55982e2)
N         0.18911593077055   -0.96032088297157    0.17270114755997
C        -0.46887953749802   -0.17491037372018   -0.90654999164096
C        -0.34827905425378    0.97594304788780    0.14563463005746
C        -0.22224356466832   -0.02867999638387    1.10256954985052
C         0.85028722564958    0.18796820518783   -0.51435433582699
5
 energy: -10.977886292407 gnorm: 0.010847094157 xtb: 6.2.2 (9d81278992624c895f80dd42a50cac0aa55982e2)
N         0.18293450274300   -0.96209995342061    0.17046146489938
C        -0.46632643822037   -0.17453117871778   -0.91029672103881
C        -0.35552555650075    0.97463768841976    0.14451299315170
C        -0.21159413667124   -0.02466284165997    1.10277312022605
C         0.85051262864936    0.18665628537860   -0.50744985723833
5
 energy: -10.978023682306 gnorm: 0.012817004635 xtb: 6.2.2 (9d81278992624c895f80dd42a50cac0aa55982e2)
N         0.17533572680994   -0.96440473343145    0.16763787404098
C        -0.46331791778130   -0.17404762106317   -0.91469923845298
C        -0.36448026850732    0.97308221310884    0.14301901225499
C        -0.19832795428842   -0.01970890945536    1.10268091836720
C         0.85079141376709    0.18507905084114   -0.49863756621019
5
 energy: -10.978235135306 gnorm: 0.007982344167 xtb: 6.2.2 (9d81278992624c895f80dd42a50cac0aa55982e2)
N         0.17008700169576   -0.96664882753633    0.16800392556577
C        -0.46266560747184   -0.17214316143551   -0.91869026080448
C        -0.36907589408660    0.97196550096286    0.13864072190369
C        -0.18945047631140   -0.01969887024942    1.10536873660355
C         0.85110597617407    0.18652535825840   -0.49332212326853
5
 energy: -10.978825268266 gnorm: 0.023630574056 xtb: 6.2.2 (9d81278992624c895f80dd42a50cac0aa55982e2)
N         0.13858777030250   -0.97959317696692    0.16636332104227
C        -0.45794044265077   -0.16336455583244   -0.93897438196665
C        -0.39724025937005    0.96449111777923    0.11716784343907
C        -0.13525812677818   -0.01486498773823    1.11309412363964
C         0.85185205849650    0.19333160275835   -0.45764990615432
5
 energy: -10.979208098354 gnorm: 0.026354831732 xtb: 6.2.2 (9d81278992624c895f80dd42a50cac0aa55982e2)
N         0.12715052701259   -0.98523253258160    0.16310893415572
C        -0.45657481510299   -0.16277838372111   -0.94332028190379
C        -0.40735589500838    0.96358786562310    0.11101229961121
C        -0.11385153209328   -0.01120953081414    1.10908158488342
C         0.85063271519205    0.19563258149375   -0.43988153674656
5
 energy: -10.976394690776 gnorm: 0.071438334781 xtb: 6.2.2 (9d81278992624c895f80dd42a50cac0aa55982e2)
N         0.00198184084879   -1.04751736802028    0.11703428552893
C        -0.44221677889660   -0.16964130142224   -0.98088218079472
C        -0.51468765046577    0.96107566180422    0.05237838560091
C         0.12448207132678    0.03531031820281    1.04076784553854
C         0.83044151718680    0.22077268943549   -0.22929733587365
5
 energy: -10.981475815295 gnorm: 0.015787164275 xtb: 6.2.2 (9d81278992624c895f80dd42a50cac0aa55982e2)
N         0.08247736916223   -1.00598543359620    0.13843763207860
C        -0.45331186203054   -0.16768201120952   -0.94241367920743
C        -0.44813576951814    0.96382245864926    0.08934583591483
C        -0.02708648117049    0.00775906780946    1.07110120564102
C         0.84605774355694    0.20208591834700   -0.35646999442703
5
 energy: -10.981857181391 gnorm: 0.010832751025 xtb: 6.2.2 (9d81278992624c895f80dd42a50cac0aa55982e2)
N         0.07261036978768   -1.00753765086921    0.13259869530632
C        -0.45099668807410   -0.17009025003004   -0.94552001532958
C        -0.45710023028630    0.96315908738636    0.08766449267087
C        -0.00916678045116    0.01275617956958    1.06601470045217
C         0.84465432902387    0.20171263394331   -0.34075687309977
5
 energy: -10.982141389028 gnorm: 0.013741990831 xtb: 6.2.2 (9d81278992624c895f80dd42a50cac0aa55982e2)
N         0.04178249716321   -1.01336380325129    0.11355825801246
C        -0.44439202170325   -0.17509533612775   -0.95333963467682
C        -0.48806498507061    0.96173751352551    0.07887865901794
C         0.04973928348784    0.02766343090696    1.04947049512068
C         0.84093622612281    0.19905819494658   -0.28856677747426
5
 energy: -10.982281654772 gnorm: 0.004660165598 xtb: 6.2.2 (9d81278992624c895f80dd42a50cac0aa55982e2)
N         0.05377711568146   -1.00991280869861    0.11947296531213
C        -0.44691476224573   -0.17174768714263   -0.94940914276744
C        -0.47837763467646    0.96134087193746    0.08138492344912
C         0.02784895517345    0.02243709927732    1.05670521896054
C         0.84366732606728    0.19788252462646   -0.30815296495435
5
 energy: -10.982334290253 gnorm: 0.004865745103 xtb: 6.2.2 (9d81278992624c895f80dd42a50cac0aa55982e2)
N         0.05174779494537   -1.01042389755499    0.11659702714598
C        -0.44711589458023   -0.17050841756341   -0.94850694305749
C        -0.48288194664344    0.96081137312519    0.07899724994993
C         0.03396973749426    0.02411292231300    1.05481406558721
C         0.84428130878404    0.19600801968022   -0.30190039962563
5
 energy: -10.982412135939 gnorm: 0.015451937568 xtb: 6.2.2 (9d81278992624c895f80dd42a50cac0aa55982e2)
N         0.03746765333482   -1.01480553882679    0.09305710137022
C        -0.45090079247222   -0.15576134571996   -0.94166534659685
C        -0.52117201731653    0.95349106437194    0.05635017369079
C         0.08277236426112    0.03828608729641    1.04413101578254
C         0.85183379219280    0.17878973287841   -0.25187194424669
5
 energy: -10.982568484365 gnorm: 0.005868173641 xtb: 6.2.2 (9d81278992624c895f80dd42a50cac0aa55982e2)
N         0.04849800156095   -1.01209537775388    0.10343590472455
C        -0.45121035791090   -0.16022889547920   -0.94206357930882
C        -0.50245035736925    0.95617090086062    0.06606678272038
C         0.05486397824733    0.03150280793926    1.05071164872223
C         0.85029973547187    0.18465056443320   -0.27814975685835
5
 energy: -10.982635643800 gnorm: 0.005331930817 xtb: 6.2.2 (9d81278992624c895f80dd42a50cac0aa55982e2)
N         0.04795111907068   -1.01328561567862    0.09855172403328
C        -0.45361383872677   -0.15614242491766   -0.94012514454722
C        -0.50896710397612    0.95396782010781    0.06088946768778
C         0.06182449691189    0.03453400377792    1.05018116668446
C         0.85280632672033    0.18092621671056   -0.26949621385830
5
 energy: -10.982685769930 gnorm: 0.004228995956 xtb: 6.2.2 (9d81278992624c895f80dd42a50cac0aa55982e2)
N         0.04799862589947   -1.01670669935805    0.08786280146778
C        -0.46028318207745   -0.14849758098420   -0.93609755015098
C        -0.52041039409800    0.94952203556773    0.04990593426004
C         0.07472897376699    0.04119384200996    1.04936824258658
C         0.85796697650899    0.17448840276456   -0.25103842816343
5
 energy: -10.982708039621 gnorm: 0.002061411797 xtb: 6.2.2 (9d81278992624c895f80dd42a50cac0aa55982e2)
N         0.04941456286023   -1.01618367014558    0.09020472796710
C        -0.46006712436588   -0.15089020880508   -0.93739752093937
C        -0.51559844954588    0.95047749943746    0.05257870306741
C         0.06929988155888    0.03969858005769    1.05092276070652
C         0.85695212949265    0.17689779945551   -0.25630767080167
5
 energy: -10.982716535410 gnorm: 0.001534967516 xtb: 6.2.2 (9d81278992624c895f80dd42a50cac0aa55982e2)
N         0.05070331574542   -1.01641661777720    0.08927456135410
C        -0.46175210162608   -0.15159164879062   -0.93704483351883
C        -0.51382894781872    0.95057427013031    0.05203157427041
C         0.06784183070455    0.03983662726702    1.05137018275792
C         0.85703690299483    0.17759736917048   -0.25563048486359
5
 energy: -10.982722917243 gnorm: 0.001947454806 xtb: 6.2.2 (9d81278992624c895f80dd42a50cac0aa55982e2)
N         0.05149481383083   -1.01639052277521    0.08670796841506
C        -0.46453799820569   -0.15267749234750   -0.93677657802276
C        -0.51220806574099    0.95032978000614    0.04980023396928
C         0.06791209877176    0.04017297350871    1.05256523809470
C         0.85734015134409    0.17856526160787   -0.25229586245628
5
 energy: -10.982726503680 gnorm: 0.001270420773 xtb: 6.2.2 (9d81278992624c895f80dd42a50cac0aa55982e2)
N         0.05132467361900   -1.01608060595361    0.08584536927486
C        -0.46514135445804   -0.15302019966958   -0.93583803687145
C        -0.51205654494103    0.95061222313190    0.04856678058822
C         0.06848452947548    0.03968051094559    1.05227617796881
C         0.85738969630459    0.17880807154571   -0.25084929096043
5
 energy: -10.982729659278 gnorm: 0.000741172382 xtb: 6.2.2 (9d81278992624c895f80dd42a50cac0aa55982e2)
N         0.04974110580385   -1.01553636250254    0.08488740184208
C        -0.46553125929949   -0.15382602137492   -0.93529366030942
C        -0.51205661454428    0.95088139502381    0.04631339914266
C         0.07027551492754    0.03850879000081    1.05293877113590
C         0.85757225311238    0.17997219885283   -0.24884491181123
