[Molden Format]
[Title]
[Atoms] AU
C      1     6 -0.33196481738062E-01  0.56693957937933E+00  0.11215793591838E-01
C      2     6 -0.13692159182653E+01 -0.16611175979652E+01 -0.25651913570810E-01
C      3     6  0.15537827733520E+01 -0.14898403297890E+01 -0.32745787184904E-01
H      4     1 -0.15137226307463E+00  0.25840183483847E+01  0.47181907170471E-01
[GTO]
           1 0
 s           4   1.0000000000000000     
   51.049363095579913      -0.16312063210127389     
   8.7911227406887544      -0.19911024581000730     
  0.70640422258929825       0.31882047753655751     
  0.26922813413411617       0.12706504184240380     
 p           4   1.0000000000000000     
   5.8263656140800002       0.73716451545209605     
   1.5106896018720002       0.68216371614850257     
  0.53256483288000001       0.35783053929253711     
  0.21202323690600003        5.3983030275847881E-002

           2 0
 s           4   1.0000000000000000     
   51.049363095579913      -0.16312063210127389     
   8.7911227406887544      -0.19911024581000730     
  0.70640422258929825       0.31882047753655751     
  0.26922813413411617       0.12706504184240380     
 p           4   1.0000000000000000     
   5.8263656140800002       0.73716451545209605     
   1.5106896018720002       0.68216371614850257     
  0.53256483288000001       0.35783053929253711     
  0.21202323690600003        5.3983030275847881E-002

           3 0
 s           4   1.0000000000000000     
   51.049363095579913      -0.16312063210127389     
   8.7911227406887544      -0.19911024581000730     
  0.70640422258929825       0.31882047753655751     
  0.26922813413411617       0.12706504184240380     
 p           4   1.0000000000000000     
   5.8263656140800002       0.73716451545209605     
   1.5106896018720002       0.68216371614850257     
  0.53256483288000001       0.35783053929253711     
  0.21202323690600003        5.3983030275847881E-002

           4 0
 s           3   1.0000000000000000     
   3.3702276975336001       0.27359110588908298     
  0.61389118221497996       0.26460540653860526     
  0.16614291148415999        8.2465947534082318E-002

[MO]
Sym=     1a
Ene=  -0.68089028214307790     
Spin= Alpha
Occup=     2.00000000
           1  0.43677130718036816     
           2   1.0545473763222958E-002
           3 -0.18016155467595538     
           4  -3.4161271618352263E-003
           5  0.33851263659518427     
           6  0.13561139530805294     
           7  0.10473437092886528     
           8   1.4727502462179877E-003
           9  0.33849488809928763     
          10 -0.14690768773178925     
          11   8.8173143575415475E-002
          12   2.1582710747281141E-003
          13   7.1739321928485186E-002
Sym=     2a
Ene=  -0.58157913910500580     
Spin= Alpha
Occup=     2.00000000
           1  0.41246774286137577     
           2  -2.2031707905426870E-002
           3  0.37587772321477597     
           4   6.8410960339986056E-003
           5 -0.20589576835358223     
           6  -8.6227967002246858E-002
           7  0.12885648087719073     
           8   2.6318082937181234E-003
           9 -0.20592000720724302     
          10   7.0591457152406487E-002
          11  0.13802792138816039     
          12   2.2509000261142706E-003
          13  0.42169717390663741     
Sym=     3a
Ene=  -0.55611365331892160     
Spin= Alpha
Occup=     2.00000000
           1  -2.3177152524305071E-005
           2 -0.49525734433187507     
           3  -2.9041274716072030E-002
           4   1.2016165179107930E-003
           5  0.45701713797910110     
           6 -0.16869942869391635     
           7  0.12937986138929841     
           8   3.0075278821033551E-003
           9 -0.45700656551928986     
          10 -0.15242645870581747     
          11 -0.14821045537492047     
          12  -2.2283798912383448E-003
          13  -1.6204792942835622E-005
Sym=     4a
Ene=  -0.49274676917159055     
Spin= Alpha
Occup=     2.00000000
           1   4.1771054001008131E-004
           2   2.1126822198120642E-003
           3  -1.1184816861713687E-002
           4  0.60046249423427434     
           5  -3.0774479782772580E-004
           6   1.4262677868351237E-003
           7  -7.6926410531424653E-003
           8  0.43553085112165119     
           9  -3.0765138316259598E-004
          10   1.5886529931072200E-003
          11  -7.6827191166682490E-003
          12  0.43550862803372786     
          13  -2.8018508837952686E-004
Sym=     5a
Ene=  -0.45780682473045164     
Spin= Alpha
Occup=     2.00000000
           1  0.11372457873371819     
           2   1.7892460435884678E-002
           3 -0.30554848753385294     
           4  -6.1687787531072508E-003
           5 -0.30667751807494043     
           6  -7.1275298434504364E-002
           7  0.47262536276554362     
           8   8.5620038770025768E-003
           9 -0.30667101458438861     
          10   1.5635160958316716E-002
          11  0.47770153141564070     
          12   8.3507952594894398E-003
          13 -0.32993503797629053     
Sym=     6a
Ene=  -0.40732636599884725     
Spin= Alpha
Occup=     1.00000000
           1  -1.0770946695040615E-005
           2 -0.43893197762735991     
           3  -2.5729739364927479E-002
           4   1.0650671923585432E-003
           5 -0.38927387278371817     
           6  0.23739443991022624     
           7  0.44101428353845445     
           8   7.3903273722508538E-003
           9  0.38936690109531585     
          10  0.28736669422213268     
          11 -0.41025347599309997     
          12  -8.6636999141883921E-003
          13  -1.8571815893725846E-006
Sym=     7a
Ene=  -0.39956159455616908     
Spin= Alpha
Occup=     1.00000000
           1   1.3386338128718162E-002
           2  -1.4697499667659353E-003
           3   2.4152946407827044E-002
           4   4.5888462479149828E-004
           5 -0.36588573078949838     
           6  0.59334344950774598     
           7  -6.0904885112943750E-002
           8  -3.1910926401213335E-003
           9 -0.36581928651203227     
          10 -0.58211439538804532     
          11 -0.12989655037251391     
          12  -3.4047109277965545E-004
          13   3.1750393738300436E-002
Sym=     8a
Ene=  -0.28496446767819866     
Spin= Alpha
Occup=     0.99999989
           1   2.7476632093893222E-008
           2   1.4653921125761636E-006
           3  -5.7757705794498530E-007
           4   3.6343631295580211E-005
           5  -4.8955144006595345E-007
           6   2.6822859709950725E-003
           7  -1.4215324758527421E-002
           8  0.76209407036333721     
           9   4.8057071259766947E-007
          10  -2.6829960472447051E-003
          11   1.4216685445855083E-002
          12 -0.76216980921106259     
          13  -1.4214504154734009E-008
Sym=     9a
Ene=  -0.25459506677433391     
Spin= Alpha
Occup=     0.00000011
           1  -5.7070113202015984E-004
           2  -2.9403524739851456E-003
           3   1.5213154283642991E-002
           4 -0.84424423360141021     
           5  -3.9910734526293138E-005
           6   1.8426416064481709E-003
           7  -9.6841458369420381E-003
           8  0.53040767626290486     
           9  -3.9906262667212200E-005
          10   1.8663769581522794E-003
          11  -9.6809721781462802E-003
          12  0.53031297746260686     
          13   4.0065462273096528E-004
Sym=    10a
Ene=   -5.6614139288211233E-002
Spin= Alpha
Occup=     0.00000000
           1   4.9054881698052244E-005
           2  0.56658285653148888     
           3   3.3216913168723966E-002
           4  -1.3747810988020582E-003
           5 -0.13594199165800699     
           6 -0.63297234712531147     
           7  0.51353708879414262     
           8   1.1807313776868873E-002
           9  0.13593484615381660     
          10 -0.56868841359416933     
          11 -0.58399061218224924     
          12  -8.8916993762623887E-003
          13  -4.2909640162707822E-005
Sym=    11a
Ene=   0.10130800501715957     
Spin= Alpha
Occup=     0.00000000
           1   1.0816924609746545     
           2  -1.9439980433156666E-002
           3  0.33247937070286093     
           4   5.2695658327440624E-003
           5 -0.13489887312639673     
           6  -8.4914613935673941E-002
           7 -0.33970012192546051     
           8  -5.7800390421694674E-003
           9 -0.13502919165448363     
          10  0.12416365094174578     
          11 -0.32747323270875550     
          12  -6.2879195453686360E-003
          13 -0.97591127317219950     
Sym=    12a
Ene=   0.24969790792168975     
Spin= Alpha
Occup=     0.00000000
           1  -1.0051331578302013E-004
           2  0.74495862709308991     
           3   4.3573157043501495E-002
           4  -1.8092967427888384E-003
           5  0.64145732352236196     
           6  0.58794844353481590     
           7  0.46549567344550369     
           8   6.6142850092521842E-003
           9 -0.64146182231475224     
          10  0.63827078330705778     
          11 -0.39362127646919381     
          12  -9.5898530812726177E-003
          13   1.3583696355288922E-004
Sym=    13a
Ene=   0.63209913994049716     
Spin= Alpha
Occup=     0.00000000
           1  0.46681637285569633     
           2   7.5010112144578672E-002
           3  -1.2814940384090767     
           4  -2.3677231308754015E-002
           5 -0.47249884897896505     
           6 -0.27239170723954681     
           7 -0.50996267239752113     
           8  -8.6433354834896236E-003
           9 -0.47241189539623013     
          10  0.32998060462327816     
          11 -0.47459965401648679     
          12  -1.0103999249978807E-002
          13  0.69145568866494167     
