 Entering Gaussian System
 *********************************************
 Gaussian 98:
 frequency output generated by the xtb code
 *********************************************
                         Standard orientation:
 --------------------------------------------------------------------
  Center     Atomic     Atomic              Coordinates (Angstroms)
  Number     Number      Type              X           Y           Z
 --------------------------------------------------------------------
    1          6             0       -0.017567    0.300012    0.005935
    2          6             0       -0.724558   -0.879026   -0.013574
    3          6             0        0.822227   -0.788390   -0.017328
    4          1             0       -0.080103    1.367404    0.024968
 --------------------------------------------------------------------
     1 basis functions        1 primitive gaussians
     1 alpha electrons        1 beta electrons

 Harmonic frequencies (cm**-1), IR intensities (KM/Mole),
 Raman scattering activities (A**4/amu), Raman depolarization ratios,
 reduced masses (AMU), force constants (mDyne/A) and normal coordinates:
                      1                      2                      3
                        a                      a                      a 
 Frequencies --  -213.3373               809.9361               863.1231
 Red. masses --    12.0098                 3.8818                11.8643
 Frc consts  --     0.0000                 0.0000                 0.0000
 IR Inten    --     0.1270                 0.1349                 0.0459
 Raman Activ --     0.0000                 0.0000                 0.0000
 Depolar     --     0.0000                 0.0000                 0.0000
 Atom AN      X      Y      Z        X      Y      Z        X      Y      Z
   1   6    -0.62  -0.04   0.00    -0.00   0.01  -0.48    -0.03   0.42   0.01
   2   6     0.28   0.48   0.01    -0.00  -0.00   0.12     0.61  -0.19  -0.01
   3   6     0.34  -0.44  -0.01     0.00  -0.00   0.12    -0.58  -0.26  -0.00
   4   1    -0.01  -0.00  -0.00     0.00  -0.02   0.86    -0.00   0.12   0.00
                      4                      5                      6
                        a                      a                      a 
 Frequencies --   870.5155              1608.7848              3158.2559
 Red. masses --     2.5583                11.4347                 2.0295
 Frc consts  --     0.0000                 0.0000                 0.0000
 IR Inten    --     0.1856                 0.5014                 0.2547
 Raman Activ --     0.0000                 0.0000                 0.0000
 Depolar     --     0.0000                 0.0000                 0.0000
 Atom AN      X      Y      Z        X      Y      Z        X      Y      Z
   1   6    -0.28  -0.02   0.00    -0.04   0.64   0.01     0.02  -0.30  -0.01
   2   6     0.01  -0.18  -0.00    -0.36  -0.37  -0.01     0.02   0.01   0.00
   3   6    -0.00   0.18   0.00     0.40  -0.33  -0.01    -0.02   0.01   0.00
   4   1     0.93   0.05  -0.00    -0.01   0.23   0.00    -0.06   0.95   0.02
