      -----------------------------------------------------------      
     |                   =====================                   |     
     |                           x T B                           |     
     |                   =====================                   |     
     |                         S. Grimme                         |     
     |          Mulliken Center for Theoretical Chemistry        |     
     |                    University of Bonn                     |     
      -----------------------------------------------------------      

   * xtb version 6.2.2 (9d81278992624c895f80dd42a50cac0aa55982e2) compiled by '@Darwin' on 04/03/2020

   xtb is free software: you can redistribute it and/or modify it under
   the terms of the GNU Lesser General Public License as published by
   the Free Software Foundation, either version 3 of the License, or
   (at your option) any later version.
   
   xtb is distributed in the hope that it will be useful,
   but WITHOUT ANY WARRANTY; without even the implied warranty of
   MERCHANTABILITY or FITNESS FOR A PARTICULAR PURPOSE.  See the
   GNU Lesser General Public License for more details.
   
   Cite this work as:
   * S. Grimme, C. Bannwarth, P. Shushkov, J. Chem. Theory Comput., 2017,
     13, 1989-2009. DOI: 10.1021/acs.jctc.7b00118
   * C. Bannwarth, S. Ehlert and S. Grimme., J. Chem. Theory Comput., 2019,
     15, 1652-1671. DOI: 10.1021/acs.jctc.8b01176
   * P. Pracht, E. Caldeweyher, S. Ehlert, S. Grimme, ChemRxiv, 2019, preprint.
     DOI: 10.26434/chemrxiv.8326202.v1
   
   for DFT-D4:
   * E. Caldeweyher, C. Bannwarth and S. Grimme, J. Chem. Phys., 2017,
     147, 034112. DOI: 10.1063/1.4993215
   * E. Caldeweyher, S. Ehlert, A. Hansen, H. Neugebauer, S. Spicher,
     C. Bannwarth and S. Grimme, J. Chem. Phys., 2019, 150, 154122.
     DOI: 10.1063/1.5090222
   
   for sTDA-xTB:
   * S. Grimme and C. Bannwarth, J. Chem. Phys., 2016, 145, 054103.
     DOI: 10.1063/1.4959605
   
   in the mass-spec context:
   * V. Asgeirsson, C. Bauer and S. Grimme, Chem. Sci., 2017, 8, 4879.
     DOI: 10.1039/c7sc00601b
   
   for metadynamics refer to:
   * S. Grimme, J. Chem. Theory Comput., 2019, 155, 2847-2862
     DOI: 10.1021/acs.jctc.9b00143
   
   with help from (in alphabetical order)
   C. Bannwarth, F. Bohle, G. Brandenburg, E. Caldeweyher, M. Checinski,
   S. Dohm, S. Ehlert, S. Ehrlich, F. März, H. Neugebauer, J. Pisarek,
   P. Pracht, P. Shushkov, and S. Spicher.
   
 * started run on 2020/05/12 at 11:43:51.212     

           -------------------------------------------------
          |                Calculation Setup                |
           -------------------------------------------------

          program call               : xtb --input H1C3_0_S_3.input H1C3_0_S_3.xyz --ohess --molden --namespace H1C3_0_S_3 output.out
          calculation namespace      : H1C3_0_S_3
          coordinate file            : H1C3_0_S_3.xyz
          number of atoms            :                     4
          number of electrons        :                    13
          charge                     :                     0
          spin                       :                   1.5
          first test random number   :      0.88435490954334

   ID    Z sym.   atoms
    1    6 C      1-3
    2    1 H      4

           -------------------------------------------------
          |                 G F N 2 - x T B                 |
           -------------------------------------------------

        Reference                      10.1021/acs.jctc.8b01176
      * Hamiltonian:
        H0-scaling (s, p, d)           1.850000    2.230000    2.230000
        zeta-weighting                 0.500000
      * Dispersion:
        s8                             2.700000
        a1                             0.520000
        a2                             5.000000
        s9                             5.000000
      * Repulsion:
        kExp                           1.500000    1.000000
        rExp                           1.000000
      * Coulomb:
        alpha                          2.000000
        third order                    shell-resolved
        anisotropic                    true
        a3                             3.000000
        a5                             4.000000
        cn-shift                       1.200000
        cn-exp                         4.000000
        max-rad                        5.000000


          ...................................................
          :                      SETUP                      :
          :.................................................:
          :  # basis functions                  13          :
          :  # atomic orbitals                  13          :
          :  # shells                            7          :
          :  # electrons                        13          :
          :  max. iterations                   250          :
          :  Hamiltonian                  GFN2-xTB          :
          :  restarted?                      false          :
          :  GBSA solvation                  false          :
          :  PC potential                    false          :
          :  electronic temp.          300.0000000     K    :
          :  accuracy                    1.0000000          :
          :  -> integral cutoff          0.2500000E+02      :
          :  -> integral neglect         0.1000000E-07      :
          :  -> SCF convergence          0.1000000E-05 Eh   :
          :  -> wf. convergence          0.1000000E-03 e    :
          :  Broyden damping             0.4000000          :
          ...................................................

 iter      E             dE          RMSdq      gap      omega  full diag
   1     -6.4404290 -0.644043E+01  0.844E+00    0.62       0.0  T
   2     -6.4457705 -0.534147E-02  0.562E+00    0.49       1.0  T
   3     -6.4031333  0.426372E-01  0.431E+00    0.58       1.0  T
   4     -6.4676513 -0.645180E-01  0.833E-01    0.48       1.0  T
   5     -6.4677620 -0.110670E-03  0.810E-01    0.52       1.0  T
   6     -6.3954142  0.723478E-01  0.293E+00    0.52       1.0  T
   7     -6.4659152 -0.705010E-01  0.869E-01    0.49       1.0  T
   8     -6.4696602 -0.374498E-02  0.140E-01    0.51       1.0  T
   9     -6.4697276 -0.674081E-04  0.827E-02    0.51       1.0  T
  10     -6.4697597 -0.321257E-04  0.131E-02    0.52       3.8  T
  11     -6.4697599 -0.209934E-06  0.445E-03    0.52      11.2  T
  12     -6.4697599  0.493913E-08  0.207E-03    0.52      24.2  T
  13     -6.4697599 -0.527957E-08  0.106E-03    0.52      47.3  T
  14     -6.4697599 -0.455415E-08  0.701E-04    0.52      71.3  T
  15     -6.4697599 -0.914206E-09  0.185E-04    0.52     270.2  T

   *** convergence criteria satisfied after 15 iterations ***

         #    Occupation            Energy/Eh            Energy/eV
      -------------------------------------------------------------
         1        2.0000           -0.6699706             -18.2308
         2        2.0000           -0.6198364             -16.8666
         3        2.0000           -0.5662780             -15.4092
         4        2.0000           -0.4972533             -13.5310
         5        1.9568           -0.4646710             -12.6443
         6        1.0432           -0.4587841             -12.4842
         7        1.0000           -0.3782332             -10.2923
         8        1.0000           -0.3757556             -10.2248 (HOMO)
         9        0.0000           -0.3567733              -9.7083 (LUMO)
        10                         -0.3026154              -8.2346
        11                          0.0895381               2.4365
        12                          0.1013940               2.7591
        13                          0.1367978               3.7225
      -------------------------------------------------------------
                  HL-Gap            0.0189822 Eh            0.5165 eV
             Fermi-level           -0.4139791 Eh          -11.2649 eV

 SCC (total)                   0 d,  0 h,  0 min,  0.003 sec
 SCC setup                      ...        0 min,  0.000 sec (  2.993%)
 Dispersion                     ...        0 min,  0.000 sec (  0.422%)
 integral evaluation            ...        0 min,  0.001 sec ( 25.685%)
 zeroth order Hamiltonian       ...        0 min,  0.000 sec (  1.159%)
 iterations                     ...        0 min,  0.001 sec ( 47.187%)
 molecular gradient             ...        0 min,  0.001 sec ( 20.950%)
 printout                       ...        0 min,  0.000 sec (  1.374%)

         :::::::::::::::::::::::::::::::::::::::::::::::::::::
         ::                     SUMMARY                     ::
         :::::::::::::::::::::::::::::::::::::::::::::::::::::
         :: total energy              -6.425502416022 Eh    ::
         :: gradient norm              0.188530360560 Eh/a0 ::
         :: HOMO-LUMO gap              0.516533123687 eV    ::
         ::.................................................::
         :: SCC energy                -6.469759942592 Eh    ::
         :: -> isotropic ES           -0.020377366529 Eh    ::
         :: -> anisotropic ES         -0.000904033995 Eh    ::
         :: -> anisotropic XC          0.004611171846 Eh    ::
         :: -> dispersion             -0.001329525025 Eh    ::
         :: repulsion energy           0.044257502333 Eh    ::
         :: add. restraining           0.000000000000 Eh    ::
         :::::::::::::::::::::::::::::::::::::::::::::::::::::

      ----------------------------------------------------------- 
     |                   =====================                   |
     |                        A N C O P T                        |
     |                   =====================                   |
     |               Approximate Normal Coordinate               |
     |                Rational Function Optimizer                |
      ----------------------------------------------------------- 

          ...................................................
          :                      SETUP                      :
          :.................................................:
          :   optimization level            normal          :
          :   max. optcycles                   200          :
          :   ANC micro-cycles                  20          :
          :   degrees of freedom                 6          :
          :.................................................:
          :   RF solver                   davidson          :
          :   write xtbopt.log                true          :
          :   linear?                        false          :
          :   energy convergence         0.5000000E-05 Eh   :
          :   grad. convergence          0.1000000E-02 Eh/α :
          :   maximium RF displ.         1.0000000          :
          :   Hlow (freq-cutoff)         0.1000000E-01      :
          :   Hmax (freq-cutoff)         5.0000000          :
          :   S6 in model hess.         20.0000000          :
          ...................................................

generating ANC from model Hessian ...
Using Lindh-Hessian (1995)
 Shifting diagonal of input Hessian by    0.0000000000000000     
 Lowest  eigenvalues of input Hessian
   -0.000000   -0.000000   -0.000000   -0.000000    0.000000    0.000000
    0.066192    0.068554    0.090873    0.563562    0.968889    0.992422
 Highest eigenvalues
    0.066192    0.068554    0.090873    0.563562    0.968889    0.992422


........................................................................
.............................. CYCLE    1 ..............................
........................................................................
   1     -6.4697599 -0.646976E+01  0.133E-04    0.52       0.0  T
   2     -6.4697599  0.482059E-08  0.761E-04    0.52      65.7  T
   3     -6.4697599 -0.445612E-08  0.236E-04    0.52     212.3  T
     SCC iter.                  ...        0 min,  0.001 sec
     gradient                   ...        0 min,  0.001 sec
 * total energy  :    -6.4255024 Eh     change       -0.1898846E-09 Eh
   gradient norm :     0.1885296 Eh/α   predicted     0.0000000E+00 (-100.00%)
   displ. norm   :     0.4038403 α      lambda       -0.6047647E-01
   maximum displ.:     0.2768128 α      in ANC's #2, #4, #1, ...

........................................................................
.............................. CYCLE    2 ..............................
........................................................................
   1     -6.5470604 -0.654706E+01  0.193E+00    0.87       0.0  T
   2     -6.5473509 -0.290539E-03  0.125E+00    0.86       1.0  T
   3     -6.5464892  0.861677E-03  0.912E-01    0.86       1.0  T
   4     -6.5485489 -0.205968E-02  0.110E-01    0.85       1.0  T
   5     -6.5479750  0.573898E-03  0.254E-01    0.85       1.0  T
   6     -6.5485497 -0.574737E-03  0.347E-02    0.85       1.4  T
   7     -6.5485568 -0.709257E-05  0.369E-03    0.85      13.5  T
   8     -6.5485568 -0.941690E-08  0.130E-03    0.85      38.5  T
   9     -6.5485568 -0.839322E-09  0.792E-05    0.85     631.1  T
  10     -6.5485568 -0.659028E-12  0.403E-05    0.85    1240.6  T
     SCC iter.                  ...        0 min,  0.001 sec
     gradient                   ...        0 min,  0.000 sec
 * total energy  :    -6.4732718 Eh     change       -0.4776938E-01 Eh
   gradient norm :     0.1023629 Eh/α   predicted    -0.3516969E-01 ( -26.38%)
   displ. norm   :     0.4024331 α      lambda       -0.3515854E-01
   maximum displ.:     0.2845589 α      in ANC's #4, #2, #5, ...

........................................................................
.............................. CYCLE    3 ..............................
........................................................................
   1     -6.6226777 -0.662268E+01  0.196E+00    1.68       0.0  T
   2     -6.6240919 -0.141412E-02  0.124E+00    1.67       1.0  T
   3     -6.6243086 -0.216765E-03  0.751E-01    1.68       1.0  T
   4     -6.6250104 -0.701792E-03  0.886E-02    1.68       1.0  T
   5     -6.6250069  0.355451E-05  0.408E-02    1.68       1.2  T
   6     -6.6249603  0.465404E-04  0.854E-02    1.68       1.0  T
   7     -6.6250158 -0.554720E-04  0.562E-03    1.68       8.9  T
   8     -6.6250159 -0.118112E-06  0.771E-04    1.68      64.9  T
   9     -6.6250159  0.253921E-10  0.126E-04    1.68     396.3  T
     SCC iter.                  ...        0 min,  0.000 sec
     gradient                   ...        0 min,  0.001 sec
 * total energy  :    -6.4834627 Eh     change       -0.1019094E-01 Eh
   gradient norm :     0.1244268 Eh/α   predicted    -0.2042628E-01 ( 100.44%)
   displ. norm   :     0.3563331 α      lambda       -0.2218378E-01
   maximum displ.:     0.2845306 α      in ANC's #2, #1, #5, ...

........................................................................
.............................. CYCLE    4 ..............................
........................................................................
   1     -6.5822662 -0.658227E+01  0.123E+00    1.79       0.0  T
   2     -6.5824837 -0.217471E-03  0.788E-01    1.79       1.0  T
   3     -6.5822220  0.261730E-03  0.506E-01    1.78       1.0  T
   4     -6.5828646 -0.642619E-03  0.556E-02    1.78       1.0  T
   5     -6.5827200  0.144602E-03  0.134E-01    1.78       1.0  T
   6     -6.5828644 -0.144426E-03  0.197E-02    1.78       2.5  T
   7     -6.5828663 -0.187852E-05  0.167E-03    1.78      29.9  T
   8     -6.5828663 -0.190729E-08  0.671E-04    1.78      74.5  T
   9     -6.5828663 -0.157068E-09  0.317E-05    1.78    1578.5  T
     SCC iter.                  ...        0 min,  0.000 sec
     gradient                   ...        0 min,  0.001 sec
 * total energy  :    -6.4910519 Eh     change       -0.7589175E-02 Eh
   gradient norm :     0.0434386 Eh/α   predicted    -0.1250027E-01 (  64.71%)
   displ. norm   :     0.1447699 α      lambda       -0.4362658E-02
   maximum displ.:     0.1401710 α      in ANC's #1, #5, #4, ...

........................................................................
.............................. CYCLE    5 ..............................
........................................................................
   1     -6.5959613 -0.659596E+01  0.598E-01    2.12       0.0  T
   2     -6.5959967 -0.353439E-04  0.377E-01    2.12       1.0  T
   3     -6.5958704  0.126315E-03  0.208E-01    2.12       1.0  T
   4     -6.5960316 -0.161214E-03  0.249E-02    2.12       2.0  T
   5     -6.5960310  0.622595E-06  0.136E-02    2.12       3.7  T
   6     -6.5960291  0.190337E-05  0.203E-02    2.12       2.5  T
   7     -6.5960320 -0.292167E-05  0.106E-03    2.12      47.0  T
   8     -6.5960320 -0.194915E-08  0.317E-04    2.12     157.8  T
   9     -6.5960320 -0.413172E-10  0.118E-05    2.12    4247.8  T
     SCC iter.                  ...        0 min,  0.000 sec
     gradient                   ...        0 min,  0.000 sec
 * total energy  :    -6.4934775 Eh     change       -0.2425548E-02 Eh
   gradient norm :     0.0160596 Eh/α   predicted    -0.2227044E-02 (  -8.18%)
   displ. norm   :     0.1037044 α      lambda       -0.1110568E-02
   maximum displ.:     0.0850381 α      in ANC's #2, #4, #1, ...

........................................................................
.............................. CYCLE    6 ..............................
........................................................................
   1     -6.6004039 -0.660040E+01  0.499E-01    2.50       0.0  T
   2     -6.6004139 -0.998623E-05  0.309E-01    2.50       1.0  T
   3     -6.6003287  0.852343E-04  0.160E-01    2.50       1.0  T
   4     -6.6004297 -0.100982E-03  0.137E-02    2.50       3.7  T
   5     -6.6004226  0.710613E-05  0.311E-02    2.50       1.6  T
   6     -6.6004297 -0.713109E-05  0.544E-03    2.50       9.2  T
   7     -6.6004298 -0.986624E-07  0.744E-04    2.50      67.2  T
   8     -6.6004298 -0.441431E-09  0.240E-04    2.50     208.3  T
     SCC iter.                  ...        0 min,  0.001 sec
     gradient                   ...        0 min,  0.001 sec
 * total energy  :    -6.4942623 Eh     change       -0.7848031E-03 Eh
   gradient norm :     0.0064601 Eh/α   predicted    -0.5612570E-03 ( -28.48%)
   displ. norm   :     0.1022996 α      lambda       -0.4794011E-03
   maximum displ.:     0.0899337 α      in ANC's #2, #4, #5, ...

........................................................................
.............................. CYCLE    7 ..............................
........................................................................
   1     -6.5999806 -0.659998E+01  0.503E-01    2.88       0.0  T
   2     -6.5999820 -0.145417E-05  0.305E-01    2.88       1.0  T
   3     -6.5999654  0.165589E-04  0.657E-02    2.88       1.0  T
   4     -6.5999840 -0.185474E-04  0.971E-03    2.88       5.2  T
   5     -6.5999757  0.825059E-05  0.333E-02    2.88       1.5  T
   6     -6.5999840 -0.829492E-05  0.228E-03    2.88      21.9  T
   7     -6.5999841 -0.158829E-07  0.655E-04    2.88      76.3  T
   8     -6.5999841 -0.213594E-09  0.178E-04    2.88     280.5  T
     SCC iter.                  ...        0 min,  0.000 sec
     gradient                   ...        0 min,  0.001 sec
 * total energy  :    -6.4945658 Eh     change       -0.3034906E-03 Eh
   gradient norm :     0.0020613 Eh/α   predicted    -0.2422087E-03 ( -20.19%)
   displ. norm   :     0.0713934 α      lambda       -0.1153585E-03
   maximum displ.:     0.0637456 α      in ANC's #2, #4, #1, ...

........................................................................
.............................. CYCLE    8 ..............................
........................................................................
   1     -6.5995992 -0.659960E+01  0.420E-01    2.70       0.0  T
   2     -6.5996003 -0.102778E-05  0.256E-01    2.70       1.0  T
   3     -6.5995991  0.118712E-05  0.260E-02    2.70       1.9  T
   4     -6.5996011 -0.203311E-05  0.997E-03    2.70       5.0  T
   5     -6.5996001  0.102587E-05  0.119E-02    2.70       4.2  T
   6     -6.5996011 -0.974309E-06  0.324E-03    2.70      15.4  T
   7     -6.5996011 -0.663664E-07  0.490E-04    2.70     102.1  T
   8     -6.5996011 -0.141494E-09  0.156E-04    2.70     321.2  T
     SCC iter.                  ...        0 min,  0.000 sec
     gradient                   ...        0 min,  0.000 sec
 * total energy  :    -6.4946960 Eh     change       -0.1302393E-03 Eh
   gradient norm :     0.0039254 Eh/α   predicted    -0.5797202E-04 ( -55.49%)
   displ. norm   :     0.1108178 α      lambda       -0.2965538E-03
   maximum displ.:     0.0994861 α      in ANC's #2, #1, #4, ...

........................................................................
.............................. CYCLE    9 ..............................
........................................................................
   1     -6.5986878 -0.659869E+01  0.845E-01    2.31       0.0  T
   2     -6.5986963 -0.847046E-05  0.516E-01    2.32       1.0  T
   3     -6.5986927  0.358953E-05  0.540E-02    2.31       1.0  T
   4     -6.5987009 -0.820096E-05  0.318E-02    2.32       1.6  T
   5     -6.5987008  0.158825E-06  0.156E-02    2.32       3.2  T
   6     -6.5986988  0.196049E-05  0.221E-02    2.32       2.3  T
   7     -6.5987022 -0.343620E-05  0.112E-03    2.32      44.5  T
   8     -6.5987022 -0.196622E-08  0.267E-04    2.32     187.0  T
   9     -6.5987022 -0.841105E-11  0.122E-05    2.32    4114.7  T
     SCC iter.                  ...        0 min,  0.000 sec
     gradient                   ...        0 min,  0.001 sec
 * total energy  :    -6.4953762 Eh     change       -0.6801969E-03 Eh
   gradient norm :     0.0139296 Eh/α   predicted    -0.1500962E-03 ( -77.93%)
   displ. norm   :     0.3923486 α      lambda       -0.4272479E-02
   maximum displ.:     0.3510951 α      in ANC's #2, #1, #4, ...

........................................................................
.............................. CYCLE   10 ..............................
........................................................................
   1     -6.5997912 -0.659979E+01  0.358E+00    0.44       0.0  T
   2     -6.5998161 -0.249083E-04  0.219E+00    0.35       1.0  T
   3     -6.5947322  0.508393E-02  0.113E+00    0.66       1.0  T
   4     -6.6002773 -0.554507E-02  0.148E-01    0.44       1.0  T
   5     -6.6002866 -0.933222E-05  0.509E-02    0.42       1.0  T
   6     -6.6002552  0.314198E-04  0.101E-01    0.43       1.0  T
   7     -6.6002977 -0.425173E-04  0.397E-03    0.43      12.6  T
   8     -6.6002977 -0.576895E-08  0.109E-03    0.43      46.0  T
   9     -6.6002977 -0.148164E-08  0.289E-04    0.43     173.0  T
  10     -6.6002977 -0.826219E-10  0.355E-05    0.43    1408.1  T
     SCC iter.                  ...        0 min,  0.000 sec
     gradient                   ...        0 min,  0.001 sec
 * total energy  :    -6.5006599 Eh     change       -0.5283676E-02 Eh
   gradient norm :     0.0439424 Eh/α   predicted    -0.2465081E-02 ( -53.35%)
   displ. norm   :     0.2166945 α      lambda       -0.4781857E-02
   maximum displ.:     0.1959881 α      in ANC's #2, #4, #1, ...

........................................................................
.............................. CYCLE   11 ..............................
........................................................................
   1     -6.6033572 -0.660336E+01  0.181E+00    1.60       0.0  T
   2     -6.6034234 -0.661961E-04  0.108E+00    1.66       1.0  T
   3     -6.6025595  0.863933E-03  0.497E-01    1.52       1.0  T
   4     -6.6035403 -0.980798E-03  0.595E-02    1.62       1.0  T
   5     -6.6035406 -0.332415E-06  0.204E-02    1.62       2.5  T
   6     -6.6035404  0.172542E-06  0.983E-03    1.62       5.1  T
   7     -6.6035393  0.114894E-05  0.157E-02    1.62       3.2  T
   8     -6.6035410 -0.174398E-05  0.534E-04    1.62      93.7  T
   9     -6.6035410 -0.161338E-10  0.443E-05    1.62    1129.9  T
  10     -6.6035410 -0.289369E-11  0.180E-05    1.62    2784.9  T
     SCC iter.                  ...        0 min,  0.001 sec
     gradient                   ...        0 min,  0.001 sec
 * total energy  :    -6.4994172 Eh     change        0.1242662E-02 Eh
   gradient norm :     0.0282313 Eh/α   predicted    -0.2503196E-02 (-301.44%)
   displ. norm   :     0.1305874 α      lambda       -0.3621898E-02
   maximum displ.:     0.1042972 α      in ANC's #2, #1, #4, ...

........................................................................
.............................. CYCLE   12 ..............................
........................................................................
   1     -6.6089131 -0.660891E+01  0.121E+00    1.01       0.0  T
   2     -6.6089361 -0.229691E-04  0.736E-01    0.95       1.0  T
   3     -6.6082210  0.715089E-03  0.477E-01    1.08       1.0  T
   4     -6.6090564 -0.835377E-03  0.474E-02    0.99       1.1  T
   5     -6.6090572 -0.791318E-06  0.848E-03    0.99       5.9  T
   6     -6.6090560  0.114435E-05  0.149E-02    0.99       3.4  T
   7     -6.6090573 -0.124855E-05  0.361E-03    0.99      13.9  T
   8     -6.6090573 -0.537832E-07  0.284E-04    0.99     175.9  T
   9     -6.6090573 -0.198774E-11  0.420E-05    0.99    1191.2  T
     SCC iter.                  ...        0 min,  0.001 sec
     gradient                   ...        0 min,  0.000 sec
 * total energy  :    -6.5020603 Eh     change       -0.2643090E-02 Eh
   gradient norm :     0.0089545 Eh/α   predicted    -0.1841831E-02 ( -30.32%)
   displ. norm   :     0.0546658 α      lambda       -0.4479357E-03
   maximum displ.:     0.0418076 α      in ANC's #2, #1, #4, ...

........................................................................
.............................. CYCLE   13 ..............................
........................................................................
   1     -6.6082065 -0.660821E+01  0.430E-01    0.70       0.0  T
   2     -6.6082086 -0.207614E-05  0.253E-01    0.68       1.0  T
   3     -6.6081245  0.840715E-04  0.157E-01    0.72       1.0  T
   4     -6.6082211 -0.965219E-04  0.120E-02    0.69       4.2  T
   5     -6.6082211 -0.300317E-07  0.396E-03    0.69      12.6  T
   6     -6.6082207  0.378606E-06  0.887E-03    0.69       5.6  T
   7     -6.6082211 -0.386625E-06  0.107E-03    0.69      46.7  T
   8     -6.6082211 -0.379183E-08  0.105E-04    0.69     478.4  T
   9     -6.6082211 -0.267342E-12  0.520E-06    0.69    9606.9  T
     SCC iter.                  ...        0 min,  0.000 sec
     gradient                   ...        0 min,  0.001 sec
 * total energy  :    -6.5021118 Eh     change       -0.5154408E-04 Eh
   gradient norm :     0.0087480 Eh/α   predicted    -0.2246363E-03 ( 335.81%)
   displ. norm   :     0.0245671 α      lambda       -0.2009119E-03
   maximum displ.:     0.0205265 α      in ANC's #2, #1, #4, ...

........................................................................
.............................. CYCLE   14 ..............................
........................................................................
   1     -6.6075754 -0.660758E+01  0.207E-01    0.83       0.0  T
   2     -6.6075762 -0.819760E-06  0.123E-01    0.84       1.0  T
   3     -6.6075541  0.220935E-04  0.871E-02    0.82       1.0  T
   4     -6.6075809 -0.268246E-04  0.725E-03    0.83       6.9  T
   5     -6.6075809  0.340679E-08  0.274E-03    0.83      18.3  T
   6     -6.6075807  0.179470E-06  0.604E-03    0.83       8.3  T
   7     -6.6075809 -0.195104E-06  0.287E-04    0.83     174.2  T
   8     -6.6075809 -0.170012E-09  0.525E-05    0.83     951.6  T
     SCC iter.                  ...        0 min,  0.000 sec
     gradient                   ...        0 min,  0.000 sec
 * total energy  :    -6.5022057 Eh     change       -0.9385128E-04 Eh
   gradient norm :     0.0014198 Eh/α   predicted    -0.1005152E-03 (   7.10%)
   displ. norm   :     0.0050277 α      lambda       -0.3242636E-05
   maximum displ.:     0.0036923 α      in ANC's #1, #5, #4, ...

........................................................................
.............................. CYCLE   15 ..............................
........................................................................
   1     -6.6078414 -0.660784E+01  0.231E-02    0.83       0.0  T
   2     -6.6078414 -0.170327E-07  0.136E-02    0.83       3.7  T
   3     -6.6078412  0.240114E-06  0.117E-02    0.83       4.3  T
   4     -6.6078415 -0.363304E-06  0.128E-03    0.83      39.2  T
   5     -6.6078415  0.383267E-09  0.430E-04    0.83     116.4  T
   6     -6.6078415  0.199235E-08  0.716E-04    0.83      69.8  T
     SCC iter.                  ...        0 min,  0.000 sec
     gradient                   ...        0 min,  0.001 sec
 * total energy  :    -6.5022070 Eh     change       -0.1311243E-05 Eh
   gradient norm :     0.0011234 Eh/α   predicted    -0.1621246E-05 (  23.64%)
   displ. norm   :     0.0013903 α      lambda       -0.7688656E-06
   maximum displ.:     0.0008968 α      in ANC's #5, #4, #1, ...

........................................................................
.............................. CYCLE   16 ..............................
........................................................................
   1     -6.6076667 -0.660767E+01  0.738E-03    0.83       0.0  T
   2     -6.6076667  0.940034E-08  0.454E-03    0.83      11.0  T
   3     -6.6076664  0.231349E-06  0.763E-03    0.83       6.6  T
   4     -6.6076666 -0.132217E-06  0.537E-03    0.83       9.3  T
   5     -6.6076667 -0.135511E-06  0.587E-04    0.83      85.1  T
   6     -6.6076667 -0.649605E-10  0.145E-04    0.83     344.5  T
     SCC iter.                  ...        0 min,  0.000 sec
     gradient                   ...        0 min,  0.001 sec
 * total energy  :    -6.5022074 Eh     change       -0.4202389E-06 Eh
   gradient norm :     0.0002788 Eh/α   predicted    -0.3849084E-06 (  -8.41%)
   displ. norm   :     0.0012803 α      lambda       -0.1154997E-06
   maximum displ.:     0.0011003 α      in ANC's #1, #4, #2, ...

   *** GEOMETRY OPTIMIZATION CONVERGED AFTER 16 ITERATIONS ***

------------------------------------------------------------------------
 total energy gain   :        -0.0767050 Eh      -48.1331 kcal/mol
 total RMSD          :         0.8137443 a0        0.4306 Å
 total power (kW/mol):       -12.5868096 (step)-7265.3704 (real)
------------------------------------------------------------------------

 ANCopt (total)                0 d,  0 h,  0 min,  0.028 sec
 optimizer setup                ...        0 min,  0.000 sec (  0.267%)
 model hessian                  ...        0 min,  0.000 sec (  0.295%)
 ANC generation                 ...        0 min,  0.000 sec (  0.140%)
 coordinate transformation      ...        0 min,  0.000 sec (  0.093%)
 single point calculation       ...        0 min,  0.026 sec ( 94.968%)
 optimization log               ...        0 min,  0.000 sec (  1.152%)
 hessian update                 ...        0 min,  0.000 sec (  0.089%)
 rational function              ...        0 min,  0.000 sec (  1.115%)

================
 final structure:
================
4
 xtb: 6.2.2 (9d81278992624c895f80dd42a50cac0aa55982e2)
C        -0.01756841482171    0.30001143085859    0.00593560521509
C        -0.72455327801045   -0.87902942909581   -0.01357847270110
C         0.82223069910704   -0.78838528813665   -0.01732683180451
H        -0.08011000627488    1.36740328637387    0.02496969929051

 Bond Distances (Angstroems)
 ---------------------------
C1-C2=1.3749         C1-C3=1.3749         C1-H4=1.0694         C2-C1=1.3749         C2-C3=1.5494         C3-C1=1.3749         
C3-C2=1.5494         H4-C1=1.0694         
 C  H  Rav=1.0694 sigma=0.0000  Rmin=1.0694  Rmax=1.0694     1
 C  C  Rav=1.4331 sigma=0.0823  Rmin=1.3749  Rmax=1.5494     3

 selected bond angles (degree)
 --------------------
C3-C1-C2= 68.59                H4-C1-C2=145.70                H4-C1-C3=145.71                C3-C2-C1= 55.70                
C2-C3-C1= 55.70                

 selected dihedral angles (degree)
 ---------------------------------
C3-C2-C1-H4=179.90            C2-C3-C1-H4=180.10            
           -------------------------------------------------
          |                Final Singlepoint                |
           -------------------------------------------------

          ...................................................
          :                      SETUP                      :
          :.................................................:
          :  # basis functions                  13          :
          :  # atomic orbitals                  13          :
          :  # shells                            7          :
          :  # electrons                        13          :
          :  max. iterations                   250          :
          :  Hamiltonian                  GFN2-xTB          :
          :  restarted?                      false          :
          :  GBSA solvation                  false          :
          :  PC potential                    false          :
          :  electronic temp.          300.0000000     K    :
          :  accuracy                    1.0000000          :
          :  -> integral cutoff          0.2500000E+02      :
          :  -> integral neglect         0.1000000E-07      :
          :  -> SCF convergence          0.1000000E-05 Eh   :
          :  -> wf. convergence          0.1000000E-03 e    :
          :  Broyden damping             0.4000000          :
          ...................................................

 iter      E             dE          RMSdq      gap      omega  full diag
   1     -6.6076667 -0.660767E+01  0.179E-05    0.83       0.0  T
   2     -6.6076667  0.826894E-12  0.171E-05    0.83    2916.5  T
   3     -6.6076667  0.175682E-11  0.230E-05    0.83    2178.3  T

   *** convergence criteria satisfied after 3 iterations ***

         #    Occupation            Energy/Eh            Energy/eV
      -------------------------------------------------------------
         1        2.0000           -0.6808903             -18.5280
         2        2.0000           -0.5815791             -15.8256
         3        2.0000           -0.5561136             -15.1326
         4        2.0000           -0.4927468             -13.4083
         5        2.0000           -0.4578068             -12.4576
         6        1.0000           -0.4073264             -11.0839
         7        1.0000           -0.3995616             -10.8726
         8        1.0000           -0.2849645              -7.7543 (HOMO)
         9        0.0000           -0.2545951              -6.9279 (LUMO)
        10                         -0.0566141              -1.5405
        11                          0.1013080               2.7567
        12                          0.2496979               6.7946
        13                          0.6320992              17.2003
      -------------------------------------------------------------
                  HL-Gap            0.0303694 Eh            0.8264 eV
             Fermi-level           -0.3511732 Eh           -9.5559 eV

 SCC (total)                   0 d,  0 h,  0 min,  0.003 sec
 SCC setup                      ...        0 min,  0.000 sec (  3.136%)
 Dispersion                     ...        0 min,  0.000 sec (  0.228%)
 integral evaluation            ...        0 min,  0.001 sec ( 33.115%)
 zeroth order Hamiltonian       ...        0 min,  0.000 sec (  0.301%)
 iterations                     ...        0 min,  0.000 sec ( 12.053%)
 molecular gradient             ...        0 min,  0.001 sec ( 47.812%)
 printout                       ...        0 min,  0.000 sec (  2.945%)

         :::::::::::::::::::::::::::::::::::::::::::::::::::::
         ::                     SUMMARY                     ::
         :::::::::::::::::::::::::::::::::::::::::::::::::::::
         :: total energy              -6.502207415955 Eh    ::
         :: gradient norm              0.000288931571 Eh/a0 ::
         :: HOMO-LUMO gap              0.826393508884 eV    ::
         ::.................................................::
         :: SCC energy                -6.607666698887 Eh    ::
         :: -> isotropic ES           -0.001686813920 Eh    ::
         :: -> anisotropic ES         -0.000157160962 Eh    ::
         :: -> anisotropic XC          0.003945820901 Eh    ::
         :: -> dispersion             -0.001252810927 Eh    ::
         :: repulsion energy           0.105459275478 Eh    ::
         :: add. restraining           0.000000000000 Eh    ::
         :::::::::::::::::::::::::::::::::::::::::::::::::::::

           ------------------------------------------------- 
          |                Numerical Hessian                |
           ------------------------------------------------- 
step length          :   0.00500
SCC accuracy         :   0.30000
Hessian scale factor :   1.00000
frozen atoms in %    :   0.00000    0
RMS gradient         :   0.00029
estimated CPU  time      0.00 min
estimated wall time      0.00 min

writing file <hessian>.

 projected vibrational frequencies (cm-1)
eigval :       -0.00    -0.00    -0.00    -0.00     0.00     0.00
eigval :     -213.34   809.94   863.12   870.52  1608.78  3158.26
           -------------------------------------------------
          |                Property Printout                |
           -------------------------------------------------

    * Orbital Energies and Occupations

         #    Occupation            Energy/Eh            Energy/eV
      -------------------------------------------------------------
         1        2.0000           -0.6808903             -18.5280
         2        2.0000           -0.5815791             -15.8256
         3        2.0000           -0.5561137             -15.1326
         4        2.0000           -0.4927468             -13.4083
         5        2.0000           -0.4578068             -12.4576
         6        1.0000           -0.4073264             -11.0839
         7        1.0000           -0.3995616             -10.8726
         8        1.0000           -0.2849645              -7.7543 (HOMO)
         9        0.0000           -0.2545951              -6.9279 (LUMO)
        10                         -0.0566141              -1.5405
        11                          0.1013080               2.7567
        12                          0.2496979               6.7946
        13                          0.6320991              17.2003
      -------------------------------------------------------------
                  HL-Gap            0.0303694 Eh            0.8264 eV
             Fermi-level           -0.3511733 Eh           -9.5559 eV

     #   Z        covCN         q      C6AA      α(0)
     1   6 C      2.887     0.065    26.547     8.447
     2   6 C      1.953    -0.066    32.877     9.260
     3   6 C      1.953    -0.066    32.877     9.260
     4   1 H      0.927     0.068     2.109     2.271

 Mol. C6AA /au·bohr⁶  :        326.545827
 Mol. C8AA /au·bohr⁸  :       8915.691125
 Mol. α(0) /au        :         29.237291


Wiberg/Mayer (AO) data.
largest (>0.10) Wiberg bond orders for each atom
          total WBO             WBO to atom ...
     1  C   3.749        C    2 1.397    C    3 1.397    H    4 0.955
     2  C   2.228        C    1 1.397    C    3 0.811
     3  C   2.228        C    1 1.397    C    2 0.811
     4  H   0.994        C    1 0.955

MOs/occ written to file <molden.input>


molecular dipole:
                 x           y           z       tot (Debye)
 q only:       -0.025       0.421       0.008
   full:       -0.046       0.788       0.014       2.007
molecular quadrupole (traceless):
                xx          xy          yy          xz          yz          zz
 q only:       -0.355      -0.038       0.285       0.001       0.004       0.070
  q+dip:       -0.360      -0.080       0.999      -0.002       0.030      -0.639
   full:       -0.177      -0.001      -0.152       0.002      -0.009       0.329

           -------------------------------------------------
          |                Geometry Summary                 |
           -------------------------------------------------

      molecular mass/u    :       37.0401484
   center of mass at/Å    :        0.0237942      -0.4061880      -0.0074166
  moments of inertia/u·Å² :        0.1360229E+02   0.1441751E+02   0.2801980E+02
rotational constants/cm⁻¹ :        0.1239323E+01   0.1169247E+01   0.6016328E+00

 * 1 selected distances

     #   Z        #   Z                                     value/Å
     1   6 C      4   1 H                                 1.0693919 (max)

 * 1 distinct bonds (by element types)

   Z      Z             #   av. dist./Å        max./Å        min./Å
   1 H    6 C           1     1.0693919     1.0693919     1.0693919

           -------------------------------------------------
          |               Frequency Printout                |
           -------------------------------------------------
Molecule has the following symmetry elements: (C2) 2*(sigma) 
It seems to be the C2v point group
 projected vibrational frequencies (cm-1)
eigval :       -0.00    -0.00    -0.00    -0.00     0.00     0.00
eigval :     -213.34   809.94   863.12   870.52  1608.78  3158.26
 reduced masses (amu)
   1:  9.45   2: 11.79   3: 11.81   4: 11.66   5: 11.09   6: 11.55   7: 12.01   8:  3.88
   9: 11.86  10:  2.56  11: 11.43  12:  2.03
 IR intensities (amu)
   1:  0.17   2:  0.13   3:  0.04   4:  0.09   5:  0.04   6:  0.04   7:  0.13   8:  0.13
   9:  0.05  10:  0.19  11:  0.50  12:  0.25
 Raman intensities (amu)
   1:  0.00   2:  0.00   3:  0.00   4:  0.00   5:  0.00   6:  0.00   7:  0.00   8:  0.00
   9:  0.00  10:  0.00  11:  0.00  12:  0.00
 output can be read by thermo (or use thermo option).
 writing <g98.out> molden fake output.
 recommended (thermochemical) frequency scaling factor: 1.0
           -------------------------------------------------
          |             Thermodynamic Functions             |
           -------------------------------------------------

c2v symmetry found (for desy threshold:  0.10E+00) used in thermo

          ...................................................
          :                      SETUP                      :
          :.................................................:
          :  # frequencies                           5      :
          :  # imaginary freq.                       1      :
          :  linear?                             false      :
          :  only rotor calc.                    false      :
          :  symmetry                              c2v      :
          :  rotational number                       2      :
          :  scaling factor                  1.0000000      :
          :  rotor cutoff                   50.0000000 cm⁻¹ :
          :  imag. cutoff                  -20.0000000 cm⁻¹ :
          :.................................................:

    mode    ω/cm⁻¹     T·S(HO)/kcal·mol⁻¹    T·S(FR)/kcal·mol⁻¹   T·S(vib)
   ------------------------------------------------------------------------
   ------------------------------------------------------------------------

   temp. (K)  partition function   enthalpy   heat capacity  entropy
                                   cal/mol     cal/K/mol   cal/K/mol   J/K/mol
 298.15  VIB   1.05                  126.173      1.779      0.525
         ROT  0.283E+04              888.752      2.981     18.777
         INT  0.298E+04             1014.925      4.760     19.302
         TR   0.218E+27             1481.254      4.968     36.741
         TOT                        2496.1791     9.7285    56.0430   234.4839

   temp. (K)  partition function   enthalpy   heat capacity  entropy
                                   cal/mol     cal/K/mol   cal/K/mol   J/K/mol
 120.00  VIB   1.00                    0.292      0.025      0.003
         ROT   723.                  357.707      2.981     16.064
         INT   723.                  357.999      3.005     16.066
         TR   0.557E+26              596.178      4.968     32.222
         TOT                         954.1772     7.9736    48.2880   202.0369

   temp. (K)  partition function   enthalpy   heat capacity  entropy
                                   cal/mol     cal/K/mol   cal/K/mol   J/K/mol
 100.00  VIB   1.00                    0.039      0.005      0.000
         ROT   550.                  298.089      2.981     15.520
         INT   550.                  298.128      2.986     15.521
         TR   0.424E+26              496.815      4.968     31.316
         TOT                         794.9432     7.9538    46.8369   195.9655

   temp. (K)  partition function   enthalpy   heat capacity  entropy
                                   cal/mol     cal/K/mol   cal/K/mol   J/K/mol
  80.00  VIB   1.00                    0.002      0.000      0.000
         ROT   394.                  238.471      2.981     14.855
         INT   394.                  238.473      2.981     14.855
         TR   0.303E+26              397.452      4.968     30.208
         TOT                         635.9251     7.9494    45.0632   188.5446

   temp. (K)  partition function   enthalpy   heat capacity  entropy
                                   cal/mol     cal/K/mol   cal/K/mol   J/K/mol
  60.00  VIB   1.00                    0.000      0.000     -0.000
         ROT   256.                  178.853      2.981     13.998
         INT   256.                  178.853      2.981     13.997
         TR   0.197E+26              298.089      4.968     28.780
         TOT                         476.9424     7.9490    42.7771   178.9794

   temp. (K)  partition function   enthalpy   heat capacity  entropy
                                   cal/mol     cal/K/mol   cal/K/mol   J/K/mol
  40.00  VIB   1.00                    0.000      0.000     -0.000
         ROT   139.                  119.236      2.981     12.789
         INT   139.                  119.236      2.981     12.789
         TR   0.107E+26              198.726      4.968     26.766
         TOT                         317.9616     7.9490    39.5550   165.4982

   temp. (K)  partition function   enthalpy   heat capacity  entropy
                                   cal/mol     cal/K/mol   cal/K/mol   J/K/mol
  20.00  VIB   1.00                    0.000      0.000     -0.000
         ROT   49.2                   59.618      2.981     10.723
         INT   49.2                   59.618      2.981     10.723
         TR   0.379E+25               99.363      4.968     23.324
         TOT                         158.9808     7.9490    34.0468   142.4519

   temp. (K)  partition function   enthalpy   heat capacity  entropy
                                   cal/mol     cal/K/mol   cal/K/mol   J/K/mol
  10.00  VIB   1.00                    0.000      0.000     -0.000
         ROT   17.4                   29.809      2.981      8.656
         INT   17.4                   29.809      2.981      8.656
         TR   0.134E+25               49.681      4.968     19.882
         TOT                          79.4904     7.9490    28.5386   119.4056

       T/K    H(0)-H(T)+PV         H(T)/Eh          T*S/Eh         G(T)/Eh
   ------------------------------------------------------------------------
    298.15    0.397791E-02    0.206327E-01    0.266278E-01   -0.599512E-02
    120.00    0.152058E-02    0.181754E-01    0.923421E-02    0.894117E-02
    100.00    0.126682E-02    0.179216E-01    0.746393E-02    0.104577E-01
     80.00    0.101341E-02    0.176682E-01    0.574503E-02    0.119232E-01
     60.00    0.760056E-03    0.174149E-01    0.409018E-02    0.133247E-01
     40.00    0.506704E-03    0.171615E-01    0.252140E-02    0.146401E-01
     20.00    0.253352E-03    0.169082E-01    0.108514E-02    0.158230E-01
     10.00    0.126676E-03    0.167815E-01    0.454792E-03    0.163267E-01 (used)
   ------------------------------------------------------------------------

         :::::::::::::::::::::::::::::::::::::::::::::::::::::
         ::                  THERMODYNAMIC                  ::
         :::::::::::::::::::::::::::::::::::::::::::::::::::::
         :: total free energy          -6.485880724351 Eh   ::
         ::.................................................::
         :: total energy               -6.502207415959 Eh   ::
         :: zero point energy           0.016654807357 Eh   ::
         :: G(RRHO) w/o ZPVE           -0.000328115748 Eh   ::
         :: G(RRHO) contrib.            0.016326691608 Eh   ::
         :::::::::::::::::::::::::::::::::::::::::::::::::::::
imag cut-off (cm-1) :    5.00
 found            1  significant imaginary frequency
 writing imag mode distorted coords to xtbhess.xyz
 for further optimization.

optimized geometry written to: xtbopt.xyz


           -------------------------------------------------
          | TOTAL ENERGY               -6.502207415959 Eh   |
          | TOTAL ENTHALPY             -6.485425932587 Eh   |
          | TOTAL FREE ENERGY          -6.485880724351 Eh   |
          | GRADIENT NORM               0.000288924865 Eh/α |
          | HOMO-LUMO GAP               0.826393461733 eV   |
           -------------------------------------------------

------------------------------------------------------------------------
 * finished run on 2020/05/12 at 11:43:51.301     
------------------------------------------------------------------------
 total:
 * wall-time:     0 d,  0 h,  0 min,  0.088 sec
 *  cpu-time:     0 d,  0 h,  0 min,  0.087 sec
 * ratio c/w:     0.988 speedup
 SCF:
 * wall-time:     0 d,  0 h,  0 min,  0.003 sec
 *  cpu-time:     0 d,  0 h,  0 min,  0.003 sec
 * ratio c/w:     1.000 speedup
 ANC optimizer:
 * wall-time:     0 d,  0 h,  0 min,  0.031 sec
 *  cpu-time:     0 d,  0 h,  0 min,  0.031 sec
 * ratio c/w:     0.990 speedup
 numerical hessian:
 * wall-time:     0 d,  0 h,  0 min,  0.036 sec
 *  cpu-time:     0 d,  0 h,  0 min,  0.036 sec
 * ratio c/w:     0.992 speedup

