$hessian                                                                        
        0.0214288537  -0.0545201510  -0.0006140927   0.0146964614   0.0422878986
        0.0006077973  -0.0095673340  -0.0050981787  -0.0001546159  -0.0265579810
        0.0173304312   0.0001609113
       -0.0545201510   0.9500497741   0.0162712732  -0.2112073285  -0.3256048275
       -0.0050143795   0.2482933992  -0.3012896739  -0.0061760982   0.0174340804
       -0.3231552728  -0.0050807954
       -0.0006140927   0.0162712732   0.0699819886  -0.0041656760  -0.0060549554
       -0.0169933244   0.0044944782  -0.0050929061  -0.0170067428   0.0002852904
       -0.0051234117  -0.0359819215
        0.0146964614  -0.2112073285  -0.0041656760   0.2788463404   0.1172760308
        0.0012502284  -0.2946839921   0.0908420953   0.0027740925   0.0011411904
        0.0030892024   0.0001413550
        0.0422878986  -0.3256048275  -0.0060549554   0.1172760308   0.1840086307
        0.0029643594  -0.1437850148   0.1555175082   0.0033753455  -0.0157789145
       -0.0139213115  -0.0002847495
        0.0006077973  -0.0050143795  -0.0169933244   0.0012502284   0.0029643594
        0.0041476135  -0.0016044899   0.0024665236   0.0041489883  -0.0002535358
       -0.0004165035   0.0086967225
       -0.0095673340   0.2482933992   0.0044944782  -0.2946839921  -0.1437850148
       -0.0016044899   0.3047820925  -0.1031093531  -0.0029549368  -0.0005307663
       -0.0013990312   0.0000649485
       -0.0050981787  -0.3012896739  -0.0050929061   0.0908420953   0.1555175082
        0.0024665236  -0.1031093531   0.1581677115   0.0031750637   0.0173654364
       -0.0123955458  -0.0005486812
       -0.0001546159  -0.0061760982  -0.0170067428   0.0027740925   0.0033753455
        0.0041489883  -0.0029549368   0.0031750637   0.0041651923   0.0003354602
       -0.0003743110   0.0086925621
       -0.0265579810   0.0174340804   0.0002852904   0.0011411904  -0.0157789145
       -0.0002535358  -0.0005307663   0.0173654364   0.0003354602   0.0259475570
       -0.0190206023  -0.0003672148
        0.0173304312  -0.3231552728  -0.0051234117   0.0030892024  -0.0139213115
       -0.0004165035  -0.0013990312  -0.0123955458  -0.0003743110  -0.0190206023
        0.3494721301   0.0059142262
        0.0001609113  -0.0050807954  -0.0359819215   0.0001413550  -0.0002847495
        0.0086967225   0.0000649485  -0.0005486812   0.0086925621  -0.0003672148
        0.0059142262   0.0185926368
