4
 energy: -6.425502416212 gnorm: 0.188529607393 xtb: 6.2.2 (9d81278992624c895f80dd42a50cac0aa55982e2)
C        -0.00694200000000    0.13216700000000    0.33236900000000
C        -1.19727900000000   -0.70333700000000   -0.08861300000000
C         1.27080900000000   -0.55866600000000   -0.09459700000000
H        -0.06658900000000    1.12983600000000   -0.14915900000000
4
 energy: -6.473271792787 gnorm: 0.102429824768 xtb: 6.2.2 (9d81278992624c895f80dd42a50cac0aa55982e2)
C        -0.00650225817065    0.11892936393824    0.19398258909788
C        -1.10799063757605   -0.72045378663735   -0.04708403853634
C         1.18433550077156   -0.58608734339332   -0.05264213703591
H        -0.06984360502487    1.18761176609242   -0.09425641352564
4
 energy: -6.483462734143 gnorm: 0.125644738965 xtb: 6.2.2 (9d81278992624c895f80dd42a50cac0aa55982e2)
C        -0.00666814192581    0.11823270853976    0.10869040206722
C        -0.97570421255191   -0.72428235471686   -0.02276779464441
C         1.05352008834723   -0.60533643025347   -0.02768805263475
H        -0.07114873386951    1.21138607643057   -0.05823455478806
4
 energy: -6.491051909016 gnorm: 0.043545443457 xtb: 6.2.2 (9d81278992624c895f80dd42a50cac0aa55982e2)
C        -0.00949274492184    0.16234637324467    0.00995343649675
C        -0.97591687787893   -0.79611038385429    0.00152193635231
C         1.06223926315091   -0.67663977819960   -0.00341984386269
H        -0.07683064035014    1.31040378880921   -0.00805552898637
4
 energy: -6.493477457487 gnorm: 0.016060491799 xtb: 6.2.2 (9d81278992624c895f80dd42a50cac0aa55982e2)
C        -0.01073593385729    0.18525294626268    0.05090476369811
C        -0.94480804132785   -0.78941140535828   -0.01344639579615
C         1.03048892927244   -0.67362566144117   -0.01823566059899
H        -0.07494595408730    1.27778412053676   -0.01922270730297
4
 energy: -6.494262260626 gnorm: 0.006494218077 xtb: 6.2.2 (9d81278992624c895f80dd42a50cac0aa55982e2)
C        -0.01171041028173    0.20097072653018    0.02886473079118
C        -0.91459360910157   -0.79914550745620   -0.00904862406058
C         1.00164011051092   -0.68682185181373   -0.01369459320760
H        -0.07533709112762    1.28499663273975   -0.00612151352300
4
 energy: -6.494565751209 gnorm: 0.002062677954 xtb: 6.2.2 (9d81278992624c895f80dd42a50cac0aa55982e2)
C        -0.01272244856234    0.21724561118047    0.00483006591146
C        -0.88831275816448   -0.81176306058123   -0.00406561948327
C         0.97703827971193   -0.70242282909607   -0.00858812554338
H        -0.07600407298511    1.29694027849683    0.00782367911518
4
 energy: -6.494695990530 gnorm: 0.003931312671 xtb: 6.2.2 (9d81278992624c895f80dd42a50cac0aa55982e2)
C        -0.01348628195745    0.22989265440067   -0.00439795111937
C        -0.86718026077709   -0.82101672317610   -0.00288859179853
C         0.95713741489476   -0.71408143979722   -0.00731167156463
H        -0.07647187216022    1.30520550857265    0.01459821448253
4
 energy: -6.495376187396 gnorm: 0.013930592496 xtb: 6.2.2 (9d81278992624c895f80dd42a50cac0aa55982e2)
C        -0.01466355859305    0.24962825199122   -0.01284034660253
C        -0.83369760514551   -0.83621078547795   -0.00271531019854
C         0.92566065591267   -0.73308351761336   -0.00698087578343
H        -0.07730049217411    1.31966605110009    0.02253653258450
4
 energy: -6.500659863335 gnorm: 0.045345146442 xtb: 6.2.2 (9d81278992624c895f80dd42a50cac0aa55982e2)
C        -0.01887868113164    0.32022756599876   -0.04454430839915
C        -0.71507755080147   -0.88943385056365   -0.00170592246263
C         0.81407739160362   -0.79980041384473   -0.00541334312246
H        -0.08012215967050    1.36900669840962    0.05166357398424
4
 energy: -6.499417201327 gnorm: 0.028335297341 xtb: 6.2.2 (9d81278992624c895f80dd42a50cac0aa55982e2)
C        -0.01625911698324    0.27686393165680   -0.01243291647120
C        -0.77488460579096   -0.85879957649481   -0.00584554220090
C         0.86987509531966   -0.76238966237329   -0.00983328766565
H        -0.07873237254547    1.34432530721130    0.02811174633774
4
 energy: -6.502060290857 gnorm: 0.009103903904 xtb: 6.2.2 (9d81278992624c895f80dd42a50cac0aa55982e2)
C        -0.01731173621093    0.29509593626803   -0.00578453980006
C        -0.73209059236310   -0.87359774716321   -0.00975946191735
C         0.82908473994713   -0.78208738567643   -0.01354456005563
H        -0.07968341137310    1.36058919657161    0.02908856177304
4
 energy: -6.502111834939 gnorm: 0.008817319523 xtb: 6.2.2 (9d81278992624c895f80dd42a50cac0aa55982e2)
C        -0.01782688053251    0.30423405184935    0.00273574386832
C        -0.71710996804795   -0.88165410071654   -0.01316669141831
C         0.81513156560512   -0.79183950830109   -0.01688169852746
H        -0.08019571702465    1.36925955716827    0.02731264607744
4
 energy: -6.502205686217 gnorm: 0.001443364445 xtb: 6.2.2 (9d81278992624c895f80dd42a50cac0aa55982e2)
C        -0.01758517828407    0.30014638710037    0.00361174026482
C        -0.72511534466997   -0.87885623570940   -0.01294340890823
C         0.82275618530105   -0.78812539271529   -0.01669632355947
H        -0.08005666234700    1.36683524132432    0.02602799220288
4
 energy: -6.502206997460 gnorm: 0.001151873999 xtb: 6.2.2 (9d81278992624c895f80dd42a50cac0aa55982e2)
C        -0.01755086927242    0.29963865361060    0.00550978609626
C        -0.72435290530881   -0.87896223420860   -0.01340860010957
C         0.82200907353282   -0.78831978453963   -0.01715787673072
H        -0.08010629895159    1.36764336513762    0.02505669074403
4
 energy: -6.502207417699 gnorm: 0.000289115854 xtb: 6.2.2 (9d81278992624c895f80dd42a50cac0aa55982e2)
C        -0.01756841482171    0.30001143085859    0.00593560521509
C        -0.72455327801045   -0.87902942909581   -0.01357847270110
C         0.82223069910704   -0.78838528813665   -0.01732683180451
H        -0.08011000627488    1.36740328637387    0.02496969929051
