4
 energy: -6.502207415955 gnorm: 0.000288931571 xtb: 6.2.2 (9d81278992624c895f80dd42a50cac0aa55982e2)
C        -0.01756682324779    0.30001153320151    0.00593514292165
C        -0.72455792797601   -0.87902565902899   -0.01357440933716
C         0.82222651063764   -0.78838962355523   -0.01732832593905
H        -0.08010275941383    1.36740374938795    0.02496759235804
