5
 energy: -9.390343036764 gnorm: 0.333820246324 xtb: 6.2.2 (9d81278992624c895f80dd42a50cac0aa55982e2)
C        -1.18997500000000    0.02458800000000   -0.45980600000000
C        -0.10955800000000    0.92298100000000    0.11639800000000
C         1.08246900000000    0.10321500000000    0.58007800000000
N         1.81170000000000   -0.40868400000000   -0.56736700000000
H        -1.59463600000000   -0.64209900000000    0.33069700000000
5
 energy: -9.499934941473 gnorm: 0.218153120900 xtb: 6.2.2 (9d81278992624c895f80dd42a50cac0aa55982e2)
C        -1.14300744318021    0.06888171794866   -0.39485921199129
C        -0.11725098469449    0.82706226649324    0.11645271669468
C         1.06458722150119    0.11671530819725    0.44694632343701
N         1.80590913377624   -0.38138944470313   -0.48067367811920
H        -1.61023792740273   -0.63126884793602    0.31213384997880
5
 energy: -9.509022822499 gnorm: 0.466650792995 xtb: 6.2.2 (9d81278992624c895f80dd42a50cac0aa55982e2)
C        -1.13700154871675    0.15507241747636   -0.27022928732765
C        -0.11418785175312    0.72268396134808    0.06501794621184
C         1.06566852709645    0.09918424853295    0.26766665636752
N         1.83143352014304   -0.32777577177784   -0.34039236415600
H        -1.64591264676962   -0.64916385557956    0.27793704890430
5
 energy: -9.549427361033 gnorm: 0.167200472349 xtb: 6.2.2 (9d81278992624c895f80dd42a50cac0aa55982e2)
C        -1.24631569964133    0.20757721289920   -0.22315553381981
C        -0.12298832413180    0.74157467989869    0.04631673027595
C         0.99998242352575    0.07760666706933    0.22307602194709
N         2.03230677781307   -0.35133689144591   -0.33463284666877
H        -1.66298517756569   -0.67542066842131    0.28839562826554
5
 energy: -9.554792114633 gnorm: 0.110642675180 xtb: 6.2.2 (9d81278992624c895f80dd42a50cac0aa55982e2)
C        -1.37469884361455    0.24475082579019   -0.20255000211241
C        -0.10004862688807    0.67689736206598    0.03821465660805
C         1.13576808734880    0.13811667570906    0.21788971891542
N         2.08386183940996   -0.35645550776203   -0.30477314987361
H        -1.74488245625614   -0.70330835580320    0.25121877646255
5
 energy: -9.566231795790 gnorm: 0.064303720308 xtb: 6.2.2 (9d81278992624c895f80dd42a50cac0aa55982e2)
C        -1.34409649349286    0.19936505463830   -0.18357653405102
C        -0.13096274701616    0.61995613687094    0.04023981366812
C         1.12958852985115    0.07748511464976    0.14285975141668
N         2.18893781803302   -0.28095362411374   -0.28225471365895
H        -1.84346710737516   -0.61585168204526    0.28273168262517
5
 energy: -9.564186234088 gnorm: 0.170633504811 xtb: 6.2.2 (9d81278992624c895f80dd42a50cac0aa55982e2)
C        -1.36572383802627    0.25789860698092   -0.11179477738523
C        -0.08987931592161    0.58637770260695   -0.06321168482208
C         1.04593276602463   -0.02455746054062    0.08273628617521
N         2.24207147140608   -0.19309041770533   -0.21612622261466
H        -1.83240108348284   -0.62662743134193    0.30839639864676
5
 energy: -9.565162458041 gnorm: 0.115349061499 xtb: 6.2.2 (9d81278992624c895f80dd42a50cac0aa55982e2)
C        -1.29532058715177    0.25598714920173   -0.09676530268563
C        -0.09096265035300    0.59013860664059   -0.03824734499151
C         1.07752315180926    0.04015084932518    0.08766797443649
N         2.14587078728196   -0.23175694447710   -0.22126602438029
H        -1.83711070158646   -0.65451866069041    0.26861069762094
5
 energy: -9.572191052892 gnorm: 0.050385872391 xtb: 6.2.2 (9d81278992624c895f80dd42a50cac0aa55982e2)
C        -1.40440443934078    0.26946244288174   -0.11463257478463
C        -0.13433830491575    0.52848246696182   -0.02099202453082
C         1.15334701895349    0.04646298467510    0.06343474351801
N         2.26140592182144   -0.22821000453402   -0.20448636623586
H        -1.87601019651841   -0.61619688998465    0.27667622203330
5
 energy: -9.575303191663 gnorm: 0.037893447057 xtb: 6.2.2 (9d81278992624c895f80dd42a50cac0aa55982e2)
C        -1.38318681907676    0.27352360050280   -0.09049655899067
C        -0.11144096482743    0.52783848698650   -0.05600908104051
C         1.11037169818469    0.00711789357229    0.05067929579413
N         2.25750687944736   -0.19248675646523   -0.19054507553354
H        -1.87325079372787   -0.61599222459636    0.28637141977059
5
 energy: -9.576637873012 gnorm: 0.019640702059 xtb: 6.2.2 (9d81278992624c895f80dd42a50cac0aa55982e2)
C        -1.37214792984389    0.25843801429568   -0.07626253217829
C        -0.10060105521813    0.48273052330086   -0.07109259465154
C         1.12724904421007   -0.00754490907892    0.03649734901415
N         2.28107785839026   -0.14705588670109   -0.18273663141995
H        -1.93557791753833   -0.58656674181654    0.29359440923563
5
 energy: -9.577996279546 gnorm: 0.030155381615 xtb: 6.2.2 (9d81278992624c895f80dd42a50cac0aa55982e2)
C        -1.38221635659925    0.27376324673596   -0.04778368490619
C        -0.10264492223423    0.40068300621478   -0.10495960481355
C         1.14153132334344   -0.03898503970116   -0.00747016020352
N         2.32467522284432   -0.08519360230509   -0.14478320068965
H        -1.98134526735429   -0.55026661094451    0.30499665061292
5
 energy: -9.578456518870 gnorm: 0.012162957421 xtb: 6.2.2 (9d81278992624c895f80dd42a50cac0aa55982e2)
C        -1.38610961310503    0.27972132462366   -0.04244831373101
C        -0.10304599222906    0.35540926217419   -0.12223771112580
C         1.15271312990543   -0.05208893627927   -0.01547197955167
N         2.32706390335370   -0.05420054488081   -0.13047781464066
H        -1.99062142792504   -0.52884010563778    0.31063581904915
5
 energy: -9.578638844165 gnorm: 0.008057032986 xtb: 6.2.2 (9d81278992624c895f80dd42a50cac0aa55982e2)
C        -1.37658368358082    0.27268082507533   -0.03505076847951
C        -0.09846306068938    0.32039917283589   -0.13636026098819
C         1.16334955157268   -0.06875818279105   -0.02726777867635
N         2.34424933522712   -0.01752496981861   -0.12218013257691
H        -2.03255214252960   -0.50679584530156    0.32085894072097
5
 energy: -9.578686384098 gnorm: 0.007699901720 xtb: 6.2.2 (9d81278992624c895f80dd42a50cac0aa55982e2)
C        -1.37171581989889    0.26901120809012   -0.04125696344242
C        -0.09808616833130    0.32125668795916   -0.13776987642225
C         1.15778789752667   -0.07540941786903   -0.02231582758831
N         2.33619996791631   -0.01287812489495   -0.12415851974445
H        -2.02418587721280   -0.50197935328529    0.32550118719743
5
 energy: -9.578710151075 gnorm: 0.005015481122 xtb: 6.2.2 (9d81278992624c895f80dd42a50cac0aa55982e2)
C        -1.37306278235132    0.26869528286783   -0.04159128548707
C        -0.09535585858806    0.31462222925559   -0.14250341154788
C         1.15996141648860   -0.07975637736004   -0.02117436230922
N         2.33687266707214   -0.00501926385817   -0.12282960908688
H        -2.02841544262136   -0.49854087090522    0.32809866843105
5
 energy: -9.578721088390 gnorm: 0.002512575778 xtb: 6.2.2 (9d81278992624c895f80dd42a50cac0aa55982e2)
C        -1.37263208238610    0.26753272907276   -0.04374636142982
C        -0.09584898620983    0.31217952481924   -0.14210097331746
C         1.16263791926254   -0.08052348133306   -0.02119283895501
N         2.33798100187738   -0.00269402068535   -0.12289971155595
H        -2.03213785254400   -0.49649375187360    0.32993988525825
5
 energy: -9.578726774995 gnorm: 0.002198738425 xtb: 6.2.2 (9d81278992624c895f80dd42a50cac0aa55982e2)
C        -1.37255691652783    0.26667445588864   -0.04619980849831
C        -0.09626928329536    0.30795135610595   -0.14342312172622
C         1.16286186056968   -0.08461397568200   -0.02200621180036
N         2.33910126425689    0.00241347871225   -0.12166253995218
H        -2.03313692500340   -0.49242431502485    0.33329168197708
5
 energy: -9.578731205860 gnorm: 0.001320647809 xtb: 6.2.2 (9d81278992624c895f80dd42a50cac0aa55982e2)
C        -1.37273855573245    0.26681524214885   -0.04833779634607
C        -0.09615183644763    0.30979737585416   -0.14254346487730
C         1.16198282103272   -0.08474474784869   -0.02138691279675
N         2.33774205790030    0.00142764947746   -0.12195002511503
H        -2.03083448675295   -0.49329451963178    0.33421819913515
5
 energy: -9.578733845380 gnorm: 0.000633310964 xtb: 6.2.2 (9d81278992624c895f80dd42a50cac0aa55982e2)
C        -1.37352318100492    0.26679025682705   -0.05277510940998
C        -0.09588707598299    0.31255837076993   -0.14009356503648
C         1.16116815087719   -0.08453989869897   -0.02117969253900
N         2.33665112448543   -0.00021902846668   -0.12226043480597
H        -2.02840901837472   -0.49458870043134    0.33630880179142
