5
 energy: -9.578733845209 gnorm: 0.000632775658 xtb: 6.2.2 (9d81278992624c895f80dd42a50cac0aa55982e2)
C        -1.37352196828920    0.26679735646457   -0.05277078054604
C        -0.09588592845127    0.31255862832189   -0.14009377584364
C         1.16116763427357   -0.08454601552506   -0.02118359823036
N         2.33665069652179   -0.00023147652583   -0.12226859087388
H        -2.02841043404967   -0.49457749273558    0.33631674549218
