[Molden Format]
[Title]
[Atoms] AU
O      1     8  0.13587517186931E+01 -0.85932539339891E+00  0.10310997064765E+00
C      2     6 -0.88610558596041E+00 -0.11418280588623E+00  0.12908519390768E-01
O      3     8  0.32342842753008E+01  0.69221765943389E+00 -0.79472982160446E-01
H      4     1 -0.14058948719988E+01  0.18529543413962E+01 -0.22226912541240E+00
H      5     1 -0.23010336463021E+01 -0.15716638015516E+01  0.18572550725378E+00
[GTO]
           1 0
 s           4   1.0000000000000000     
   69.137961906196551      -0.20478756370077797     
   11.906129132707308      -0.24997023136827334     
  0.95670827744340703       0.40025880240639616     
  0.36462520496073686       0.15952206667693555     
 p           4   1.0000000000000000     
   8.2124193257781641        1.1321556799186829     
   2.1293576997098116        1.0476840782254817     
  0.75066448202360914       0.54956508217158984     
  0.29885246543283073        8.2908486592766617E-002

           2 0
 s           4   1.0000000000000000     
   51.049363095579913      -0.16312063210127389     
   8.7911227406887544      -0.19911024581000730     
  0.70640422258929825       0.31882047753655751     
  0.26922813413411617       0.12706504184240380     
 p           4   1.0000000000000000     
   5.8263656140800002       0.73716451545209605     
   1.5106896018720002       0.68216371614850257     
  0.53256483288000001       0.35783053929253711     
  0.21202323690600003        5.3983030275847881E-002

           3 0
 s           4   1.0000000000000000     
   69.137961906196551      -0.20478756370077797     
   11.906129132707308      -0.24997023136827334     
  0.95670827744340703       0.40025880240639616     
  0.36462520496073686       0.15952206667693555     
 p           4   1.0000000000000000     
   8.2124193257781641        1.1321556799186829     
   2.1293576997098116        1.0476840782254817     
  0.75066448202360914       0.54956508217158984     
  0.29885246543283073        8.2908486592766617E-002

           4 0
 s           3   1.0000000000000000     
   3.3702276975336001       0.27359110588908298     
  0.61389118221497996       0.26460540653860526     
  0.16614291148415999        8.2465947534082318E-002

           5 0
 s           3   1.0000000000000000     
   3.3702276975336001       0.27359110588908298     
  0.61389118221497996       0.26460540653860526     
  0.16614291148415999        8.2465947534082318E-002

[MO]
Sym=     1a
Ene=  -0.80374317609688573     
Spin= Alpha
Occup=     2.00000000
           1 -0.72160465255966122     
           2  0.14214130748170400     
           3  -7.0818922844296042E-002
           4   8.4913156045607844E-003
           5 -0.24808526284720961     
           6 -0.19209666090037641     
           7   6.0453306509393977E-002
           8  -7.3303218080148971E-003
           9  -7.3377877988082332E-002
          10  0.10845704651447240     
          11   5.7357869373424714E-002
          12  -6.7216964754618965E-003
          13  -1.3944620907301017E-002
          14  -1.5777181985817654E-002
Sym=     2a
Ene=  -0.74136393147664670     
Spin= Alpha
Occup=     2.00000000
           1 -0.15733928883121912     
           2 -0.53922149342736514     
           3 -0.13826117690690501     
           4   1.5968267379306077E-002
           5  0.26735374874776252     
           6   5.2300611905691727E-002
           7  -9.8506088004468764E-002
           8   1.1728156042775004E-002
           9 -0.43310520463743396     
          10  0.13120993811158752     
          11  0.16607476166114660     
          12  -1.9597722010166643E-002
          13   3.8423856708253441E-002
          14   7.4158659142807268E-002
Sym=     3a
Ene=  -0.67889035070471304     
Spin= Alpha
Occup=     2.00000000
           1  0.39051650923819925     
           2  0.16923925685170493     
           3 -0.60546492625502413     
           4   7.2075194854112484E-002
           5 -0.27019489655556650     
           6  -3.0084642131658703E-002
           7 -0.20216453570826268     
           8   2.4017095168718257E-002
           9 -0.31507990825651228     
          10  0.11069069310363094     
          11 -0.14839680010247183     
          12   1.7729689384754537E-002
          13 -0.15646462072999973     
          14  -2.7753635573971449E-002
Sym=     4a
Ene=  -0.64188706151274499     
Spin= Alpha
Occup=     2.00000000
           1   9.7045382280056396E-005
           2   6.5910342393695343E-004
           3  -9.3401089700309095E-002
           4 -0.78632165087661199     
           5  -4.9739201120717173E-005
           6   2.9084230015385455E-004
           7  -3.9840566844825780E-002
           8 -0.33586924951506680     
           9  -1.1749085481667380E-004
          10   2.3106510657459355E-004
          11  -3.3926673689250772E-002
          12 -0.28557556434731968     
          13   8.3082909451401274E-005
          14  -1.1492153660101958E-004
Sym=     5a
Ene=  -0.60938143620459495     
Spin= Alpha
Occup=     2.00000000
           1  -2.0594023802078622E-002
           2   9.9903601569834230E-002
           3 -0.30099877932484648     
           4   3.5688401388587879E-002
           5  0.29767089875313585     
           6 -0.34687872053054541     
           7 -0.14170987930690662     
           8   1.6523237478739624E-002
           9  0.48911541169608219     
          10  0.24209834206467523     
          11   1.7172323104464971E-002
          12  -1.8997361577207160E-003
          13  0.11597679105885585     
          14  0.34883366727325382     
Sym=     6a
Ene=  -0.59241709341791560     
Spin= Alpha
Occup=     2.00000000
           1   7.6759749689874188E-002
           2  0.30873458479917731     
           3   3.7582163809098380E-002
           4  -4.1122429132818446E-003
           5  0.20604194227702496     
           6 -0.25193769913614311     
           7  0.23352940322501034     
           8  -2.7926188299079401E-002
           9 -0.58494521271926858     
          10 -0.24838607834428872     
          11 -0.32357937635247402     
          12   3.8249966996438019E-002
          13  0.27944816213961099     
          14  0.11743309663128530     
Sym=     7a
Ene=  -0.51753858975855349     
Spin= Alpha
Occup=     2.00000000
           1 -0.15409428656153554     
           2   4.1006482567136592E-002
           3  0.38233620012016512     
           4  -4.5612125923148582E-002
           5  -3.0125189532535509E-002
           6 -0.11706362774690524     
           7 -0.45101192763651671     
           8   5.3727859341137454E-002
           9 -0.14790954678207788     
          10 -0.36467742145190823     
          11  -8.0727124427780836E-002
          12   8.9948020593313867E-003
          13 -0.39201251276355459     
          14  0.37363840792769493     
Sym=     8a
Ene=  -0.43731331366133158     
Spin= Alpha
Occup=     2.00000000
           1   4.4929622686639579E-005
           2  -7.9842983559390792E-005
           3   7.7860682358023743E-003
           4   6.6282549721918368E-002
           5   7.1142247983688249E-005
           6  -3.1200539749700191E-004
           7   6.6541012742747194E-002
           8  0.55742266952663766     
           9  -5.8575427035342752E-006
          10   1.0039418142195719E-003
          11  -9.8735404858331571E-002
          12 -0.83062456985517485     
          13   4.9041008664495980E-005
          14  -9.1191603085863450E-005
Sym=     9a
Ene=  -0.42057140729712333     
Spin= Alpha
Occup=     2.00000000
           1 -0.17872272844891135     
           2 -0.11378278476029335     
           3  0.28919491792944363     
           4  -3.4492247231030310E-002
           5  0.11221589298511869     
           6  0.15218169456054073     
           7  -5.2013961466182271E-002
           8   6.1775099283511332E-003
           9   1.5848183344320849E-003
          10  0.56588799604370832     
          11 -0.76415570313606584     
          12   9.1410128738098062E-002
          13 -0.10490122045975341     
          14  -2.1119565172408244E-002
Sym=    10a
Ene=  -0.32053641017365836     
Spin= Alpha
Occup=     0.00000000
           1  -1.3212226285780939E-004
           2  -5.7431178685969316E-004
           3   7.7520983066534335E-002
           4  0.65226330869835036     
           5  -6.4045262339608547E-005
           6   5.4470698003977606E-004
           7  -9.2658098306942632E-002
           8 -0.77660807819444244     
           9   4.0819534138990711E-005
          10   2.7982925735849036E-004
          11  -5.7734991858152326E-002
          12 -0.48536461676278375     
          13   1.2684347526410278E-004
          14  -8.3059818473717612E-005
Sym=    11a
Ene=   -2.4294136613119546E-002
Spin= Alpha
Occup=     0.00000000
           1 -0.62926993982622792     
           2 -0.33570886362939478     
           3 -0.54703076712808174     
           4   6.4539396450418549E-002
           5  0.28452303169692539     
           6   9.2767471889957695E-002
           7 -0.26410808484320780     
           8   3.1727797449973873E-002
           9  0.45797540732447461     
          10 -0.69963699216464192     
          11 -0.51015348338343547     
          12   5.9995737267364936E-002
          13  0.15442230098531473     
          14 -0.41848889276290074     
Sym=    12a
Ene=    8.1196666233799564E-002
Spin= Alpha
Occup=     0.00000000
           1  -8.4076353755556180E-002
           2 -0.21647037482532086     
           3  -5.2649330888134829E-003
           4   3.8719561758134295E-004
           5  -1.0223228300453562     
           6  0.45070204411260606     
           7 -0.19678807819485858     
           8   2.3908158168597819E-002
           9   7.5863201730905799E-002
          10  -6.6702144468534452E-002
          11 -0.14402757720002954     
          12   1.7061965644819377E-002
          13  0.85149177683676225     
          14  0.68483379340949790     
Sym=    13a
Ene=   0.24738362885466075     
Spin= Alpha
Occup=     0.00000000
           1  0.36599629395401695     
           2 -0.19211053810759554     
           3  0.40105895897532540     
           4  -4.7892014760862828E-002
           5 -0.19714162549835113     
           6 -0.73126969615676285     
           7 -0.82984073487728849     
           8   9.8533432931152534E-002
           9  -7.6152145594064594E-002
          10  0.13557013952778771     
          11   5.0048143237018471E-002
          12  -5.7963208205696701E-003
          13  0.65969708182128151     
          14 -0.83778565933378790     
Sym=    14a
Ene=   0.41661182106974398     
Spin= Alpha
Occup=     0.00000000
           1  0.46790359756345884     
           2 -0.93903978674198729     
           3   7.4408132664562981E-003
           4  -1.5770878355775945E-003
           5 -0.51549301201802888     
           6 -0.77960891013145062     
           7  0.70674169140852694     
           8  -8.4749774511628670E-002
           9  0.24147703511553090     
          10 -0.17768558788423133     
          11 -0.26911652051977997     
          12   3.1775177094579610E-002
          13 -0.44058950215918669     
          14  0.19150500953598207     
