 Entering Gaussian System
 *********************************************
 Gaussian 98:
 frequency output generated by the xtb code
 *********************************************
                         Standard orientation:
 --------------------------------------------------------------------
  Center     Atomic     Atomic              Coordinates (Angstroms)
  Number     Number      Type              X           Y           Z
 --------------------------------------------------------------------
    1          8             0        0.719021   -0.454735    0.054563
    2          6             0       -0.468907   -0.060423    0.006831
    3          8             0        1.711510    0.366306   -0.042055
    4          1             0       -0.743968    0.980541   -0.117620
    5          1             0       -1.217655   -0.831689    0.098282
 --------------------------------------------------------------------
     1 basis functions        1 primitive gaussians
     1 alpha electrons        1 beta electrons

 Harmonic frequencies (cm**-1), IR intensities (KM/Mole),
 Raman scattering activities (A**4/amu), Raman depolarization ratios,
 reduced masses (AMU), force constants (mDyne/A) and normal coordinates:
                      1                      2                      3
                        a                      a                      a 
 Frequencies --   503.6802               682.6861               866.8830
 Red. masses --    10.7415                 3.8201                 4.7202
 Frc consts  --     0.0000                 0.0000                 0.0000
 IR Inten    --     0.2267                 0.1223                 0.3274
 Raman Activ --     0.0000                 0.0000                 0.0000
 Depolar     --     0.0000                 0.0000                 0.0000
 Atom AN      X      Y      Z        X      Y      Z        X      Y      Z
   1   8     0.13  -0.50   0.06    -0.00   0.04   0.35    -0.00   0.03   0.23
   2   6     0.32   0.16  -0.02     0.00   0.01   0.04     0.00  -0.06  -0.50
   3   8    -0.48   0.25  -0.03    -0.00  -0.03  -0.25     0.00  -0.01  -0.07
   4   1     0.45   0.14  -0.02     0.00   0.04   0.31    -0.00   0.09   0.73
   5   1    -0.14   0.28  -0.03     0.00  -0.10  -0.84    -0.00   0.04   0.37
                      4                      5                      6
                        a                      a                      a 
 Frequencies --  1050.4290              1243.6813              1333.1632
 Red. masses --     8.3203                11.6159                 4.1551
 Frc consts  --     0.0000                 0.0000                 0.0000
 IR Inten    --     0.8167                 1.0441                 0.7598
 Raman Activ --     0.0000                 0.0000                 0.0000
 Depolar     --     0.0000                 0.0000                 0.0000
 Atom AN      X      Y      Z        X      Y      Z        X      Y      Z
   1   8     0.12   0.07  -0.01    -0.14  -0.61   0.07     0.39   0.08  -0.01
   2   6     0.36   0.32  -0.04    -0.08   0.33  -0.04     0.06  -0.03   0.00
   3   8    -0.47  -0.26   0.03     0.32   0.35  -0.04    -0.18  -0.14   0.02
   4   1    -0.33  -0.04   0.00    -0.50  -0.05   0.01    -0.56  -0.15   0.02
   5   1     0.50  -0.30   0.04     0.09  -0.04   0.00    -0.48   0.47  -0.06
                      7                      8                      9
                        a                      a                      a 
 Frequencies --  1501.2588              3043.7805              3112.9412
 Red. masses --    12.8648                 1.4914                 2.0573
 Frc consts  --     0.0000                 0.0000                 0.0000
 IR Inten    --     1.2503                 0.1778                 0.0713
 Raman Activ --     0.0000                 0.0000                 0.0000
 Depolar     --     0.0000                 0.0000                 0.0000
 Atom AN      X      Y      Z        X      Y      Z        X      Y      Z
   1   8     0.62  -0.11   0.01     0.01  -0.00   0.00     0.01   0.01  -0.00
   2   6    -0.68   0.22  -0.03     0.14  -0.15   0.02     0.14   0.27  -0.03
   3   8    -0.09  -0.07   0.01    -0.00  -0.00   0.00    -0.01  -0.00   0.00
   4   1     0.13   0.14  -0.02    -0.23   0.86  -0.10     0.11  -0.35   0.04
   5   1     0.07  -0.18   0.02    -0.27  -0.30   0.04    -0.62  -0.62   0.07
