$hessian                                                                        
        0.7262811922   0.0162068149  -0.0014203488  -0.4285918369   0.1486719392
       -0.0179596976  -0.2390508793  -0.1812935367   0.0213676668  -0.0197670976
        0.0197284676  -0.0023910654  -0.0388713784  -0.0033136850   0.0004034450
        0.0162068149   0.4160807651  -0.0424588509   0.1335673732  -0.1734407774
        0.0156523707  -0.1693027429  -0.2318016915   0.0235555671   0.0456996573
       -0.0165614938   0.0052368647  -0.0261711026   0.0057231976  -0.0019859516
       -0.0014203488  -0.0424588509   0.0640412082  -0.0161624756   0.0156490378
       -0.0446954336   0.0199601496   0.0235599947  -0.0352790808  -0.0054737710
        0.0052612228   0.0268059390   0.0030964457  -0.0020114045  -0.0108726329
       -0.4285918369   0.1335673732  -0.0161624756   0.7268953331  -0.0319788404
        0.0042594042  -0.0860509896  -0.0224899701   0.0025989354  -0.0563062649
        0.0529593707  -0.0063451210  -0.1559462417  -0.1320579334   0.0156492570
        0.1486719392  -0.1734407774   0.0156490378  -0.0319788404   0.6101347371
       -0.0622648321  -0.0364520014   0.0286724142  -0.0020567118   0.0474127971
       -0.2771724134   0.0287993516  -0.1276538945  -0.1881939605   0.0198731545
       -0.0179596976   0.0156523707  -0.0446954336   0.0042594042  -0.0622648321
        0.0956122917   0.0042471774  -0.0020514639   0.0118908585  -0.0056750170
        0.0287848147  -0.0397612305   0.0151281331   0.0198791106  -0.0230464862
       -0.2390508793  -0.1693027429   0.0199601496  -0.0860509896  -0.0364520014
        0.0042471774   0.3239296232   0.2035274717  -0.0239342754   0.0046077716
       -0.0022178455   0.0002896831  -0.0034355258   0.0044451181  -0.0005627346
       -0.1812935367  -0.2318016915   0.0235599947  -0.0224899701   0.0286724142
       -0.0020514639   0.2035274717   0.1968227505  -0.0208052930  -0.0044644732
        0.0020672071  -0.0016168714   0.0047205083   0.0042393197   0.0009136335
        0.0213676668   0.0235555671  -0.0352790808   0.0025989354  -0.0020567118
        0.0118908585  -0.0239342754  -0.0208052930   0.0228503647   0.0005374309
       -0.0016413852  -0.0114856559  -0.0005697577   0.0009478229   0.0120235134
       -0.0197670976   0.0456996573  -0.0054737710  -0.0563062649   0.0474127971
       -0.0056750170   0.0046077716  -0.0044644732   0.0005374309   0.0669984655
       -0.0736141952   0.0088192771   0.0044671254  -0.0150337860   0.0017920800
        0.0197284676  -0.0165614938   0.0052612228   0.0529593707  -0.2771724134
        0.0287848147  -0.0022178455   0.0020672071  -0.0016413852  -0.0736141952
        0.3077367119  -0.0346958387   0.0031442024  -0.0160700118   0.0022911863
       -0.0023910654   0.0052368647   0.0268059390  -0.0063451210   0.0287993516
       -0.0397612305   0.0002896831  -0.0016168714  -0.0114856559   0.0088192771
       -0.0346958387   0.0216179856  -0.0003727738   0.0022764938   0.0028229618
       -0.0388713784  -0.0261711026   0.0030964457  -0.1559462417  -0.1276538945
        0.0151281331  -0.0034355258   0.0047205083  -0.0005697577   0.0044671254
        0.0031442024  -0.0003727738   0.1937860205   0.1459602863  -0.0172820473
       -0.0033136850   0.0057231976  -0.0020114045  -0.1320579334  -0.1881939605
        0.0198791106   0.0044451181   0.0042393197   0.0009478229  -0.0150337860
       -0.0160700118   0.0022764938   0.1459602863   0.1943014551  -0.0210920227
        0.0004034450  -0.0019859516  -0.0108726329   0.0156492570   0.0198731545
       -0.0230464862  -0.0005627346   0.0009136335   0.0120235134   0.0017920800
        0.0022911863   0.0028229618  -0.0172820473  -0.0210920227   0.0190726438
