5
 energy: -11.030669584921 gnorm: 0.110407859741 xtb: 6.2.2 (9d81278992624c895f80dd42a50cac0aa55982e2)
O         0.73644700000000   -0.17695200000000    0.52422600000000
C        -0.42249600000000    0.00448900000000   -0.22939800000000
O         1.71947700000000    0.07826700000000   -0.31314500000000
H        -0.92384900000000    0.94485300000000    0.08101400000000
H        -1.10957800000000   -0.85065700000000   -0.06269600000000
5
 energy: -11.070177599787 gnorm: 0.150309119648 xtb: 6.2.2 (9d81278992624c895f80dd42a50cac0aa55982e2)
O         0.74916837462807   -0.37470002837338    0.45609202201442
C        -0.45849720001498   -0.04398790782017   -0.13242292972317
O         1.72482602137392    0.26641213742874   -0.27536615189448
H        -0.83304890917124    1.00875228341242   -0.04042146225415
H        -1.18244728681577   -0.85647648464761   -0.00788047814261
5
 energy: -11.097318192470 gnorm: 0.138491978233 xtb: 6.2.2 (9d81278992624c895f80dd42a50cac0aa55982e2)
O         0.73081026432906   -0.44355459910322    0.34189490515921
C        -0.49730350096645   -0.06892566541615   -0.00206255468247
O         1.75279248199216    0.34847038337028   -0.22853633722919
H        -0.77113722554728    1.02858231597885   -0.11393820311028
H        -1.21516101980749   -0.86457243482975    0.00264318986273
5
 energy: -11.115986140309 gnorm: 0.072751069506 xtb: 6.2.2 (9d81278992624c895f80dd42a50cac0aa55982e2)
O         0.69119042385514   -0.40244731101340    0.24699550130254
C        -0.49443215472165   -0.05303365025092    0.07969189984740
O         1.74953634701798    0.32631565663902   -0.19266558906909
H        -0.74742533805154    0.98112772458504   -0.12457168324012
H        -1.19886827809993   -0.85196241995973   -0.00944912884073
5
 energy: -11.121140921489 gnorm: 0.063684051139 xtb: 6.2.2 (9d81278992624c895f80dd42a50cac0aa55982e2)
O         0.69649874728041   -0.43827387679081    0.18489096708134
C        -0.48225651996086   -0.03610706442894    0.10158712003944
O         1.74022189484614    0.34298613994492   -0.15515540409820
H        -0.75638401328010    0.96279698338684   -0.14817840102099
H        -1.19807910888560   -0.83140218211201    0.01685671799840
5
 energy: -11.124107357765 gnorm: 0.029809500194 xtb: 6.2.2 (9d81278992624c895f80dd42a50cac0aa55982e2)
O         0.71925252798390   -0.43924671859033    0.13901425601545
C        -0.46837059314134   -0.03061885854190    0.12207020747513
O         1.70819149755872    0.34028034076552   -0.12290995213607
H        -0.75775427235991    0.96640228712397   -0.15756421849446
H        -1.20131816004137   -0.83681705075726    0.01939070713995
5
 energy: -11.126618946079 gnorm: 0.039365804253 xtb: 6.2.2 (9d81278992624c895f80dd42a50cac0aa55982e2)
O         0.71295958521854   -0.46631619814852    0.07502661724557
C        -0.45926745864147   -0.05463901153904    0.05479219869573
O         1.69720502322301    0.38673975148468   -0.06449583340208
H        -0.71957406878652    0.94987703932966   -0.14615519621654
H        -1.23132208101356   -0.81566158112678    0.08083321367732
5
 energy: -11.127890989001 gnorm: 0.012543297760 xtb: 6.2.2 (9d81278992624c895f80dd42a50cac0aa55982e2)
O         0.71805851702961   -0.46008181604908    0.07302763274939
C        -0.46780171968617   -0.06326826418867    0.03119513174331
O         1.69966464817654    0.38148979656255   -0.05710575421914
H        -0.72186919758710    0.96911800209895   -0.13287851396091
H        -1.22805124793289   -0.82725771842375    0.08576250368736
5
 energy: -11.128140952434 gnorm: 0.005203970322 xtb: 6.2.2 (9d81278992624c895f80dd42a50cac0aa55982e2)
O         0.72061483972819   -0.45561086419377    0.06403368737414
C        -0.46978719182948   -0.06439147944737    0.00602374057677
O         1.70189011107176    0.37321851931851   -0.04599258721108
H        -0.73102722915925    0.97755199883541   -0.11987044499438
H        -1.22168952981122   -0.83076817451278    0.09580660425455
5
 energy: -11.128165916107 gnorm: 0.003604044463 xtb: 6.2.2 (9d81278992624c895f80dd42a50cac0aa55982e2)
O         0.72044076619782   -0.45792807390732    0.05685067754135
C        -0.47037326322405   -0.06424776171281    0.00542573468554
O         1.70523462158641    0.37358358861683   -0.04161017978001
H        -0.73387614609344    0.98034728925003   -0.11975572043352
H        -1.22142497846673   -0.83175504224674    0.09909048798664
5
 energy: -11.128179567753 gnorm: 0.001641605711 xtb: 6.2.2 (9d81278992624c895f80dd42a50cac0aa55982e2)
O         0.71962077327801   -0.45672904413838    0.05576727898839
C        -0.46971122216383   -0.06244781077999    0.00638894280643
O         1.70735463465122    0.37052953163432   -0.04178204552152
H        -0.73789506692886    0.98011560363335   -0.11908675776034
H        -1.21936811883654   -0.83146828034930    0.09871358148704
5
 energy: -11.128182925315 gnorm: 0.000897832899 xtb: 6.2.2 (9d81278992624c895f80dd42a50cac0aa55982e2)
O         0.71902270203100   -0.45473178757330    0.05456516795244
C        -0.46890663351046   -0.06042541146730    0.00682915266675
O         1.71150791965863    0.36631487917095   -0.04204868131427
H        -0.74397231972947    0.98053761115475   -0.11762065236156
H        -1.21765066844969   -0.83169529128510    0.09827601305663
