$hessian                                                                        
        0.4141896191  -0.0186794416   0.2414799341  -0.1731745069  -0.1594891852
       -0.1144168182  -0.0615817358   0.0035635521  -0.0441132438  -0.1708665898
        0.1751381145  -0.0903061059  -0.0085667866  -0.0005330398   0.0073562338
       -0.0186794416   0.1412538903  -0.0033204363  -0.0459641831  -0.0695128606
       -0.0400364438   0.0046443271   0.0278412389   0.0028779360   0.0608139455
       -0.0945374100   0.0413299843  -0.0008146479  -0.0050448586  -0.0008510401
        0.2414799341  -0.0033204363   0.1699399616  -0.1030373203  -0.1179484657
       -0.0961096176  -0.0601163734   0.0027163226  -0.0057153045  -0.0942480891
        0.1193614859  -0.0733784709   0.0159218487  -0.0008089065   0.0052634314
       -0.1731745069  -0.0459641831  -0.1030373203   0.2118227320   0.0452945810
        0.0700230112  -0.0812409879   0.0027580646   0.0129267430   0.1017654577
       -0.0248876705   0.0276203654  -0.0591726949   0.0227992080  -0.0075327993
       -0.1594891852  -0.0695128606  -0.1179484657   0.0452945810   0.2905666636
        0.0976254619   0.0837489296  -0.0390434004  -0.0015357123   0.0178120404
       -0.1824373531   0.0206397204   0.0126336342   0.0004269505   0.0012189957
       -0.1144168182  -0.0400364438  -0.0961096176   0.0700230112   0.0976254619
        0.0767452122   0.0345124245  -0.0079975907  -0.0235899837   0.0302881528
       -0.0522367329   0.0378929486  -0.0204067703   0.0026453056   0.0050614404
       -0.0615817358   0.0046443271  -0.0601163734  -0.0812409879   0.0837489296
        0.0345124245   0.9610178963  -0.0080530815   0.0478088269  -0.0824491389
       -0.0872884820   0.0223807557  -0.7357460336   0.0069483068  -0.0445856337
        0.0035635521   0.0278412389   0.0027163226   0.0027580646  -0.0390434004
       -0.0079975907  -0.0080530815   0.0737530459  -0.0009934400  -0.0041315350
       -0.0390020875   0.0053388321   0.0058629999  -0.0235487970   0.0009358760
       -0.0441132438   0.0028779360  -0.0057153045   0.0129267430  -0.0015357123
       -0.0235899837   0.0478088269  -0.0009934400   0.0857398096   0.0125338944
       -0.0012417791  -0.0224862563  -0.0291562205   0.0008929954  -0.0339482651
       -0.1708665898   0.0608139455  -0.0942480891   0.1017654577   0.0178120404
        0.0302881528  -0.0824491389  -0.0041315350   0.0125338944   0.2107363001
       -0.0536092664   0.0621195827  -0.0591860291  -0.0208851845  -0.0106935408
        0.1751381145  -0.0945374100   0.1193614859  -0.0248876705  -0.1824373531
       -0.0522367329  -0.0872884820  -0.0390020875  -0.0012417791  -0.0536092664
        0.3146737776  -0.0643142018  -0.0093526957   0.0013030729  -0.0015687721
       -0.0903061059   0.0413299843  -0.0733784709   0.0276203654   0.0206397204
        0.0378929486   0.0223807557   0.0053388321  -0.0224862563   0.0621195827
       -0.0643142018   0.0535553095  -0.0218145978  -0.0029943350   0.0044164691
       -0.0085667866  -0.0008146479   0.0159218487  -0.0591726949   0.0126336342
       -0.0204067703  -0.7357460336   0.0058629999  -0.0291562205  -0.0591860291
       -0.0093526957  -0.0218145978   0.8626715442  -0.0083292905   0.0554557399
       -0.0005330398  -0.0050448586  -0.0008089065   0.0227992080   0.0004269505
        0.0026453056   0.0069483068  -0.0235487970   0.0008929954  -0.0208851845
        0.0013030729  -0.0029943350  -0.0083292905   0.0268636321   0.0002649405
        0.0073562338  -0.0008510401   0.0052634314  -0.0075327993   0.0012189957
        0.0050614404  -0.0445856337   0.0009358760  -0.0339482651  -0.0106935408
       -0.0015687721   0.0044164691   0.0554557399   0.0002649405   0.0192069242
