4
 energy: -5.066896418496 gnorm: 0.336671938760 xtb: 6.2.2 (9d81278992624c895f80dd42a50cac0aa55982e2)
C        -0.56907600000000    0.27089400000000   -0.29371500000000
C         0.56907600000000   -0.27089200000000    0.54483000000000
H        -1.53217800000000   -0.12085200000000    0.09310700000000
H         1.53217800000000    0.12085000000000    0.15800700000000
4
 energy: -5.168195460649 gnorm: 0.155479181235 xtb: 6.2.2 (9d81278992624c895f80dd42a50cac0aa55982e2)
C        -0.51961137882189    0.19343935660595   -0.18775287354607
C         0.51961132124281   -0.19343776570773    0.43886800179441
H        -1.54393941764242   -0.10175711307361    0.06703753789106
H         1.54393947522149    0.10175552217539    0.18407633386060
4
 energy: -5.183354853078 gnorm: 0.283897522918 xtb: 6.2.2 (9d81278992624c895f80dd42a50cac0aa55982e2)
C        -0.51483109272208    0.11287349494773   -0.08327107138138
C         0.51482773095416   -0.11286892327588    0.33437953678737
H        -1.57867598470422   -0.07542001595350    0.02880621125699
H         1.57867934647214    0.07541544428165    0.22231432333702
4
 energy: -5.197348445505 gnorm: 0.128423228915 xtb: 6.2.2 (9d81278992624c895f80dd42a50cac0aa55982e2)
C        -0.60868954884950    0.05122248613092   -0.01530199575967
C         0.60868847342454   -0.05121891840178    0.26641263319924
H        -1.68736112412994   -0.04449937113134   -0.02442530632746
H         1.68736219955489    0.04449580340220    0.27554366888789
4
 energy: -5.203029963317 gnorm: 0.047417515247 xtb: 6.2.2 (9d81278992624c895f80dd42a50cac0aa55982e2)
C        -0.57971290949764    0.06925698777748   -0.03499738620781
C         0.57971657391218   -0.06925752349294    0.28611458436070
H        -1.61934930287886   -0.05095447608520   -0.00774304775216
H         1.61934563846433    0.05095501180066    0.25885484959927
4
 energy: -5.204816898170 gnorm: 0.017993292914 xtb: 6.2.2 (9d81278992624c895f80dd42a50cac0aa55982e2)
C        -0.58034002205067    0.05048834245037   -0.01087311849322
C         0.58033339503557   -0.05048324879346    0.26197739872203
H        -1.63377311692972   -0.04501338631976   -0.01717492477147
H         1.63377974394482    0.04500829266285    0.26829964454265
4
 energy: -5.206338283293 gnorm: 0.011172298362 xtb: 6.2.2 (9d81278992624c895f80dd42a50cac0aa55982e2)
C        -0.59118766534081    0.01753957933137    0.03029563952875
C         0.59121548432983   -0.01755098656457    0.22085824677571
H        -1.64445323811324   -0.03169059313074   -0.03568020986402
H         1.64442541912422    0.03170200036395    0.28675532355956
4
 energy: -5.206729323139 gnorm: 0.007119459490 xtb: 6.2.2 (9d81278992624c895f80dd42a50cac0aa55982e2)
C        -0.59377170998011   -0.00030522257242    0.05291405416385
C         0.59364187706815    0.00035113756569    0.19799415372951
H        -1.63937254686809   -0.02424330456547   -0.04458345020347
H         1.63950237978005    0.02419738957220    0.29590424231011
4
 energy: -5.206768864213 gnorm: 0.001643028970 xtb: 6.2.2 (9d81278992624c895f80dd42a50cac0aa55982e2)
C        -0.59305475131388   -0.00588765175354    0.06063523794614
C         0.59370622975122    0.00568894405908    0.19155270624368
H        -1.63752164149146   -0.02197390395695   -0.04771666993614
H         1.63687016305413    0.02217261165140    0.29775772574633
4
 energy: -5.206723582156 gnorm: 0.008054231567 xtb: 6.2.2 (9d81278992624c895f80dd42a50cac0aa55982e2)
C        -0.59593052817155   -0.00971649917637    0.06211515444129
C         0.59140521701653    0.01095444267533    0.18137538011006
H        -1.63484782908413   -0.02094578442615   -0.04560964121642
H         1.63937314023915    0.01970784092719    0.30434810666507
4
 energy: -5.206766613792 gnorm: 0.002390277355 xtb: 6.2.2 (9d81278992624c895f80dd42a50cac0aa55982e2)
C        -0.59437755716532   -0.00917655008153    0.06363275913347
C         0.59304090214891    0.00961527600858    0.18532644221899
H        -1.63681653163106   -0.02091736176892   -0.04791130819163
H         1.63815318664747    0.02047863584187    0.30118110683917
4
 energy: -5.206771511227 gnorm: 0.000650568054 xtb: 6.2.2 (9d81278992624c895f80dd42a50cac0aa55982e2)
C        -0.59328112220307   -0.00737311556327    0.06164869917695
C         0.59331216889654    0.00689205515729    0.18907843763299
H        -1.63691918508577   -0.02132521027002   -0.04760483303002
H         1.63688813839230    0.02180627067600    0.29910669622007
