$hessian                                                                        
        1.5478395171   0.0188313524   0.1613805276  -1.1557738299  -0.0139692696
       -0.1229921691  -0.3784289678  -0.0048295955  -0.0373925038  -0.0136283604
       -0.0000370865  -0.0009962778
        0.0188313524   0.0340559855   0.0020063108  -0.0139423982  -0.0087100211
       -0.0014945336  -0.0047674920  -0.0204483598  -0.0004979677  -0.0001213484
       -0.0049009671  -0.0000138150
        0.1613805276   0.0020063108   0.0510418570  -0.1229691656  -0.0014971260
       -0.0217387370  -0.0375088843  -0.0005060203  -0.0243055898  -0.0009016762
       -0.0000036080  -0.0049978567
       -1.1557738299  -0.0139423982  -0.1229691656   1.5476927482   0.0191823585
        0.1616497520  -0.0136265478  -0.0000612203  -0.0010157012  -0.3782801570
       -0.0051844017  -0.0376652994
       -0.0139692696  -0.0087100211  -0.0014971260   0.0191823585   0.0340821573
        0.0020471166  -0.0001292142  -0.0049005701  -0.0000148806  -0.0050836814
       -0.0204694163  -0.0005351140
       -0.1229921691  -0.0014945336  -0.0217387370   0.1616497520   0.0020471166
        0.0511112172  -0.0009068113  -0.0000062576  -0.0050003569  -0.0377494310
       -0.0005469081  -0.0243724562
       -0.3784289678  -0.0047674920  -0.0375088843  -0.0136265478  -0.0001292142
       -0.0009068113   0.3923916446   0.0050277741   0.0395014473  -0.0003475542
       -0.0001259055  -0.0010853316
       -0.0048295955  -0.0204483598  -0.0005060203  -0.0000612203  -0.0049005701
       -0.0000062576   0.0050277741   0.0154793785   0.0005268057  -0.0001371235
        0.0098708054  -0.0000145229
       -0.0373925038  -0.0004979677  -0.0243055898  -0.0010157012  -0.0000148806
       -0.0050003569   0.0395014473   0.0005268057   0.0195546476  -0.0010944620
       -0.0000134465   0.0097516282
       -0.0136283604  -0.0001213484  -0.0009016762  -0.3782801570  -0.0050836814
       -0.0377494310  -0.0003475542  -0.0001371235  -0.0010944620   0.3922469243
        0.0053472519   0.0397459864
       -0.0000370865  -0.0049009671  -0.0000036080  -0.0051844017  -0.0204694163
       -0.0005469081  -0.0001259055   0.0098708054  -0.0000134465   0.0053472519
        0.0154995368   0.0005639673
       -0.0009962778  -0.0000138150  -0.0049978567  -0.0376652994  -0.0005351140
       -0.0243724562  -0.0010853316  -0.0000145229   0.0097516282   0.0397459864
        0.0005639673   0.0196190153
