[Molden Format]
[Title]
[Atoms] AU
C      1     6 -0.11211383981271E+01 -0.13927094210953E-01  0.11650308440463E+00
C      2     6  0.11211987170073E+01  0.13018848509485E-01  0.35730249359634E+00
H      3     1 -0.30933291859224E+01 -0.40282763598205E-01 -0.89949220199420E-01
H      4     1  0.30932721799482E+01  0.41192665730990E-01  0.56521881598081E+00
[GTO]
           1 0
 s           4   1.0000000000000000     
   51.049363095579913      -0.16312063210127389     
   8.7911227406887544      -0.19911024581000730     
  0.70640422258929825       0.31882047753655751     
  0.26922813413411617       0.12706504184240380     
 p           4   1.0000000000000000     
   5.8263656140800002       0.73716451545209605     
   1.5106896018720002       0.68216371614850257     
  0.53256483288000001       0.35783053929253711     
  0.21202323690600003        5.3983030275847881E-002

           2 0
 s           4   1.0000000000000000     
   51.049363095579913      -0.16312063210127389     
   8.7911227406887544      -0.19911024581000730     
  0.70640422258929825       0.31882047753655751     
  0.26922813413411617       0.12706504184240380     
 p           4   1.0000000000000000     
   5.8263656140800002       0.73716451545209605     
   1.5106896018720002       0.68216371614850257     
  0.53256483288000001       0.35783053929253711     
  0.21202323690600003        5.3983030275847881E-002

           3 0
 s           3   1.0000000000000000     
   3.3702276975336001       0.27359110588908298     
  0.61389118221497996       0.26460540653860526     
  0.16614291148415999        8.2465947534082318E-002

           4 0
 s           3   1.0000000000000000     
   3.3702276975336001       0.27359110588908298     
  0.61389118221497996       0.26460540653860526     
  0.16614291148415999        8.2465947534082318E-002

[MO]
Sym=     1a
Ene=  -0.60593930468684909     
Spin= Alpha
Occup=     2.00000000
           1  0.49340206041643403     
           2  0.18479927552749234     
           3   2.2123083278941945E-003
           4   1.9886961270010880E-002
           5  0.49339683081066216     
           6 -0.18480615833069394     
           7  -2.1829379359230784E-003
           8  -1.9863780329818365E-002
           9  0.10243531051295758     
          10  0.10242627118704194     
Sym=     2a
Ene=  -0.53262771370087381     
Spin= Alpha
Occup=     2.00000000
           1  0.35204039861957859     
           2 -0.26124173970080228     
           3  -3.4686218734293179E-003
           4  -2.7539533008841908E-002
           5 -0.35205158353270721     
           6 -0.26120900965274901     
           7  -3.5538171948228886E-003
           8  -2.7605517264868474E-002
           9  0.32597859736331936     
          10 -0.32596187364118262     
Sym=     3a
Ene=  -0.47725394634482893     
Spin= Alpha
Occup=     2.00000000
           1   7.1023245366939658E-002
           2 -0.39865360510229692     
           3  -4.7823371213341452E-003
           4  -4.2157776576985474E-002
           5   7.1041082218107246E-002
           6  0.39860599480952247     
           7   5.4131800218802789E-003
           8   4.2665094510198710E-002
           9  0.39884731856855254     
          10  0.39886964871007080     
Sym=     4a
Ene=  -0.42309671519346109     
Spin= Alpha
Occup=     2.00000000
           1   1.0893936240505338E-003
           2   4.7162109549101057E-002
           3  0.38650103776665806     
           4 -0.48952155342214249     
           5  -1.0849260962901507E-003
           6   4.7172228660885808E-002
           7  0.38650085853190430     
           8 -0.48951990193684430     
           9  -1.8859516961313173E-004
          10   1.9460988264957116E-004
Sym=     5a
Ene=  -0.42309658296146624     
Spin= Alpha
Occup=     2.00000000
           1  -1.7036715264347286E-004
           2  -4.6730568551886655E-002
           3  0.49172938862301435     
           4  0.38374215604399864     
           5  -1.6376717104022776E-004
           6  -4.7492455601265554E-002
           7  0.49171920078610104     
           8  0.38366062551814023     
           9  -2.2432753023278435E-004
          10  -2.2549849240781551E-004
Sym=     6a
Ene=  -0.15512471175285167     
Spin= Alpha
Occup=     0.00000000
           1   1.4512973012150052E-003
           2   6.2338794098353405E-002
           3  0.51090785655328164     
           4 -0.65390708061643843     
           5   1.4291036627107267E-003
           6  -6.2348863715941436E-002
           7 -0.51090755035898150     
           8  0.65390702715322846     
           9  -1.0085943879485383E-003
          10  -9.8880358684584981E-004
Sym=     7a
Ene=  -0.15512368399276866     
Spin= Alpha
Occup=     0.00000000
           1  -6.0336980022181348E-004
           2  -6.2092048381058806E-002
           3  0.65678539399422498     
           4  0.50723575317810221     
           5   6.0912394954421630E-004
           6   6.2635600917120726E-002
           7 -0.65677762843842480     
           8 -0.50717975484687006     
           9   5.3944411219098906E-004
          10  -5.4345546235152196E-004
Sym=     8a
Ene=    7.7028666252315095E-002
Spin= Alpha
Occup=     0.00000000
           1 -0.78877867533918300     
           2  0.16019765650049142     
           3   2.0930968809058110E-003
           4   1.5543900031525709E-002
           5  0.78888058077418688     
           6  0.16017798038918024     
           7   3.4665112024308675E-003
           8   1.6655791195720436E-002
           9  0.75277279407227526     
          10 -0.75291241662486974     
Sym=     9a
Ene=   0.34396626925972690     
Spin= Alpha
Occup=     0.00000000
           1 -0.63532995086515620     
           2  0.62917310147979444     
           3   9.1876102085808650E-003
           4   6.5026900811699220E-002
           5 -0.63512550536507961     
           6 -0.62913911296745151     
           7  -9.6062372945334446E-003
           8  -6.5363716148780782E-002
           9  0.82894357192434875     
          10  0.82879381325794443     
Sym=    10a
Ene=    1.4595335736094832     
Spin= Alpha
Occup=     0.00000000
           1  0.76462099132837702     
           2   1.3197583911485729     
           3   1.6106876503219146E-002
           4  0.14101225353110028     
           5 -0.76466887524347804     
           6   1.3196819885255699     
           7   1.6481265087958705E-002
           8  0.14130886923865474     
           9  0.52641102109757087     
          10 -0.52635418047882021     
