4
 energy: -5.206771510250 gnorm: 0.000650394475 xtb: 6.2.2 (9d81278992624c895f80dd42a50cac0aa55982e2)
C        -0.59328094560170   -0.00736990155431    0.06165078298679
C         0.59331286498145    0.00688927858260    0.18907635455248
H        -1.63691946288442   -0.02131672246613   -0.04759908188427
H         1.63688929661919    0.02179822198362    0.29910094434117
