 Entering Gaussian System
 *********************************************
 Gaussian 98:
 frequency output generated by the xtb code
 *********************************************
                         Standard orientation:
 --------------------------------------------------------------------
  Center     Atomic     Atomic              Coordinates (Angstroms)
  Number     Number      Type              X           Y           Z
 --------------------------------------------------------------------
    1          7             0        0.980837   -0.031869    0.649027
    2          6             0       -0.297210    0.003833   -0.012384
    3          7             0        1.031917    0.005912   -0.565160
    4          1             0       -0.868457   -0.911659   -0.064903
    5          1             0       -0.847087    0.933784   -0.006580
 --------------------------------------------------------------------
     1 basis functions        1 primitive gaussians
     1 alpha electrons        1 beta electrons

 Harmonic frequencies (cm**-1), IR intensities (KM/Mole),
 Raman scattering activities (A**4/amu), Raman depolarization ratios,
 reduced masses (AMU), force constants (mDyne/A) and normal coordinates:
                      1                      2                      3
                        a                      a                      a 
 Frequencies --   953.8639               980.9642               983.6083
 Red. masses --    11.5565                 2.8591                 5.0354
 Frc consts  --     0.0000                 0.0000                 0.0000
 IR Inten    --     0.1981                 0.0027                 0.0923
 Raman Activ --     0.0000                 0.0000                 0.0000
 Depolar     --     0.0000                 0.0000                 0.0000
 Atom AN      X      Y      Z        X      Y      Z        X      Y      Z
   1   7     0.55  -0.01   0.25    -0.00  -0.27  -0.01    -0.09   0.01  -0.11
   2   6     0.01   0.01  -0.32    -0.00  -0.00   0.01    -0.02  -0.02   0.56
   3   7    -0.57  -0.00   0.20     0.00   0.27   0.01     0.10  -0.01  -0.11
   4   1     0.01   0.01  -0.30    -0.03  -0.02   0.64     0.02   0.02  -0.58
   5   1     0.01   0.01  -0.29     0.03   0.02  -0.67     0.02   0.02  -0.55
                      4                      5                      6
                        a                      a                      a 
 Frequencies --  1091.3439              1195.7166              1444.1783
 Red. masses --     3.5965                11.9561                 2.1196
 Frc consts  --     0.0000                 0.0000                 0.0000
 IR Inten    --     0.3134                 0.1432                 0.0925
 Raman Activ --     0.0000                 0.0000                 0.0000
 Depolar     --     0.0000                 0.0000                 0.0000
 Atom AN      X      Y      Z        X      Y      Z        X      Y      Z
   1   7    -0.00  -0.14  -0.00    -0.40  -0.00   0.17     0.02  -0.00   0.11
   2   6     0.01   0.44   0.01     0.74  -0.01   0.03     0.27  -0.00   0.01
   3   7    -0.00  -0.14  -0.00    -0.39   0.01  -0.20     0.03   0.00  -0.10
   4   1     0.57  -0.25   0.02     0.19  -0.00   0.01    -0.56   0.37  -0.01
   5   1    -0.57  -0.24  -0.03     0.19  -0.00   0.01    -0.57  -0.36  -0.04
                      7                      8                      9
                        a                      a                      a 
 Frequencies --  1799.6279              3091.1464              3101.8547
 Red. masses --    13.7385                 1.4127                 2.1205
 Frc consts  --     0.0000                 0.0000                 0.0000
 IR Inten    --     0.9431                 0.1767                 0.2909
 Raman Activ --     0.0000                 0.0000                 0.0000
 Depolar     --     0.0000                 0.0000                 0.0000
 Atom AN      X      Y      Z        X      Y      Z        X      Y      Z
   1   7     0.08  -0.02   0.68    -0.01  -0.00   0.02     0.00   0.00   0.00
   2   6    -0.24   0.00  -0.01    -0.19   0.00  -0.01     0.00   0.32   0.01
   3   7     0.13   0.02  -0.67    -0.00   0.00  -0.02     0.00   0.00   0.00
   4   1     0.03  -0.07  -0.00     0.35   0.60   0.03    -0.37  -0.56  -0.03
   5   1     0.03   0.07   0.00     0.34  -0.61  -0.00     0.36  -0.57  -0.00
