4
 energy: -8.912874099383 gnorm: 0.000230355769 xtb: 6.2.2 (9d81278992624c895f80dd42a50cac0aa55982e2)
C        -1.08555988784691    0.02042280403992    0.10116879459591
C        -0.00434000172310   -0.86204290473410    0.01221571563362
C         1.08556837559982    0.00660224142944   -0.10293226593076
N         0.00433151397019    0.83501785926474   -0.01045224429877
