 Entering Gaussian System, Link 0=g16
 Initial command:
 /applis/site/cecic/gaussian16/B.01/nehalem/g16/l1.exe "/bettik/tinaccil/g16/12754506_O/Gau-226725.inp" -scrdir="/bettik/tinaccil/g16/12754506_O/"
 Entering Link 1 = /applis/site/cecic/gaussian16/B.01/nehalem/g16/l1.exe PID=    226737.
  
 Copyright (c) 1988-2017, Gaussian, Inc.  All Rights Reserved.
  
 This is part of the Gaussian(R) 16 program.  It is based on
 the Gaussian(R) 09 system (copyright 2009, Gaussian, Inc.),
 the Gaussian(R) 03 system (copyright 2003, Gaussian, Inc.),
 the Gaussian(R) 98 system (copyright 1998, Gaussian, Inc.),
 the Gaussian(R) 94 system (copyright 1995, Gaussian, Inc.),
 the Gaussian 92(TM) system (copyright 1992, Gaussian, Inc.),
 the Gaussian 90(TM) system (copyright 1990, Gaussian, Inc.),
 the Gaussian 88(TM) system (copyright 1988, Gaussian, Inc.),
 the Gaussian 86(TM) system (copyright 1986, Carnegie Mellon
 University), and the Gaussian 82(TM) system (copyright 1983,
 Carnegie Mellon University). Gaussian is a federally registered
 trademark of Gaussian, Inc.
  
 This software contains proprietary and confidential information,
 including trade secrets, belonging to Gaussian, Inc.
  
 This software is provided under written license and may be
 used, copied, transmitted, or stored only in accord with that
 written license.
  
 The following legend is applicable only to US Government
 contracts under FAR:
  
                    RESTRICTED RIGHTS LEGEND
  
 Use, reproduction and disclosure by the US Government is
 subject to restrictions as set forth in subparagraphs (a)
 and (c) of the Commercial Computer Software - Restricted
 Rights clause in FAR 52.227-19.
  
 Gaussian, Inc.
 340 Quinnipiac St., Bldg. 40, Wallingford CT 06492
  
  
 ---------------------------------------------------------------
 Warning -- This program may not be used in any manner that
 competes with the business of Gaussian, Inc. or will provide
 assistance to any competitor of Gaussian, Inc.  The licensee
 of this program is prohibited from giving any competitor of
 Gaussian, Inc. access to this program.  By using this program,
 the user acknowledges that Gaussian, Inc. is engaged in the
 business of creating and licensing software in the field of
 computational chemistry and represents and warrants to the
 licensee that it is not a competitor of Gaussian, Inc. and that
 it will not use this program in any manner prohibited above.
 ---------------------------------------------------------------
  

 Cite this work as:
 Gaussian 16, Revision B.01,
 M. J. Frisch, G. W. Trucks, H. B. Schlegel, G. E. Scuseria, 
 M. A. Robb, J. R. Cheeseman, G. Scalmani, V. Barone, 
 G. A. Petersson, H. Nakatsuji, X. Li, M. Caricato, A. V. Marenich, 
 J. Bloino, B. G. Janesko, R. Gomperts, B. Mennucci, H. P. Hratchian, 
 J. V. Ortiz, A. F. Izmaylov, J. L. Sonnenberg, D. Williams-Young, 
 F. Ding, F. Lipparini, F. Egidi, J. Goings, B. Peng, A. Petrone, 
 T. Henderson, D. Ranasinghe, V. G. Zakrzewski, J. Gao, N. Rega, 
 G. Zheng, W. Liang, M. Hada, M. Ehara, K. Toyota, R. Fukuda, 
 J. Hasegawa, M. Ishida, T. Nakajima, Y. Honda, O. Kitao, H. Nakai, 
 T. Vreven, K. Throssell, J. A. Montgomery, Jr., J. E. Peralta, 
 F. Ogliaro, M. J. Bearpark, J. J. Heyd, E. N. Brothers, K. N. Kudin, 
 V. N. Staroverov, T. A. Keith, R. Kobayashi, J. Normand, 
 K. Raghavachari, A. P. Rendell, J. C. Burant, S. S. Iyengar, 
 J. Tomasi, M. Cossi, J. M. Millam, M. Klene, C. Adamo, R. Cammi, 
 J. W. Ochterski, R. L. Martin, K. Morokuma, O. Farkas, 
 J. B. Foresman, and D. J. Fox, Gaussian, Inc., Wallingford CT, 2016.
 
 ******************************************
 Gaussian 16:  ES64L-G16RevB.01 20-Dec-2017
                 5-Oct-2020 
 ******************************************
 %nosave
 %nproc=8
 Will use up to    8 processors via shared memory.
 %mem=2gb
 %chk=input
 ------------------------
 #P ROCCSD(T)/aug-cc-pvtz
 ------------------------
 1/38=1,172=1/1;
 2/12=2,17=6,18=5,40=1/2;
 3/5=16,6=1,7=10,11=2,25=1,30=1,116=101/1,2,3;
 4//1;
 5/5=2,38=5/2;
 8/5=-1,6=4,9=120000,10=1/1,4;
 9/5=7,14=2/13;
 6/7=2,8=2,9=2,10=2/1;
 99/5=1,9=1/99;
 Leave Link    1 at Mon Oct  5 21:36:17 2020, MaxMem=   268435456 cpu:               0.9 elap:               0.2
 (Enter /applis/site/cecic/gaussian16/B.01/nehalem/g16/l101.exe)
 -----
 Title
 -----
 Symbolic Z-matrix:
 Charge =  1 Multiplicity = 4
 O
 
 ITRead=  0
 MicOpt= -1
 NAtoms=      1 NQM=        1 NQMF=       0 NMMI=      0 NMMIF=      0
                NMic=       0 NMicF=      0.
                    Isotopes and Nuclear Properties:
 (Nuclear quadrupole moments (NQMom) in fm**2, nuclear magnetic moments (NMagM)
  in nuclear magnetons)

  Atom         1
 IAtWgt=          16
 AtmWgt=  15.9949146
 NucSpn=           0
 AtZEff=  -0.0000000
 NQMom=    0.0000000
 NMagM=    0.0000000
 AtZNuc=   8.0000000
 Leave Link  101 at Mon Oct  5 21:36:17 2020, MaxMem=   268435456 cpu:               1.5 elap:               0.2
 (Enter /applis/site/cecic/gaussian16/B.01/nehalem/g16/l202.exe)
                          Input orientation:                          
 ---------------------------------------------------------------------
 Center     Atomic      Atomic             Coordinates (Angstroms)
 Number     Number       Type             X           Y           Z
 ---------------------------------------------------------------------
      1          8           0        0.000000    0.000000    0.000000
 ---------------------------------------------------------------------
 Stoichiometry    O(1+,4)
 Framework group  OH[O(O)]
 Deg. of freedom     0
 Full point group                 OH      NOp  48
 Largest Abelian subgroup         D2H     NOp   8
 Largest concise Abelian subgroup C1      NOp   1
                         Standard orientation:                         
 ---------------------------------------------------------------------
 Center     Atomic      Atomic             Coordinates (Angstroms)
 Number     Number       Type             X           Y           Z
 ---------------------------------------------------------------------
      1          8           0        0.000000    0.000000    0.000000
 ---------------------------------------------------------------------
 Leave Link  202 at Mon Oct  5 21:36:17 2020, MaxMem=   268435456 cpu:               0.5 elap:               0.1
 (Enter /applis/site/cecic/gaussian16/B.01/nehalem/g16/l301.exe)
 Standard basis: Aug-CC-pVTZ (5D, 7F)
 Ernie: Thresh=  0.10000D-02 Tol=  0.10000D-05 Strict=F.
 Ernie:  3 primitive shells out of 30 were deleted.
 There are    14 symmetry adapted cartesian basis functions of AG  symmetry.
 There are     3 symmetry adapted cartesian basis functions of B1G symmetry.
 There are     3 symmetry adapted cartesian basis functions of B2G symmetry.
 There are     3 symmetry adapted cartesian basis functions of B3G symmetry.
 There are     2 symmetry adapted cartesian basis functions of AU  symmetry.
 There are    10 symmetry adapted cartesian basis functions of B1U symmetry.
 There are    10 symmetry adapted cartesian basis functions of B2U symmetry.
 There are    10 symmetry adapted cartesian basis functions of B3U symmetry.
 There are    11 symmetry adapted basis functions of AG  symmetry.
 There are     3 symmetry adapted basis functions of B1G symmetry.
 There are     3 symmetry adapted basis functions of B2G symmetry.
 There are     3 symmetry adapted basis functions of B3G symmetry.
 There are     2 symmetry adapted basis functions of AU  symmetry.
 There are     8 symmetry adapted basis functions of B1U symmetry.
 There are     8 symmetry adapted basis functions of B2U symmetry.
 There are     8 symmetry adapted basis functions of B3U symmetry.
    46 basis functions,    72 primitive gaussians,    55 cartesian basis functions
     5 alpha electrons        2 beta electrons
       nuclear repulsion energy         0.0000000000 Hartrees.
 IExCor=    0 DFT=F Ex=HF Corr=None ExCW=0 ScaHFX=  1.000000
 ScaDFX=  1.000000  1.000000  1.000000  1.000000 ScalE2=  1.000000  1.000000
 IRadAn=      5 IRanWt=     -1 IRanGd=            0 ICorTp=0 IEmpDi=  4
 NAtoms=    1 NActive=    1 NUniq=    1 SFac= 1.00D+00 NAtFMM=   60 NAOKFM=F Big=F
 Integral buffers will be    131072 words long.
 Raffenetti 2 integral format.
 Two-electron integral symmetry is turned on.
 Leave Link  301 at Mon Oct  5 21:36:17 2020, MaxMem=   268435456 cpu:               0.8 elap:               0.2
 (Enter /applis/site/cecic/gaussian16/B.01/nehalem/g16/l302.exe)
 NPDir=0 NMtPBC=     1 NCelOv=     1 NCel=       1 NClECP=     1 NCelD=      1
         NCelK=      1 NCelE2=     1 NClLst=     1 CellRange=     0.0.
 One-electron integrals computed using PRISM.
 One-electron integral symmetry used in STVInt
 NBasis=    46 RedAO= T EigKep=  3.38D-02  NBF=    11     3     3     3     2     8     8     8
 NBsUse=    46 1.00D-06 EigRej= -1.00D+00 NBFU=    11     3     3     3     2     8     8     8
 Leave Link  302 at Mon Oct  5 21:36:18 2020, MaxMem=   268435456 cpu:               1.6 elap:               0.3
 (Enter /applis/site/cecic/gaussian16/B.01/nehalem/g16/l303.exe)
 DipDrv:  MaxL=1.
 Leave Link  303 at Mon Oct  5 21:36:18 2020, MaxMem=   268435456 cpu:               0.9 elap:               0.2
 (Enter /applis/site/cecic/gaussian16/B.01/nehalem/g16/l401.exe)
 ExpMin= 5.97D-02 ExpMax= 1.53D+04 ExpMxC= 5.22D+02 IAcc=3 IRadAn=         5 AccDes= 0.00D+00
 Harris functional with IExCor=  205 and IRadAn=       5 diagonalized for initial guess.
 HarFok:  IExCor=  205 AccDes= 0.00D+00 IRadAn=         5 IDoV= 1 UseB2=F ITyADJ=14
 ICtDFT=  3500011 ScaDFX=  1.000000  1.000000  1.000000  1.000000
 FoFCou: FMM=F IPFlag=           0 FMFlag=      100000 FMFlg1=           0
         NFxFlg=           0 DoJE=T BraDBF=F KetDBF=T FulRan=T
         wScrn=  0.000000 ICntrl=       500 IOpCl=  0 I1Cent=   200000004 NGrid=           0
         NMat0=    1 NMatS0=      1 NMatT0=    0 NMatD0=    1 NMtDS0=    0 NMtDT0=    0
 Petite list used in FoFCou.
 Harris En= -74.2883419572645    
 JPrj=0 DoOrth=F DoCkMO=F.
 Initial guess orbital symmetries:
       Occupied  (A1G) (A1G) (T1U) (T1U) (T1U)
       Virtual   (A1G) (T1U) (T1U) (T1U) (T2G) (T2G) (T2G) (EG)
                 (EG) (T1U) (T1U) (T1U) (A1G) (T2U) (T2U) (T2U)
                 (A2U) (T1U) (T1U) (T1U) (T2G) (T2G) (T2G) (EG)
                 (EG) (T1U) (T1U) (T1U) (T2U) (T2U) (T2U) (A2U)
                 (T1U) (T1U) (T1U) (T2G) (T2G) (T2G) (EG) (EG)
                 (A1G)
 The electronic state of the initial guess is 4-A1G.
 Leave Link  401 at Mon Oct  5 21:36:18 2020, MaxMem=   268435456 cpu:               1.7 elap:               0.3
 (Enter /applis/site/cecic/gaussian16/B.01/nehalem/g16/l502.exe)
 Keep R1 and R2 ints in memory in symmetry-blocked form, NReq=4488473.
 FoFCou: FMM=F IPFlag=           0 FMFlag=           0 FMFlg1=           0
         NFxFlg=           0 DoJE=F BraDBF=F KetDBF=F FulRan=T
         wScrn=  0.000000 ICntrl=       600 IOpCl=  0 I1Cent=           0 NGrid=           0
         NMat0=    1 NMatS0=   1081 NMatT0=    0 NMatD0=    1 NMtDS0=    0 NMtDT0=    0
 Petite list used in FoFCou.
 Restricted open shell SCF:
 Using DIIS extrapolation, IDIIS=  1040.
 NGot=   268435456 LenX=   268267006 LenY=   268263540
 Requested convergence on RMS density matrix=1.00D-08 within 128 cycles.
 Requested convergence on MAX density matrix=1.00D-06.
 Requested convergence on             energy=1.00D-06.
 No special actions if energy rises.

 Cycle   1  Pass 1  IDiag  1:
 E= -74.2114864271560    
 DIIS: error= 1.18D-01 at cycle   1 NSaved=   1.
 NSaved= 1 IEnMin= 1 EnMin= -74.2114864271560     IErMin= 1 ErrMin= 1.18D-01
 ErrMax= 1.18D-01  0.00D+00 EMaxC= 1.00D-01 BMatC= 3.13D-01 BMatP= 3.13D-01
 IDIUse=3 WtCom= 0.00D+00 WtEn= 1.00D+00
 Coeff-Com:  0.100D+01
 Coeff-En:   0.100D+01
 Coeff:      0.100D+01
 Gap=     0.524 Goal=   None    Shift=    0.000
 GapD=    0.524 DampG=2.000 DampE=0.250 DampFc=0.5000 IDamp=-1.
 Damping current iteration by 5.00D-01
 RMSDP=8.77D-03 MaxDP=1.22D-01              OVMax= 2.90D-01

 Cycle   2  Pass 1  IDiag  1:
 E= -74.2547690386054     Delta-E=       -0.043282611449 Rises=F Damp=T
 DIIS: error= 3.71D-02 at cycle   2 NSaved=   2.
 NSaved= 2 IEnMin= 2 EnMin= -74.2547690386054     IErMin= 2 ErrMin= 3.71D-02
 ErrMax= 3.71D-02  0.00D+00 EMaxC= 1.00D-01 BMatC= 3.58D-02 BMatP= 3.13D-01
 IDIUse=3 WtCom= 6.29D-01 WtEn= 3.71D-01
 Coeff-Com:  0.960D-01 0.904D+00
 Coeff-En:   0.376D+00 0.624D+00
 Coeff:      0.200D+00 0.800D+00
 Gap=     0.466 Goal=   None    Shift=    0.000
 RMSDP=3.02D-03 MaxDP=5.32D-02 DE=-4.33D-02 OVMax= 2.13D-01

 Cycle   3  Pass 1  IDiag  1:
 E= -74.3383434810532     Delta-E=       -0.083574442448 Rises=F Damp=F
 DIIS: error= 4.69D-02 at cycle   3 NSaved=   3.
 NSaved= 3 IEnMin= 3 EnMin= -74.3383434810532     IErMin= 2 ErrMin= 3.71D-02
 ErrMax= 4.69D-02  0.00D+00 EMaxC= 1.00D-01 BMatC= 3.07D-02 BMatP= 3.58D-02
 IDIUse=3 WtCom= 5.31D-01 WtEn= 4.69D-01
 Coeff-Com: -0.121D+00 0.471D+00 0.650D+00
 Coeff-En:   0.000D+00 0.000D+00 0.100D+01
 Coeff:     -0.640D-01 0.250D+00 0.814D+00
 Gap=     0.451 Goal=   None    Shift=    0.000
 RMSDP=3.52D-03 MaxDP=6.57D-02 DE=-8.36D-02 OVMax= 1.20D-01

 Cycle   4  Pass 1  IDiag  1:
 E= -74.3631925378279     Delta-E=       -0.024849056775 Rises=F Damp=F
 DIIS: error= 1.09D-02 at cycle   4 NSaved=   4.
 NSaved= 4 IEnMin= 4 EnMin= -74.3631925378279     IErMin= 4 ErrMin= 1.09D-02
 ErrMax= 1.09D-02  0.00D+00 EMaxC= 1.00D-01 BMatC= 3.66D-03 BMatP= 3.07D-02
 IDIUse=3 WtCom= 8.91D-01 WtEn= 1.09D-01
 Coeff-Com: -0.451D-01 0.152D+00 0.350D+00 0.543D+00
 Coeff-En:   0.000D+00 0.000D+00 0.246D+00 0.754D+00
 Coeff:     -0.402D-01 0.135D+00 0.339D+00 0.566D+00
 Gap=     0.436 Goal=   None    Shift=    0.000
 RMSDP=1.48D-03 MaxDP=2.72D-02 DE=-2.48D-02 OVMax= 4.24D-02

 Cycle   5  Pass 1  IDiag  1:
 E= -74.3656088315630     Delta-E=       -0.002416293735 Rises=F Damp=F
 DIIS: error= 7.29D-03 at cycle   5 NSaved=   5.
 NSaved= 5 IEnMin= 5 EnMin= -74.3656088315630     IErMin= 5 ErrMin= 7.29D-03
 ErrMax= 7.29D-03  0.00D+00 EMaxC= 1.00D-01 BMatC= 6.79D-04 BMatP= 3.66D-03
 IDIUse=3 WtCom= 9.27D-01 WtEn= 7.29D-02
 EnCoef did    86 forward-backward iterations
 Coeff-Com: -0.112D-01 0.368D-01-0.113D+00-0.718D-02 0.109D+01
 Coeff-En:   0.000D+00 0.000D+00 0.851D-01 0.453D+00 0.461D+00
 Coeff:     -0.104D-01 0.341D-01-0.984D-01 0.264D-01 0.105D+01
 Gap=     0.427 Goal=   None    Shift=    0.000
 RMSDP=3.32D-04 MaxDP=5.91D-03 DE=-2.42D-03 OVMax= 1.17D-02

 Cycle   6  Pass 1  IDiag  1:
 E= -74.3662280311184     Delta-E=       -0.000619199555 Rises=F Damp=F
 DIIS: error= 1.50D-03 at cycle   6 NSaved=   6.
 NSaved= 6 IEnMin= 6 EnMin= -74.3662280311184     IErMin= 6 ErrMin= 1.50D-03
 ErrMax= 1.50D-03  0.00D+00 EMaxC= 1.00D-01 BMatC= 2.89D-05 BMatP= 6.79D-04
 IDIUse=3 WtCom= 9.85D-01 WtEn= 1.50D-02
 EnCoef did    14 forward-backward iterations
 Coeff-Com: -0.560D-02 0.122D-01 0.116D-01-0.333D-01-0.231D+00 0.125D+01
 Coeff-En:   0.000D+00 0.000D+00 0.720D-01 0.245D+00 0.000D+00 0.683D+00
 Coeff:     -0.551D-02 0.120D-01 0.125D-01-0.291D-01-0.227D+00 0.124D+01
 Gap=     0.427 Goal=   None    Shift=    0.000
 RMSDP=4.98D-05 MaxDP=7.43D-04 DE=-6.19D-04 OVMax= 1.59D-03

 Cycle   7  Pass 1  IDiag  1:
 E= -74.3662488051558     Delta-E=       -0.000020774037 Rises=F Damp=F
 DIIS: error= 5.88D-04 at cycle   7 NSaved=   7.
 NSaved= 7 IEnMin= 7 EnMin= -74.3662488051558     IErMin= 7 ErrMin= 5.88D-04
 ErrMax= 5.88D-04  0.00D+00 EMaxC= 1.00D-01 BMatC= 4.37D-06 BMatP= 2.89D-05
 IDIUse=3 WtCom= 9.94D-01 WtEn= 5.88D-03
 EnCoef did   100 forward-backward iterations
 Coeff-Com: -0.120D-02 0.287D-02-0.653D-02-0.730D-02-0.120D-01-0.497D-01
 Coeff-Com:  0.107D+01
 Coeff-En:   0.000D+00 0.000D+00 0.717D-01 0.218D+00 0.000D+00 0.905D-01
 Coeff-En:   0.620D+00
 Coeff:     -0.119D-02 0.285D-02-0.607D-02-0.597D-02-0.119D-01-0.489D-01
 Coeff:      0.107D+01
 Gap=     0.427 Goal=   None    Shift=    0.000
 RMSDP=2.43D-05 MaxDP=3.68D-04 DE=-2.08D-05 OVMax= 8.78D-04

 Cycle   8  Pass 1  IDiag  1:
 E= -74.3662525709004     Delta-E=       -0.000003765745 Rises=F Damp=F
 DIIS: error= 1.22D-04 at cycle   8 NSaved=   8.
 NSaved= 8 IEnMin= 8 EnMin= -74.3662525709004     IErMin= 8 ErrMin= 1.22D-04
 ErrMax= 1.22D-04  0.00D+00 EMaxC= 1.00D-01 BMatC= 1.90D-07 BMatP= 4.37D-06
 IDIUse=3 WtCom= 9.99D-01 WtEn= 1.22D-03
 EnCoef did   100 forward-backward iterations
 Coeff-Com: -0.100D-03 0.184D-03-0.106D-02 0.625D-04 0.120D-01-0.659D-01
 Coeff-Com: -0.104D+00 0.116D+01
 Coeff-En:   0.000D+00 0.000D+00 0.761D-01 0.212D+00 0.000D+00 0.383D-01
 Coeff-En:   0.606D-01 0.613D+00
 Coeff:     -0.100D-03 0.184D-03-0.962D-03 0.321D-03 0.120D-01-0.658D-01
 Coeff:     -0.104D+00 0.116D+01
 Gap=     0.427 Goal=   None    Shift=    0.000
 RMSDP=5.93D-06 MaxDP=1.00D-04 DE=-3.77D-06 OVMax= 2.08D-04

 Cycle   9  Pass 1  IDiag  1:
 E= -74.3662527324399     Delta-E=       -0.000000161539 Rises=F Damp=F
 DIIS: error= 5.87D-06 at cycle   9 NSaved=   9.
 NSaved= 9 IEnMin= 9 EnMin= -74.3662527324399     IErMin= 9 ErrMin= 5.87D-06
 ErrMax= 5.87D-06  0.00D+00 EMaxC= 1.00D-01 BMatC= 4.71D-10 BMatP= 1.90D-07
 IDIUse=1 WtCom= 1.00D+00 WtEn= 0.00D+00
 Coeff-Com:  0.575D-05-0.239D-05-0.520D-04-0.910D-04-0.108D-02 0.196D-02
 Coeff-Com:  0.440D-01-0.224D+00 0.118D+01
 Coeff:      0.575D-05-0.239D-05-0.520D-04-0.910D-04-0.108D-02 0.196D-02
 Coeff:      0.440D-01-0.224D+00 0.118D+01
 Gap=     0.427 Goal=   None    Shift=    0.000
 RMSDP=3.27D-07 MaxDP=5.62D-06 DE=-1.62D-07 OVMax= 1.08D-05

 Cycle  10  Pass 1  IDiag  1:
 E= -74.3662527328219     Delta-E=       -0.000000000382 Rises=F Damp=F
 DIIS: error= 1.99D-07 at cycle  10 NSaved=  10.
 NSaved=10 IEnMin=10 EnMin= -74.3662527328219     IErMin=10 ErrMin= 1.99D-07
 ErrMax= 1.99D-07  0.00D+00 EMaxC= 1.00D-01 BMatC= 7.47D-13 BMatP= 4.71D-10
 IDIUse=1 WtCom= 1.00D+00 WtEn= 0.00D+00
 Coeff-Com: -0.446D-06 0.768D-06-0.255D-05 0.190D-05 0.335D-04-0.305D-04
 Coeff-Com:  0.139D-02-0.250D-02-0.483D-01 0.105D+01
 Coeff:     -0.446D-06 0.768D-06-0.255D-05 0.190D-05 0.335D-04-0.305D-04
 Coeff:      0.139D-02-0.250D-02-0.483D-01 0.105D+01
 Gap=     0.427 Goal=   None    Shift=    0.000
 RMSDP=1.60D-08 MaxDP=2.83D-07 DE=-3.82D-10 OVMax= 5.21D-07

 Cycle  11  Pass 1  IDiag  1:
 E= -74.3662527328227     Delta-E=       -0.000000000001 Rises=F Damp=F
 DIIS: error= 3.28D-08 at cycle  11 NSaved=  11.
 NSaved=11 IEnMin=11 EnMin= -74.3662527328227     IErMin=11 ErrMin= 3.28D-08
 ErrMax= 3.28D-08  0.00D+00 EMaxC= 1.00D-01 BMatC= 1.42D-14 BMatP= 7.47D-13
 IDIUse=1 WtCom= 1.00D+00 WtEn= 0.00D+00
 Coeff-Com: -0.599D-08 0.223D-07-0.441D-08-0.274D-06-0.123D-05-0.697D-06
 Coeff-Com: -0.606D-04-0.166D-03 0.310D-02-0.588D-01 0.106D+01
 Coeff:     -0.599D-08 0.223D-07-0.441D-08-0.274D-06-0.123D-05-0.697D-06
 Coeff:     -0.606D-04-0.166D-03 0.310D-02-0.588D-01 0.106D+01
 Gap=     0.427 Goal=   None    Shift=    0.000
 RMSDP=1.65D-09 MaxDP=2.89D-08 DE=-7.82D-13 OVMax= 5.66D-08

 SCF Done:  E(ROHF) =  -74.3662527328     A.U. after   11 cycles
            NFock= 11  Conv=0.17D-08     -V/T= 2.0002
 <Sx>= 0.0000 <Sy>= 0.0000 <Sz>= 1.5000 <S**2>= 3.7500 S= 1.5000
 <L.S>= 0.000000000000E+00
 KE= 7.435306148163D+01 PE=-1.728087034590D+02 EE= 2.408938924452D+01
 Annihilation of the first spin contaminant:
 S**2 before annihilation     3.7500,   after     3.7500
 Leave Link  502 at Mon Oct  5 21:36:19 2020, MaxMem=   268435456 cpu:               5.5 elap:               0.8
 (Enter /applis/site/cecic/gaussian16/B.01/nehalem/g16/l801.exe)
 Windowed orbitals will be sorted by symmetry type.
 GenMOA:  NOpAll= 48 NOp2=8 NOpUse= 48 JSym2X=1
 FoFJK:  IHMeth= 1 ICntrl=       0 DoSepK=F KAlg= 0 I1Cent=           0 FoldK=F
 IRaf=         0 NMat=       1 IRICut=       1 DoRegI=T DoRafI=F ISym2E= 1 IDoP0=0 IntGTp=1.
 FoFCou: FMM=F IPFlag=           0 FMFlag=      100000 FMFlg1=           0
         NFxFlg=           0 DoJE=F BraDBF=F KetDBF=F FulRan=T
         wScrn=  0.000000 ICntrl=         0 IOpCl=  1 I1Cent=           0 NGrid=           0
         NMat0=    1 NMatS0=      1 NMatT0=    0 NMatD0=    1 NMtDS0=    0 NMtDT0=    0
 Petite list used in FoFCou.
 <Sx>= 0.0000 <Sy>= 0.0000 <Sz>= 1.5000 <S**2>= 3.7500 S= 1.5000
 ExpMin= 5.97D-02 ExpMax= 1.53D+04 ExpMxC= 5.22D+02 IAcc=3 IRadAn=         5 AccDes= 0.00D+00
 HarFok:  IExCor=  205 AccDes= 0.00D+00 IRadAn=         5 IDoV=-2 UseB2=F ITyADJ=14
 ICtDFT= 12500011 ScaDFX=  1.000000  1.000000  1.000000  1.000000
 Largest valence mixing into a core orbital is  6.49D-05
 Largest core mixing into a valence orbital is  2.59D-06
 Largest valence mixing into a core orbital is  1.32D-04
 Largest core mixing into a valence orbital is  6.99D-05
 Range of M.O.s used for correlation:     2    46
 NBasis=    46 NAE=     5 NBE=     2 NFC=     1 NFV=     0
 NROrb=     45 NOA=     4 NOB=     1 NVA=    41 NVB=    44
 Singles contribution to E2=   -0.2980436103D-02
 Leave Link  801 at Mon Oct  5 21:36:20 2020, MaxMem=   268435456 cpu:               3.5 elap:               0.5
 (Enter /applis/site/cecic/gaussian16/B.01/nehalem/g16/l804.exe)
 Open-shell transformation, MDV=   268435456 ITran=4 ISComp=2.
 Unit  1 TFree=         71194 TCopy=        252061.
 Semi-Direct transformation.
 ModeAB=           2 MOrb=             4 LenV=     268163413
 LASXX=        21445 LTotXX=       21445 LenRXX=       21445
 LTotAB=       23654 MaxLAS=      277200 LenRXY=      277200
 NonZer=      303660 LenScr=      786432 LnRSAI=           0
 LnScr1=           0 LExtra=           0 Total=      1085077
 MaxDsk=          -1 SrtSym=           F ITran=            4
 DoSDTr:  NPSUse=  8
 JobTyp=1 Pass  1:  I=   1 to   4.
 (rs|ai) integrals will be sorted in core.
 Complete sort for first half transformation.
 First half transformation complete.
 Complete sort for second half transformation.
 Second half transformation complete.
 ModeAB=           2 MOrb=             1 LenV=     268163413
 LASXX=         5722 LTotXX=        5722 LenRXX=       69300
 LTotAB=        5217 MaxLAS=       69300 LenRXY=        5217
 NonZer=       75915 LenScr=      720896 LnRSAI=           0
 LnScr1=           0 LExtra=           0 Total=       795413
 MaxDsk=          -1 SrtSym=           F ITran=            4
 DoSDTr:  NPSUse=  8
 JobTyp=2 Pass  1:  I=   1 to   1.
 (rs|ai) integrals will be sorted in core.
 Complete sort for first half transformation.
 First half transformation complete.
 Complete sort for second half transformation.
 Second half transformation complete.
 Spin components of T(2) and E(2):
     alpha-alpha T2 =       0.4521132147D-02 E2=     -0.2937938768D-01
     alpha-beta  T2 =       0.1321803864D-01 E2=     -0.7020177480D-01
     beta-beta   T2 =       0.0000000000D+00 E2=      0.0000000000D+00
 ANorm=    0.1009495172D+01
 E2 =    -0.1025615986D+00 EUMP2 =    -0.74468814331402D+02
 (S**2,0)=  0.37500D+01           (S**2,1)=  0.37500D+01
 E(PUHF)=      -0.74366252733D+02        E(PMP2)=      -0.74468814331D+02
 Leave Link  804 at Mon Oct  5 21:36:20 2020, MaxMem=   268435456 cpu:               3.0 elap:               0.4
 (Enter /applis/site/cecic/gaussian16/B.01/nehalem/g16/l913.exe)
 CIDS:  MDV=   268435456.
 Frozen-core window:  NFC=   1 NFV=   0.
 IFCWin=0 IBDFC=1 NFBD=     0     0 NFCmp=     0     0 NFFFC=     0     0
 Using original routines for 1st iteration.
 Using DD4UQ or CC4UQ for 2nd and later iterations.
 Keep R2 and R3 ints in memory in symmetry-blocked form, NReq=4492022.
 FoFCou: FMM=F IPFlag=           0 FMFlag=           0 FMFlg1=           0
         NFxFlg=           0 DoJE=F BraDBF=F KetDBF=F FulRan=T
         wScrn=  0.000000 ICntrl=       600 IOpCl=  0 I1Cent=           0 NGrid=           0
         NMat0=    1 NMatS0=   1081 NMatT0=    0 NMatD0=    1 NMtDS0=    0 NMtDT0=    0
 Petite list used in FoFCou.
 CIDS: In Core Option IDoMem=           1.
 CCSD(T)
 =======
 Iterations=  50 Convergence= 0.100D-06
 Produce multiple copies of IABC intergrals
 Iteration Nr.   1
 **********************
 DD1Dir will call FoFMem   1 times, MxPair=        14
 NAB=     4 NAA=     6 NBB=     0.
 DD1Dir will call FoFMem   1 times, MxPair=        14
 NAB=     4 NAA=     6 NBB=     0.
 MP4(R+Q)=  0.15027791D-01
 Maximum subspace dimension=  5
 A-vector RMS=  2.3134422D-04 Max=  9.2565223D-04 conv= 1.00D-05.
 RLE energy=       -0.1011954466
 E3=       -0.13653903D-01        EROMP3=      -0.74482468234D+02
 E4(SDQ)=  -0.13435932D-02        ROMP4(SDQ)=  -0.74483811828D+02
 VARIATIONAL ENERGIES WITH THE FIRST-ORDER WAVEFUNCTION:
 DE(Corr)= -0.10117548     E(Corr)=     -74.467428217    
 NORM(A)=   0.10091674D+01
 Iteration Nr.   2
 **********************
 DD1Dir will call FoFMem   1 times, MxPair=        14
 NAB=     4 NAA=     6 NBB=     0.
 A-vector RMS=  1.4624368D-03 Max=  5.1152632D-03 conv= 1.00D-05.
 RLE energy=       -0.1027491340
 DE(Corr)= -0.11460258     E(CORR)=     -74.480855312     Delta=-1.34D-02
 NORM(A)=   0.10095144D+01
 Iteration Nr.   3
 **********************
 DD1Dir will call FoFMem   1 times, MxPair=        14
 NAB=     4 NAA=     6 NBB=     0.
 A-vector RMS=  1.3220293D-03 Max=  4.6634335D-03 conv= 1.00D-05.
 RLE energy=       -0.1140280279
 DE(Corr)= -0.11486696     E(CORR)=     -74.481119688     Delta=-2.64D-04
 NORM(A)=   0.10124771D+01
 Iteration Nr.   4
 **********************
 DD1Dir will call FoFMem   1 times, MxPair=        14
 NAB=     4 NAA=     6 NBB=     0.
 A-vector RMS=  2.7258360D-04 Max=  1.1201088D-03 conv= 1.00D-05.
 RLE energy=       -0.1193013315
 DE(Corr)= -0.11695316     E(CORR)=     -74.483205893     Delta=-2.09D-03
 NORM(A)=   0.10140876D+01
 Iteration Nr.   5
 **********************
 DD1Dir will call FoFMem   1 times, MxPair=        14
 NAB=     4 NAA=     6 NBB=     0.
 A-vector RMS=  1.6647474D-04 Max=  5.4154877D-04 conv= 1.00D-05.
 RLE energy=       -0.1185875473
 DE(Corr)= -0.11793525     E(CORR)=     -74.484187986     Delta=-9.82D-04
 NORM(A)=   0.10138655D+01
 Iteration Nr.   6
 **********************
 DD1Dir will call FoFMem   1 times, MxPair=        14
 NAB=     4 NAA=     6 NBB=     0.
 A-vector RMS=  8.5600328D-05 Max=  3.0030230D-04 conv= 1.00D-05.
 RLE energy=       -0.1176329966
 DE(Corr)= -0.11780736     E(CORR)=     -74.484060096     Delta= 1.28D-04
 NORM(A)=   0.10135722D+01
 Iteration Nr.   7
 **********************
 DD1Dir will call FoFMem   1 times, MxPair=        14
 NAB=     4 NAA=     6 NBB=     0.
 A-vector RMS=  1.6576086D-06 Max=  6.6261511D-06 conv= 1.00D-05.
 RLE energy=       -0.1176358474
 DE(Corr)= -0.11763432     E(CORR)=     -74.483887054     Delta= 1.73D-04
 NORM(A)=   0.10135734D+01
 Iteration Nr.   8
 **********************
 DD1Dir will call FoFMem   1 times, MxPair=        14
 NAB=     4 NAA=     6 NBB=     0.
 A-vector RMS=  1.4161329D-07 Max=  5.6237205D-07 conv= 1.00D-05.
 RLE energy=       -0.1176346748
 DE(Corr)= -0.11763492     E(CORR)=     -74.483887649     Delta=-5.95D-07
 NORM(A)=   0.10135731D+01
 Iteration Nr.   9
 **********************
 DD1Dir will call FoFMem   1 times, MxPair=        14
 NAB=     4 NAA=     6 NBB=     0.
 A-vector RMS=  2.1087855D-08 Max=  5.2574385D-08 conv= 1.00D-05.
 RLE energy=       -0.1176346747
 DE(Corr)= -0.11763468     E(CORR)=     -74.483887409     Delta= 2.40D-07
 NORM(A)=   0.10135730D+01
 Iteration Nr.  10
 **********************
 DD1Dir will call FoFMem   1 times, MxPair=        14
 NAB=     4 NAA=     6 NBB=     0.
 A-vector RMS=  4.5035569D-09 Max=  1.4174623D-08 conv= 1.00D-05.
 RLE energy=       -0.1176346749
 DE(Corr)= -0.11763467     E(CORR)=     -74.483887408     Delta= 1.81D-09
 NORM(A)=   0.10135730D+01
 CI/CC converged in   10 iterations to DelEn= 1.81D-09 Conv= 1.00D-07 ErrA1= 4.50D-09 Conv= 1.00D-05
 Wavefunction amplitudes converged. E(Corr)=     -74.483887408    
 Largest amplitude= 3.06D-02
 Time for triples=      823.72 seconds.
 T4(CCSD)= -0.16958755D-02
 T5(CCSD)= -0.21074418D-04
 CCSD(T)= -0.74485604357D+02
 Discarding MO integrals.
 Leave Link  913 at Mon Oct  5 21:38:27 2020, MaxMem=   268435456 cpu:             832.8 elap:             126.5
 (Enter /applis/site/cecic/gaussian16/B.01/nehalem/g16/l601.exe)
 Copying SCF densities to generalized density rwf, IOpCl= 0 IROHF=1.

 **********************************************************************

            Population analysis using the SCF Density.

 **********************************************************************

 Orbital symmetries:
       Occupied  (A1G) (A1G) (T1U) (T1U) (T1U)
       Virtual   (A1G) (T1U) (T1U) (T1U) (EG) (EG) (T2G) (T2G)
                 (T2G) (T1U) (T1U) (T1U) (A1G) (?A) (?A) (A2U)
                 (?A) (?A) (?A) (?A) (T2G) (T2G) (T2G) (EG) (EG)
                 (T1U) (T1U) (T1U) (?A) (?A) (?A) (A2U) (?A) (?A)
                 (?A) (EG) (T2G) (T2G) (T2G) (EG) (A1G)
 The electronic state is 4-A1G.
 Alpha  occ. eigenvalues --  -21.41252  -2.05924  -1.32630  -1.32630  -1.32630
 Alpha virt. eigenvalues --   -0.12768  -0.07748  -0.07748  -0.07748   0.28305
 Alpha virt. eigenvalues --    0.28305   0.28305   0.28305   0.28305   0.46771
 Alpha virt. eigenvalues --    0.46771   0.46771   0.80441   1.55987   1.55987
 Alpha virt. eigenvalues --    1.55987   1.55987   1.55987   1.58104   1.58104
 Alpha virt. eigenvalues --    1.58104   1.58104   1.58104   1.58104   1.58104
 Alpha virt. eigenvalues --    3.47180   3.47180   3.47180   5.79085   5.79085
 Alpha virt. eigenvalues --    5.79085   5.79085   5.79085   5.79085   5.79085
 Alpha virt. eigenvalues --    6.22976   6.22976   6.22976   6.22976   6.22976
 Alpha virt. eigenvalues --    7.66022
          Condensed to atoms (all electrons):
               1
     1  O    7.000000
          Atomic-Atomic Spin Densities.
               1
     1  O    3.000000
 Mulliken charges and spin densities:
               1          2
     1  O    1.000000   3.000000
 Sum of Mulliken charges =   1.00000   3.00000
 Mulliken charges and spin densities with hydrogens summed into heavy atoms:
               1          2
     1  O    1.000000   3.000000
 Electronic spatial extent (au):  <R**2>=              7.3649
 Charge=              1.0000 electrons
 Dipole moment (field-independent basis, Debye):
    X=              0.0000    Y=              0.0000    Z=              0.0000  Tot=              0.0000
 Quadrupole moment (field-independent basis, Debye-Ang):
   XX=             -3.3020   YY=             -3.3020   ZZ=             -3.3020
   XY=             -0.0000   XZ=             -0.0000   YZ=             -0.0000
 Traceless Quadrupole moment (field-independent basis, Debye-Ang):
   XX=             -0.0000   YY=             -0.0000   ZZ=              0.0000
   XY=             -0.0000   XZ=             -0.0000   YZ=             -0.0000
 Octapole moment (field-independent basis, Debye-Ang**2):
  XXX=              0.0000  YYY=              0.0000  ZZZ=              0.0000  XYY=              0.0000
  XXY=              0.0000  XXZ=              0.0000  XZZ=              0.0000  YZZ=              0.0000
  YYZ=              0.0000  XYZ=              0.0000
 Hexadecapole moment (field-independent basis, Debye-Ang**3):
 XXXX=             -1.6660 YYYY=             -1.6660 ZZZZ=             -1.6660 XXXY=             -0.0000
 XXXZ=             -0.0000 YYYX=             -0.0000 YYYZ=             -0.0000 ZZZX=             -0.0000
 ZZZY=             -0.0000 XXYY=             -0.5553 XXZZ=             -0.5553 YYZZ=             -0.5553
 XXYZ=             -0.0000 YYXZ=             -0.0000 ZZXY=             -0.0000
 N-N= 0.000000000000D+00 E-N=-1.728087037757D+02  KE= 7.435306148163D+01
 Symmetry AG   KE= 6.522209802360D+01
 Symmetry B1G  KE= 4.296188046277D-61
 Symmetry B2G  KE= 3.583119971440D-61
 Symmetry B3G  KE= 5.053394378327D-61
 Symmetry AU   KE= 3.482585752547D-61
 Symmetry B1U  KE= 3.043654486010D+00
 Symmetry B2U  KE= 3.043654486010D+00
 Symmetry B3U  KE= 3.043654486010D+00
 Symmetry AG   SP= 1.971130679592D-15
 Symmetry B1G  SP= 8.500309881524D-77
 Symmetry B2G  SP= 5.306957038540D-77
 Symmetry B3G  SP= 9.568099024930D-77
 Symmetry AU   SP= 5.282634177203D-62
 Symmetry B1U  SP= 1.000000000000D+00
 Symmetry B2U  SP= 1.000000000000D+00
 Symmetry B3U  SP= 1.000000000000D+00
                          Isotropic Fermi Contact Couplings
        Atom                 a.u.       MegaHertz       Gauss      10(-4) cm-1
     1  O(17)              0.00000      -0.00000      -0.00000      -0.00000
 --------------------------------------------------------
       Center         ----  Spin Dipole Couplings  ----
                      3XX-RR        3YY-RR        3ZZ-RR
 --------------------------------------------------------
     1   Atom       -0.000000     -0.000000      0.000000
 --------------------------------------------------------
                        XY            XZ            YZ
 --------------------------------------------------------
     1   Atom        0.000000      0.000000      0.000000
 --------------------------------------------------------


 ---------------------------------------------------------------------------------
              Anisotropic Spin Dipole Couplings in Principal Axis System
 ---------------------------------------------------------------------------------

       Atom             a.u.   MegaHertz   Gauss  10(-4) cm-1        Axes

              Baa    -0.0000     0.000     0.000     0.000  1.0000  0.0000  0.0000
     1 O(17)  Bbb    -0.0000     0.000     0.000     0.000 -0.0000  1.0000  0.0000
              Bcc     0.0000    -0.000    -0.000    -0.000  0.0000  0.0000  1.0000
 

 ---------------------------------------------------------------------------------

 No NMR shielding tensors so no spin-rotation constants.
 Leave Link  601 at Mon Oct  5 21:38:29 2020, MaxMem=   268435456 cpu:              12.0 elap:               2.3
 (Enter /applis/site/cecic/gaussian16/B.01/nehalem/g16/l9999.exe)
 1\1\GINC-DAHU85\SP\ROCCSD(T)-FC\Aug-CC-pVTZ\O1(1+,4)\TINACCIL\05-Oct-2
 020\0\\#P ROCCSD(T)/aug-cc-pvtz\\Title\\1,4\O\\Version=ES64L-G16RevB.0
 1\State=4-A1G\HF=-74.3662527\MP2=-74.4688143\MP3=-74.4824682\PUHF=-74.
 3662527\PMP2-0=-74.4688143\MP4SDQ=-74.4838118\CCSD=-74.4838874\CCSD(T)
 =-74.4856044\RMSD=1.654e-09\PG=OH [O(O1)]\\@


 DEMOCRATS BUY MOST OF THE BOOKS THAT HAVE BEEN
 BANNED; REPUBLICANS FORM CENSORSHIP COMMITTEES AND
 READ THEM AS A GROUP.
 Job cpu time:       0 days  0 hours 14 minutes 25.8 seconds.
 Elapsed time:       0 days  0 hours  2 minutes 12.3 seconds.
 File lengths (MBytes):  RWF=     21 Int=      0 D2E=      0 Chk=      2 Scr=      1
 Normal termination of Gaussian 16 at Mon Oct  5 21:38:29 2020.
