3
 energy: -9.917956657782 gnorm: 0.000083991540 xtb: 6.2.2 (9d81278992624c895f80dd42a50cac0aa55982e2)
O         0.04878338826890    0.40579170075180   -0.00000087851930
C         1.09928656545426   -0.18195567745884   -0.00000351967480
O        -1.14806995372316   -0.22383602329296    0.00000439819411
