5
 energy: -10.112930008455 gnorm: 0.214232376651 xtb: 6.2.2 (9d81278992624c895f80dd42a50cac0aa55982e2)
C        -1.08206000000000    0.64203300000000   -0.17715400000000
C         0.27698300000000    1.24345600000000    0.10373400000000
C         1.27861200000000    0.10880300000000   -0.01053200000000
C        -0.95487200000000   -0.81541200000000    0.19425800000000
C         0.48133700000000   -1.17888000000000   -0.11030600000000
5
 energy: -10.174366463596 gnorm: 0.117584210725 xtb: 6.2.2 (9d81278992624c895f80dd42a50cac0aa55982e2)
C        -0.99808459651506    0.58030041572054   -0.27275208818646
C         0.24569201710478    1.16469784484225    0.16494909657491
C         1.19716556877128    0.10185160391119   -0.00977375282573
C        -0.88091767987264   -0.74025063189863    0.28858011354479
C         0.43614469051163   -1.10659923257535   -0.17100336910751
5
 energy: -10.185337657226 gnorm: 0.159111315009 xtb: 6.2.2 (9d81278992624c895f80dd42a50cac0aa55982e2)
C        -0.90899496409251    0.52716196138173   -0.26537764633551
C         0.22340806450111    1.11670311588973    0.16549301729809
C         1.08157419178255    0.09201432265921   -0.00876087334023
C        -0.80206968304136   -0.67272391769369    0.27981473507557
C         0.40608239085022   -1.06315548223698   -0.17116923269792
5
 energy: -10.228451079335 gnorm: 0.087020766280 xtb: 6.2.2 (9d81278992624c895f80dd42a50cac0aa55982e2)
C        -0.83546884262423    0.50185072369121   -0.37229601755100
C         0.20446414934714    1.18818039020365    0.24076164699179
C         0.96478270458114    0.08209980779419   -0.00769683053875
C        -0.73197206662459   -0.63514144834214    0.38557658668662
C         0.39819405532054   -1.13698947334691   -0.24634538558868
5
 energy: -10.224947476905 gnorm: 0.132979442298 xtb: 6.2.2 (9d81278992624c895f80dd42a50cac0aa55982e2)
C        -0.72496419677772    0.50197897492968   -0.38054144398412
C         0.20558312681872    1.36323527187972    0.26213801362604
C         0.71398218964856    0.06079260690232   -0.00616735583154
C        -0.62309534945556   -0.61669907696272    0.39167102808465
C         0.42849422976600   -1.30930777674901   -0.26710024189503
5
 energy: -10.244789048348 gnorm: 0.041528275082 xtb: 6.2.2 (9d81278992624c895f80dd42a50cac0aa55982e2)
C        -0.80985307373095    0.53006601212965   -0.34892480213762
C         0.22703015331021    1.30700739619490    0.23294158343005
C         0.84475703189529    0.07190373717067   -0.00730656078060
C        -0.70264139392881   -0.65877019353759    0.36141257951584
C         0.44070728245426   -1.25020695195762   -0.23812280002766
5
 energy: -10.245928612336 gnorm: 0.015520732858 xtb: 6.2.2 (9d81278992624c895f80dd42a50cac0aa55982e2)
C        -0.80632760023824    0.52539862663367   -0.35822490405202
C         0.23130206669721    1.28518536984863    0.23654889296408
C         0.83331415750737    0.07082023621758   -0.00596497903668
C        -0.69940845084335   -0.65341952382679    0.37140455607845
C         0.44111982687701   -1.22798470887311   -0.24376356595383
5
 energy: -10.246459577140 gnorm: 0.011035944378 xtb: 6.2.2 (9d81278992624c895f80dd42a50cac0aa55982e2)
C        -0.81192763441254    0.53440840410669   -0.33847172197574
C         0.24358228668197    1.29270793059620    0.22566915117638
C         0.81853064436170    0.06997039798161   -0.00906510920078
C        -0.70495219664231   -0.66372364419030    0.34984099753251
C         0.45476690001118   -1.23336308849420   -0.22797331753237
5
 energy: -10.246588893064 gnorm: 0.004357012443 xtb: 6.2.2 (9d81278992624c895f80dd42a50cac0aa55982e2)
C        -0.81451393479596    0.53572785304591   -0.33882794679127
C         0.24863190658200    1.29682253550394    0.22140634495752
C         0.80981660530787    0.06822982776189   -0.00154319007224
C        -0.70441191730596   -0.66427319790108    0.35462877955345
C         0.46047734021205   -1.23650701841065   -0.23566398764746
5
 energy: -10.246536906164 gnorm: 0.007043262501 xtb: 6.2.2 (9d81278992624c895f80dd42a50cac0aa55982e2)
C        -0.81162549450041    0.53401713686270   -0.34743670776492
C         0.25154626258382    1.29851058237129    0.23742486927984
C         0.80458090559191    0.06998892974506   -0.01864170574231
C        -0.70823790652120   -0.66458968688401    0.35310406097889
C         0.46373623284589   -1.23792696209503   -0.22445051675150
5
 energy: -10.246614912054 gnorm: 0.001110826019 xtb: 6.2.2 (9d81278992624c895f80dd42a50cac0aa55982e2)
C        -0.81390129257773    0.53412279608940   -0.34184486665146
C         0.25006625634405    1.29742449007680    0.22677572722905
C         0.80799733497945    0.06878818359936   -0.00690876416065
C        -0.70610944209227   -0.66343690824910    0.35447143276986
C         0.46194714334649   -1.23689856151645   -0.23249352918681
5
 energy: -10.246616120967 gnorm: 0.000176590933 xtb: 6.2.2 (9d81278992624c895f80dd42a50cac0aa55982e2)
C        -0.81415971263498    0.53347306472106   -0.34167501837851
C         0.25017982197283    1.29745304491534    0.22663722243449
C         0.80830646956789    0.06877677743261   -0.00669238917445
C        -0.70639718840751   -0.66280827795977    0.35443695674212
C         0.46207060950177   -1.23689460910924   -0.23270677162366
