5
 energy: -10.246616128473 gnorm: 0.000180064999 xtb: 6.2.2 (9d81278992624c895f80dd42a50cac0aa55982e2)
C        -0.81415811203761    0.53347673131407   -0.34167310750852
C         0.25018740652345    1.29745213050953    0.22663408465769
C         0.80830680630493    0.06877253346848   -0.00669533073438
C        -0.70639942162390   -0.66280396065994    0.35444057934945
C         0.46206332083313   -1.23689743463214   -0.23270622576424
