[Molden Format]
[Title]
[Atoms] AU
C      1     6 -0.15385357111483E+01  0.10081248225104E+01 -0.64566853743588E+00
C      2     6  0.47278563429473E+00  0.24518289589948E+01  0.42827631077285E+00
C      3     6  0.15274783468680E+01  0.12996124109430E+00 -0.12652340227878E-01
C      4     6 -0.13349013176112E+01 -0.12525178437561E+01  0.66979556028060E+00
C      5     6  0.87317304759681E+00 -0.23373971788435E+01 -0.43975099338971E+00
[GTO]
           1 0
 s           4   1.0000000000000000     
   51.049363095579913      -0.16312063210127389     
   8.7911227406887544      -0.19911024581000730     
  0.70640422258929825       0.31882047753655751     
  0.26922813413411617       0.12706504184240380     
 p           4   1.0000000000000000     
   5.8263656140800002       0.73716451545209605     
   1.5106896018720002       0.68216371614850257     
  0.53256483288000001       0.35783053929253711     
  0.21202323690600003        5.3983030275847881E-002

           2 0
 s           4   1.0000000000000000     
   51.049363095579913      -0.16312063210127389     
   8.7911227406887544      -0.19911024581000730     
  0.70640422258929825       0.31882047753655751     
  0.26922813413411617       0.12706504184240380     
 p           4   1.0000000000000000     
   5.8263656140800002       0.73716451545209605     
   1.5106896018720002       0.68216371614850257     
  0.53256483288000001       0.35783053929253711     
  0.21202323690600003        5.3983030275847881E-002

           3 0
 s           4   1.0000000000000000     
   51.049363095579913      -0.16312063210127389     
   8.7911227406887544      -0.19911024581000730     
  0.70640422258929825       0.31882047753655751     
  0.26922813413411617       0.12706504184240380     
 p           4   1.0000000000000000     
   5.8263656140800002       0.73716451545209605     
   1.5106896018720002       0.68216371614850257     
  0.53256483288000001       0.35783053929253711     
  0.21202323690600003        5.3983030275847881E-002

           4 0
 s           4   1.0000000000000000     
   51.049363095579913      -0.16312063210127389     
   8.7911227406887544      -0.19911024581000730     
  0.70640422258929825       0.31882047753655751     
  0.26922813413411617       0.12706504184240380     
 p           4   1.0000000000000000     
   5.8263656140800002       0.73716451545209605     
   1.5106896018720002       0.68216371614850257     
  0.53256483288000001       0.35783053929253711     
  0.21202323690600003        5.3983030275847881E-002

           5 0
 s           4   1.0000000000000000     
   51.049363095579913      -0.16312063210127389     
   8.7911227406887544      -0.19911024581000730     
  0.70640422258929825       0.31882047753655751     
  0.26922813413411617       0.12706504184240380     
 p           4   1.0000000000000000     
   5.8263656140800002       0.73716451545209605     
   1.5106896018720002       0.68216371614850257     
  0.53256483288000001       0.35783053929253711     
  0.21202323690600003        5.3983030275847881E-002

[MO]
Sym=     1a
Ene=  -0.75198820827981783     
Spin= Alpha
Occup=     2.00000000
           1  0.29369460457406005     
           2  0.11016326162264209     
           3  -6.5608063685848761E-002
           4   6.2321167134145802E-002
           5  0.21928050367960511     
           6  -2.8832478189917316E-002
           7 -0.11079197062674136     
           8  -2.7454552386267882E-002
           9  0.31682199183568810     
          10 -0.14783228569252654     
          11  -1.2574653719390351E-002
          12   1.2274364272372869E-003
          13  0.29369447825218659     
          14   9.6428778930325129E-002
          15   8.3198150146017572E-002
          16  -6.4054439611749558E-002
          17  0.21925379307998627     
          18  -4.6664448706634366E-002
          19  0.10434973578411787     
          20   2.8097808733192849E-002
Sym=     2a
Ene=  -0.68428268807976744     
Spin= Alpha
Occup=     2.00000000
           1  0.21200051487619187     
           2   8.6256639788461140E-002
           3  0.15428001270401540     
           4   4.8156017367892517E-002
           5  0.39086451935796640     
           6  -3.4855558480580931E-002
           7  -7.1580296009499694E-002
           8  -4.7259929616983408E-002
           9  -6.2633948975752873E-005
          10  -2.6956518319360259E-002
          11  0.31861211279607443     
          12   1.8914978809682646E-002
          13 -0.21193738770482320     
          14 -0.11030371448184846     
          15  0.13759950311419825     
          16   4.9794737370610485E-002
          17 -0.39092950310604607     
          18   4.5628579499984057E-002
          19  -6.4759199581817153E-002
          20  -4.7963127582567815E-002
Sym=     3a
Ene=  -0.64353602324380021     
Spin= Alpha
Occup=     2.00000000
           1  0.35363283115430416     
           2 -0.15892359888958218     
           3 -0.15526479495532633     
           4   7.9868871364480634E-002
           5 -0.18345344345783257     
           6 -0.16798116246024664     
           7   5.3493870294586847E-002
           8   1.8903403123958766E-002
           9 -0.42797681955548883     
          10 -0.12318826237276040     
          11  -1.0557298780146889E-002
          12   1.0346792319783774E-003
          13  0.35361825700812938     
          14 -0.18419545907392679     
          15  0.12602161709460594     
          16  -7.7012998474498606E-002
          17 -0.18332866062154965     
          18 -0.15677299533835987     
          19  -8.1106173911906373E-002
          20  -1.6194454510800274E-002
Sym=     4a
Ene=  -0.58254395340043075     
Spin= Alpha
Occup=     2.00000000
           1 -0.33336314632429426     
           2  -2.4318437893391418E-002
           3  -7.9954075171877262E-002
           4  0.24016265947199830     
           5  0.13506073741828850     
           6  0.15510331627589866     
           7  -5.9468438048231355E-002
           8  0.23641349530200820     
           9   1.0716267967054246E-004
          10  -9.3139939364870333E-003
          11  0.14673632978725418     
          12  0.38040192404667988     
          13  0.33336415749591325     
          14   4.1346599001014610E-002
          15  -7.4107773529488871E-002
          16  0.23958973960294530     
          17 -0.13535031734157096     
          18 -0.13876460748032707     
          19  -8.4364101131171751E-002
          20  0.23876837510949375     
Sym=     5a
Ene=  -0.56213749329335705     
Spin= Alpha
Occup=     2.00000000
           1  -1.6190208948239117E-002
           2 -0.13283395306124032     
           3 -0.34277975930157573     
           4   3.4703139424224295E-002
           5 -0.27758279216565923     
           6  0.24004773520559311     
           7 -0.16833836715755832     
           8   7.3769484151021539E-002
           9  0.33286738744507000     
          10  0.16608904303557465     
          11   1.4275520694080867E-002
          12  -1.6565089289671590E-003
          13  -1.6282013198043867E-002
          14 -0.18947718891967510     
          15  0.31511942756192435     
          16  -3.2461507771651701E-002
          17 -0.27750652148364507     
          18  0.20664014873969261     
          19  0.20632086662893850     
          20  -7.7842732008127191E-002
Sym=     6a
Ene=  -0.55316031317326875     
Spin= Alpha
Occup=     2.00000000
           1  0.13880906693070780     
           2 -0.10735755629214211     
           3  0.22996134817926328     
           4  0.25067770224659325     
           5  -3.8547233752792384E-002
           6 -0.32605939397686573     
           7   2.3879890859404784E-002
           8  0.14184605282577695     
           9   2.4278785930102810E-004
          10   2.9908478078742671E-002
          11 -0.33089253425502479     
          12  0.19457365081075911     
          13 -0.13883090931392358     
          14   7.0932263218442385E-002
          15  0.24548444223827581     
          16  0.24916844404197058     
          17   3.8192703553976283E-002
          18  0.31989975481143457     
          19   7.9066813537072678E-002
          20  0.13634702012323294     
Sym=     7a
Ene=  -0.50120371313808398     
Spin= Alpha
Occup=     2.00000000
           1  0.20654378290054851     
           2 -0.35202566151581943     
           3   7.9136727133923515E-002
           4   4.5559288863165022E-002
           5  0.34017926398610737     
           6  0.11188421918209891     
           7  0.21002290322345965     
           8   4.6252868897236933E-002
           9  0.14935762407387390     
          10  0.41585702911559691     
          11   3.5428707495760575E-002
          12  -3.4419974339694845E-003
          13  0.20650284167989871     
          14 -0.33429135572752589     
          15 -0.13757460072661915     
          16  -3.9741689934776808E-002
          17  0.34022595634419744     
          18  0.14493844282481338     
          19 -0.18820164163493674     
          20  -4.8331866893802769E-002
Sym=     8a
Ene=  -0.46370182389353792     
Spin= Alpha
Occup=     2.00000000
           1 -0.25017781955013751     
           2   8.8024303464388415E-002
           3 -0.20891044509939952     
           4  0.29618608170792599     
           5  0.27119766996393324     
           6   5.6713109581230008E-003
           7  0.12318070884878250     
           8  0.40149079873352889     
           9 -0.17983723935454471     
          10 -0.16251800212894071     
          11  -1.3788672640447596E-002
          12   1.1441890350157753E-003
          13 -0.24990487466313702     
          14   4.6281144304261702E-002
          15  0.22037985515906222     
          16 -0.29691072008175651     
          17  0.27145003647620175     
          18   1.9888970813933506E-002
          19 -0.12115109752657693     
          20 -0.40192801091406311     
Sym=     9a
Ene=  -0.45176249442759819     
Spin= Alpha
Occup=     2.00000000
           1  0.35440662435620196     
           2 -0.24948067686435882     
           3  -2.9509005388687610E-003
           4 -0.35052782910437796     
           5  -7.3829854479135260E-002
           6   9.7063530640344522E-002
           7 -0.14525983216108465     
           8  0.18695280443906837     
           9  -4.0701556706942219E-005
          10  -3.5816021499341394E-005
          11   4.6312787006058238E-002
          12  0.47794081656130916     
          13 -0.35461339311791956     
          14  0.24059563028786254     
          15   3.8943520494354532E-002
          16 -0.35483677005118269     
          17   7.4019373609129482E-002
          18  -6.8045925446164765E-002
          19 -0.15942730561665858     
          20  0.18793042592602036     
Sym=    10a
Ene=  -0.43299881895719322     
Spin= Alpha
Occup=     2.00000000
           1   1.1942169780017419E-002
           2   8.4931397775853776E-002
           3   2.3874035825663904E-002
           4  0.15340451177633263     
           5 -0.38177821675274615     
           6  -5.9681878044858298E-002
           7 -0.53489422033120171     
           8 -0.11913794740201039     
           9   2.3555528929965304E-005
          10  -1.6904023533153310E-002
          11  0.19715365448136130     
          12  -1.6734331694223826E-002
          13  -1.1807384055688083E-002
          14  -8.5160377457891970E-002
          15   9.2994345654987213E-003
          16  0.15512177100722618     
          17  0.38164548720810404     
          18  0.14722377688048460     
          19 -0.51722620705985412     
          20 -0.12058588850320230     
Sym=    11a
Ene=  -0.37765854223375789     
Spin= Alpha
Occup=     0.00000000
           1   2.6545183632920796E-002
           2  0.15093913396461928     
           3 -0.32031435058952779     
           4 -0.21855573655629498     
           5  0.16308408137320157     
           6  0.30660790545799571     
           7  0.34202799706479464     
           8 -0.28960147829541139     
           9 -0.23441696648244323     
          10 -0.21329847432132826     
          11  -1.8220968926822862E-002
          12   1.8621002530204685E-003
          13   2.6595292767568567E-002
          14   9.8153629377970494E-002
          15  0.34143466786186732     
          16  0.21633460146174177     
          17  0.16297082225233875     
          18  0.36485340118121601     
          19 -0.28484112181104243     
          20  0.28403394301507168     
Sym=    12a
Ene=  -0.32070594873606501     
Spin= Alpha
Occup=     0.00000000
           1 -0.14296098116132080     
           2  0.11900565639705049     
           3  -8.0084760859502432E-002
           4  0.53323595198754947     
           5  -6.9368772261765507E-002
           6 -0.11892711898919299     
           7  0.10530655101116906     
           8 -0.42486517679788333     
           9   5.6066260317004325E-002
          10  0.36483282089346597     
          11   3.0743389885563719E-002
          12  -2.7080419004549762E-003
          13 -0.14269846579689321     
          14   9.2904243109823259E-002
          15   9.7158267919087438E-002
          16 -0.53601425810613346     
          17  -6.9720352929903348E-002
          18  -9.1122309483955166E-002
          19 -0.12355746660756071     
          20  0.42760750510963513     
Sym=    13a
Ene=  -0.31219287650021071     
Spin= Alpha
Occup=     0.00000000
           1   8.6976345542276109E-002
           2 -0.54515010989421742     
           3  0.20165237164636374     
           4  0.27394342408136285     
           5  -9.3318888780189166E-002
           6  0.31504244536720583     
           7   9.2688039124566579E-002
           8 -0.21529811229477835     
           9   5.5416898424161522E-005
          10  -1.4519094966521701E-002
          11  0.15620603984042419     
          12 -0.19924536178709423     
          13  -8.7553132917953594E-002
          14  0.50788397331990487     
          15  0.29161350377298711     
          16  0.26295352517484938     
          17   9.3099794279679626E-002
          18 -0.32986457165039695     
          19   3.7308337017535893E-002
          20 -0.20796971947250747     
Sym=    14a
Ene=  -0.24557340441390421     
Spin= Alpha
Occup=     0.00000000
           1  0.10223754916436459     
           2 -0.13265512486358907     
           3  -8.5915338558550061E-002
           4   7.1313868439157792E-003
           5   3.5480613055461067E-002
           6  -4.8252892380146913E-002
           7 -0.11942099407306032     
           8  0.56054794169086919     
           9  -2.1462211431983206E-004
          10  -2.2148707240368305E-002
          11  0.17120124775240833     
          12 -0.78146946682730378     
          13 -0.10262233693810704     
          14  0.14433701096625173     
          15  -6.2982686928255330E-002
          16   4.2408466363889246E-003
          17  -3.5268012506543517E-002
          18   7.7774584115625156E-002
          19 -0.10816665794597735     
          20  0.56000116844198433     
Sym=    15a
Ene=  -0.22281010505040860     
Spin= Alpha
Occup=     0.00000000
           1  0.15045917948812437     
           2  0.40716830890776384     
           3 -0.20039264949376842     
           4 -0.26832427499281369     
           5  -7.3688251318427225E-002
           6 -0.28619620403705026     
           7  0.16599126353726004     
           8  0.21163389220462814     
           9   9.5519820709449463E-002
          10  0.71276934032220463     
          11   6.0931408103543250E-002
          12  -7.1722784439739052E-003
          13  0.15014546929777586     
          14  0.37253620479431521     
          15  0.26668018369077257     
          16  0.26200277798088040     
          17  -7.3691283400249857E-002
          18 -0.25759881710280830     
          19 -0.21251285990517796     
          20 -0.20562778963277320     
Sym=    16a
Ene=    8.8218848643356981E-002
Spin= Alpha
Occup=     0.00000000
           1  0.35147763974041868     
           2  0.34150175260376242     
           3  0.26659058221458615     
           4  0.20830648801353760     
           5  -2.2192014675095090E-002
           6  0.54159530364387465     
           7 -0.26833266660663146     
           8  0.11116412630038129     
           9 -0.79275722321404951     
          10  0.38850963259173166     
          11   3.3333661023494325E-002
          12  -3.1494050124997301E-003
          13  0.35160834497545024     
          14  0.37859986783442801     
          15 -0.20561613911036800     
          16 -0.21435596432426654     
          17  -2.2195238209726936E-002
          18  0.48693765630002922     
          19  0.35595527666887866     
          20 -0.11992121256706144     
Sym=    17a
Ene=   0.15191889363073854     
Spin= Alpha
Occup=     0.00000000
           1 -0.20219803843571454     
           2 -0.49736620743085480     
           3 -0.53658899469488397     
           4  -4.4045976086735016E-002
           5  0.20080217193647854     
           6 -0.60370419452045565     
           7  -2.9422962679927531E-002
           8 -0.24318089910958512     
           9   4.5649196399239730E-004
          10  -3.4915968265700238E-002
          11  0.41654125613837073     
          12   8.0815001724639499E-002
          13  0.20205609197687155     
          14  0.57993730076482819     
          15 -0.44484328143395957     
          16  -5.3093979069070027E-002
          17 -0.20101250585988886     
          18  0.59553780760091424     
          19   7.2087102169368339E-002
          20 -0.25321165177952265     
Sym=    18a
Ene=   0.31111912171213768     
Spin= Alpha
Occup=     0.00000000
           1  0.29731772539403439     
           2  0.20511867054691330     
           3  0.34089191023569521     
           4  0.23182109453555469     
           5 -0.56981521862360174     
           6  0.23120853991223156     
           7  0.59930147787486077     
           8  0.23164102483385865     
           9  0.69094743771655942     
          10 -0.38564450458671407     
          11  -3.0073624494421899E-002
          12   2.6051498185833870E-003
          13  0.30916523304606675     
          14  0.25589028983676043     
          15 -0.28982922259508065     
          16 -0.24357781779466592     
          17 -0.56831174475526769     
          18  0.32824710619005970     
          19 -0.55178778042810539     
          20 -0.23509441349044694     
Sym=    19a
Ene=   0.31834628862373138     
Spin= Alpha
Occup=     0.00000000
           1 -0.72968563957223365     
           2 -0.14556429049973468     
           3  0.69877807707544060     
           4 -0.47952445319981013     
           5  -9.8873857599620668E-002
           6 -0.20424861761072155     
           7  -7.8839972722230325E-003
           8   7.5878966312443175E-002
           9  -5.6358217207921465E-003
          10  -2.9236564432754717E-002
          11  0.37617715635300641     
          12  -5.4879619690158872E-002
          13  0.72475267142420463     
          14   1.3114482614946193E-002
          15  0.71748528838882486     
          16 -0.47698955210867994     
          17  0.10815899921197053     
          18  0.19847761506436526     
          19   3.5798335086933336E-002
          20   7.6368365592037996E-002
Sym=    20a
Ene=   0.60978692593583028     
Spin= Alpha
Occup=     0.00000000
           1  0.28533505515574731     
           2  0.25220123675958050     
           3  -3.0399734013080909E-002
           4  0.16133929218526941     
           5 -0.68464554018613721     
           6 -0.17124575366341646     
           7  0.62653274021382122     
           8  0.16784321941760208     
           9   3.0476399549217025E-004
          10  -9.0447431994717553E-002
          11   1.0845396585159706     
          12  0.24445683073197896     
          13 -0.28524718745699806     
          14 -0.24058873015325677     
          15  -7.2419219313549471E-002
          16  0.16542691234839180     
          17  0.68427631845692027     
          18   6.5767906444163110E-002
          19  0.64633036428458346     
          20  0.16590848065494229     
