 Entering Gaussian System
 *********************************************
 Gaussian 98:
 frequency output generated by the xtb code
 *********************************************
                         Standard orientation:
 --------------------------------------------------------------------
  Center     Atomic     Atomic              Coordinates (Angstroms)
  Number     Number      Type              X           Y           Z
 --------------------------------------------------------------------
    1          6             0       -0.814158    0.533477   -0.341673
    2          6             0        0.250187    1.297452    0.226634
    3          6             0        0.808307    0.068773   -0.006695
    4          6             0       -0.706399   -0.662804    0.354441
    5          6             0        0.462063   -1.236897   -0.232706
 --------------------------------------------------------------------
     1 basis functions        1 primitive gaussians
     1 alpha electrons        1 beta electrons

 Harmonic frequencies (cm**-1), IR intensities (KM/Mole),
 Raman scattering activities (A**4/amu), Raman depolarization ratios,
 reduced masses (AMU), force constants (mDyne/A) and normal coordinates:
                      1                      2                      3
                        a                      a                      a 
 Frequencies --    46.6958               501.4637               538.2390
 Red. masses --    12.0107                12.0107                12.0107
 Frc consts  --     0.0000                 0.0000                 0.0000
 IR Inten    --     0.8512                 0.2396                 0.3616
 Raman Activ --     0.0000                 0.0000                 0.0000
 Depolar     --     0.0000                 0.0000                 0.0000
 Atom AN      X      Y      Z        X      Y      Z        X      Y      Z
   1   6    -0.24   0.28  -0.13     0.22  -0.24  -0.48     0.45  -0.20   0.01
   2   6    -0.14  -0.29   0.36    -0.24  -0.16   0.27     0.03   0.17   0.26
   3   6    -0.00  -0.03  -0.47     0.11   0.01  -0.00    -0.02   0.15  -0.55
   4   6     0.19   0.31  -0.13     0.18   0.28   0.48    -0.41  -0.28   0.02
   5   6     0.19  -0.27   0.36    -0.27   0.11  -0.27    -0.05   0.16   0.26
                      4                      5                      6
                        a                      a                      a 
 Frequencies --   660.2967               884.5556               931.0023
 Red. masses --    12.0107                12.0107                12.0107
 Frc consts  --     0.0000                 0.0000                 0.0000
 IR Inten    --     0.4294                 1.6754                 0.2146
 Raman Activ --     0.0000                 0.0000                 0.0000
 Depolar     --     0.0000                 0.0000                 0.0000
 Atom AN      X      Y      Z        X      Y      Z        X      Y      Z
   1   6     0.19   0.02  -0.13    -0.32  -0.26  -0.19    -0.36  -0.32  -0.12
   2   6     0.17   0.32   0.11     0.43   0.09   0.18     0.45  -0.20   0.09
   3   6    -0.78  -0.07   0.01    -0.03   0.36   0.02    -0.09  -0.01   0.00
   4   6     0.20   0.01   0.13     0.36  -0.20  -0.20    -0.41   0.25   0.13
   5   6     0.22  -0.29  -0.12    -0.44   0.01   0.19     0.41   0.27  -0.10
                      7                      8                      9
                        a                      a                      a 
 Frequencies --  1116.8255              1313.1682              1521.0957
 Red. masses --    12.0107                12.0107                12.0107
 Frc consts  --     0.0000                 0.0000                 0.0000
 IR Inten    --     1.0124                 0.2011                 0.8442
 Raman Activ --     0.0000                 0.0000                 0.0000
 Depolar     --     0.0000                 0.0000                 0.0000
 Atom AN      X      Y      Z        X      Y      Z        X      Y      Z
   1   6    -0.02   0.50  -0.26     0.29  -0.24   0.30    -0.18  -0.06  -0.08
   2   6     0.10  -0.38  -0.09    -0.05  -0.42  -0.14    -0.03   0.41   0.12
   3   6    -0.19  -0.02   0.00    -0.37  -0.03   0.00     0.06  -0.73  -0.09
   4   6     0.07  -0.50   0.26     0.24   0.28  -0.30     0.19  -0.03  -0.08
   5   6     0.04   0.39   0.08    -0.12   0.41   0.14    -0.03   0.41   0.12
