$hessian                                                                        
        0.2315362454   0.0095178172   0.1083667823  -0.1169511185  -0.1362648226
       -0.0632001962  -0.1066961529   0.1003780719  -0.0156226987   0.0219870328
        0.0553344339  -0.0343730650  -0.0298760068  -0.0289655004   0.0048291776
        0.0095178172   0.2686985016  -0.0789146622  -0.0496323400  -0.0384634091
       -0.0477618637   0.0206618559   0.0112459014   0.0185647836  -0.0140829692
       -0.2061105676   0.1238330750   0.0335356361  -0.0353704263  -0.0157213327
        0.1083667823  -0.0789146622   0.1609951503  -0.0651775505  -0.0700190527
       -0.0644482104  -0.0422227993   0.0304741743   0.0056539839   0.0105287834
        0.1271045222  -0.1238763032  -0.0114952158  -0.0086449815   0.0216753794
       -0.1169511185  -0.0496323400  -0.0651775505   0.1664990238  -0.0267035335
        0.0366107309  -0.0487179492   0.0790093316   0.0049869259  -0.0290888244
       -0.0327387967   0.0137081230   0.0282588683   0.0300653386   0.0098717706
       -0.1362648226  -0.0384634091  -0.0700190527  -0.0267035335   0.4423726967
        0.1251919320   0.1447806839  -0.2893137590  -0.0524279713   0.0298802597
       -0.0360194109  -0.0069892149  -0.0116925874  -0.0785761178   0.0042443070
       -0.0632001962  -0.0477618637  -0.0644482104   0.0366107309   0.1251919320
        0.0709249792   0.0387395946  -0.0637823174  -0.0298489347  -0.0012774353
       -0.0157461641   0.0215486992  -0.0108726940   0.0020984133   0.0018234666
       -0.1066961529   0.0206618559  -0.0422227993  -0.0487179492   0.1447806839
        0.0387395946   0.2564713926  -0.0298385193  -0.0070011081  -0.0823325055
       -0.0364718953   0.0379826195  -0.0187247850  -0.0991321252  -0.0274983067
        0.1003780719   0.0112459014   0.0304741743   0.0790093316  -0.2893137590
       -0.0637823174  -0.0298385193   0.6100299187   0.0626455976  -0.1159245134
       -0.0122109185   0.0391685790  -0.0336243708  -0.3197511426  -0.0685060335
       -0.0156226987   0.0185647836   0.0056539839   0.0049869259  -0.0524279713
       -0.0298489347  -0.0070011081   0.0626455976   0.0488078966   0.0138400415
        0.0216704791   0.0046822963   0.0037968394  -0.0504528890  -0.0292952421
        0.0219870328  -0.0140829692   0.0105287834  -0.0290888244   0.0298802597
       -0.0012774353  -0.0823325055  -0.1159245134   0.0138400415   0.2325608405
       -0.0168705714  -0.0946167611  -0.1431265434   0.1169977945   0.0715253716
        0.0553344339  -0.2061105676   0.1271045222  -0.0327387967  -0.0360194109
       -0.0157461641  -0.0364718953  -0.0122109185   0.0216704791  -0.0168705714
        0.2642453658  -0.0959873162   0.0307468295  -0.0099044688  -0.0370415210
       -0.0343730650   0.1238330750  -0.1238763032   0.0137081230  -0.0069892149
        0.0215486992   0.0379826195   0.0391685790   0.0046822963  -0.0946167611
       -0.0959873162   0.1643838305   0.0772990836  -0.0600251229  -0.0667385228
       -0.0298760068   0.0335356361  -0.0114952158   0.0282588683  -0.0116925874
       -0.0108726940  -0.0187247850  -0.0336243708   0.0037968394  -0.1431265434
        0.0307468295   0.0772990836   0.1634684669  -0.0189655074  -0.0587280131
       -0.0289655004  -0.0353704263  -0.0086449815   0.0300653386  -0.0785761178
        0.0020984133  -0.0991321252  -0.3197511426  -0.0504528890   0.1169977945
       -0.0099044688  -0.0600251229  -0.0189655074   0.4436021555   0.1170245802
        0.0048291776  -0.0157213327   0.0216753794   0.0098717706   0.0042443070
        0.0018234666  -0.0274983067  -0.0685060335  -0.0292952421   0.0715253716
       -0.0370415210  -0.0667385228  -0.0587280131   0.1170245802   0.0725349189
