[Molden Format]
[Title]
[Atoms] AU
C      1     6 -0.11892045821486E+01  0.11038051010829E+01  0.90604280333471E+00
C      2     6 -0.18875544306178E+01 -0.14430499845176E+01  0.11448736778994E+01
C      3     6 -0.53277359984805E+00 -0.13729501731606E+01 -0.11335149201286E+01
N      4     7  0.88696803401777E+00  0.82155348586067E+00 -0.71208642929938E+00
H      5     1  0.27225645785967E+01  0.89064157073470E+00 -0.20531513180617E+00
[GTO]
           1 0
 s           4   1.0000000000000000     
   51.049363095579913      -0.16312063210127389     
   8.7911227406887544      -0.19911024581000730     
  0.70640422258929825       0.31882047753655751     
  0.26922813413411617       0.12706504184240380     
 p           4   1.0000000000000000     
   5.8263656140800002       0.73716451545209605     
   1.5106896018720002       0.68216371614850257     
  0.53256483288000001       0.35783053929253711     
  0.21202323690600003        5.3983030275847881E-002

           2 0
 s           4   1.0000000000000000     
   51.049363095579913      -0.16312063210127389     
   8.7911227406887544      -0.19911024581000730     
  0.70640422258929825       0.31882047753655751     
  0.26922813413411617       0.12706504184240380     
 p           4   1.0000000000000000     
   5.8263656140800002       0.73716451545209605     
   1.5106896018720002       0.68216371614850257     
  0.53256483288000001       0.35783053929253711     
  0.21202323690600003        5.3983030275847881E-002

           3 0
 s           4   1.0000000000000000     
   51.049363095579913      -0.16312063210127389     
   8.7911227406887544      -0.19911024581000730     
  0.70640422258929825       0.31882047753655751     
  0.26922813413411617       0.12706504184240380     
 p           4   1.0000000000000000     
   5.8263656140800002       0.73716451545209605     
   1.5106896018720002       0.68216371614850257     
  0.53256483288000001       0.35783053929253711     
  0.21202323690600003        5.3983030275847881E-002

           4 0
 s           4   1.0000000000000000     
   63.594024466941008      -0.19234388414721629     
   10.951417231523665      -0.23478107924953728     
  0.87999310257376984       0.37593753901700888     
  0.33538715296521110       0.14982889271862770     
 p           4   1.0000000000000000     
   7.2965040481495080       0.97658666315667420     
   1.8918745450712575       0.90372226730345739     
  0.66694432110824120       0.47404958461536373     
  0.26552202674130870        7.1516067715011844E-002

           5 0
 s           3   1.0000000000000000     
   3.3702276975336001       0.27359110588908298     
  0.61389118221497996       0.26460540653860526     
  0.16614291148415999        8.2465947534082318E-002

[MO]
Sym=     1a
Ene=  -0.72300254243469531     
Spin= Alpha
Occup=     2.00000000
           1  0.30944113724783945     
           2   7.8124483862236180E-002
           3 -0.10481698728083579     
           4  -8.6761318974347662E-002
           5  0.21837794758363879     
           6   7.4186427353229861E-002
           7   7.3442693580241664E-002
           8  -6.5306852136473637E-002
           9  0.30942206517729320     
          10   1.8399054113083270E-002
          11  0.12049317788270707     
          12   9.8780441165449734E-002
          13  0.35772629169675535     
          14 -0.18512510669657567     
          15 -0.12592550751826148     
          16   9.3337459179859153E-002
          17   3.9709946259329935E-002
Sym=     2a
Ene=  -0.64163534071840922     
Spin= Alpha
Occup=     2.00000000
           1  0.10454524069973536     
           2 -0.16215584890516158     
           3 -0.13418869789311408     
           4   5.2808881139846733E-002
           5  0.33704958645303790     
           6   1.3959630149479233E-002
           7   5.0618385160099637E-002
           8  -5.6978707508009721E-002
           9  0.10457963202682390     
          10 -0.17659448767816682     
          11  -7.9584277079962254E-002
          12   9.7752231649229457E-002
          13 -0.52179252444025015     
          14 -0.18748297815573955     
          15  -3.7502563662007438E-002
          16  -1.4841134870477656E-002
          17 -0.28201018680766982     
Sym=     3a
Ene=  -0.60723833847234687     
Spin= Alpha
Occup=     2.00000000
           1 -0.45080474336089416     
           2  -9.2242094592480117E-002
           3  -9.8574906443488583E-002
           4  -3.5651662277583686E-002
           5   3.3793451300498897E-005
           6   3.7693995487681660E-002
           7 -0.14220356536819431     
           8 -0.11709995424075929     
           9  0.45080027383087362     
          10  0.12360627633331388     
          11  -1.9819376452620423E-002
          12  -6.1779890511387860E-002
          13   1.9707038556865287E-005
          14  0.10355894755528801     
          15 -0.39042613394420705     
          16 -0.32150021192348693     
          17   6.9628861243574861E-005
Sym=     4a
Ene=  -0.59081867253962173     
Spin= Alpha
Occup=     2.00000000
           1  -3.2656847012417840E-002
           2  -5.4238765170708560E-002
           3 -0.15405458582047651     
           4  0.22277579316048904     
           5  0.37500987037246425     
           6   4.2642017689934787E-002
           7  -1.3731516038766833E-002
           8   3.0468272746439293E-002
           9  -3.2794073267935014E-002
          10  -4.0990998572632636E-002
          11 -0.20408745075265833     
          12  0.18153809973657276     
          13  -2.0368159075398282E-002
          14  0.48377149685530207     
          15  -2.0630862106602782E-002
          16  0.18085649001388271     
          17  0.33278875197862295     
Sym=     5a
Ene=  -0.52751458602269041     
Spin= Alpha
Occup=     2.00000000
           1 -0.20855960203930424     
           2  0.27036063282472106     
           3  0.14422214905095609     
           4 -0.21593815564781205     
           5   5.4689230610829601E-006
           6   9.0395079793241490E-002
           7 -0.34096278050062834     
           8 -0.28074517102364938     
           9  0.20856659097415617     
          10 -0.23837776044393594     
          11 -0.26468038081279560     
          12  0.11683715231814759     
          13  -3.2864326909261755E-005
          14  -7.8705079718611973E-002
          15  0.29693568460382974     
          16  0.24461410339703249     
          17  -1.7898470288373837E-005
Sym=     6a
Ene=  -0.52275097834809270     
Spin= Alpha
Occup=     2.00000000
           1   5.1756013025484202E-002
           2 -0.30645535162724291     
           3   4.9274728318386536E-002
           4 -0.16072402964802421     
           5  0.21550439661993820     
           6 -0.25783175434354383     
           7   3.5825897211692347E-002
           8 -0.12657019527419611     
           9   5.1778360903567681E-002
          10 -0.30705782482430483     
          11   5.1329312446330766E-002
          12 -0.15891661285224951     
          13  0.22592239767234804     
          14   9.9161949342868719E-002
          15  0.38648102791995387     
          16 -0.43731378358893946     
          17  0.14370943551607618     
Sym=     7a
Ene=  -0.44881046688278875     
Spin= Alpha
Occup=     2.00000000
           1  0.42606492778342214     
           2 -0.17080671103818043     
           3  0.28506656041950412     
           4  0.16160065660384945     
           5 -0.38468564600075988     
           6   1.1426575917685460E-002
           7  0.22076146980782951     
           8 -0.26438428723879925     
           9  0.42610088417676389     
          10  -3.0298894663296962E-002
          11 -0.24502998088086822     
          12 -0.27495886416627274     
          13 -0.21894461397385459     
          14  0.15389568413992111     
          15 -0.10397077033238827     
          16  0.17581424142719435     
          17  0.13323342605682742     
Sym=     8a
Ene=  -0.42690105616810103     
Spin= Alpha
Occup=     2.00000000
           1 -0.23708594097873309     
           2 -0.10120002703893184     
           3 -0.26635387404384314     
           4 -0.31049967241733828     
           5 -0.30719614689249292     
           6 -0.11639593986493403     
           7  0.27146272321062243     
           8 -0.36715150368209543     
           9 -0.23712518907551561     
          10 -0.25137786866334133     
          11  0.30013118830495072     
          12  0.15602044523709746     
          13 -0.14111526891715656     
          14  0.12788368405251971     
          15 -0.20808635837738992     
          16  0.29386297318158427     
          17  0.13028798610349221     
Sym=     9a
Ene=  -0.37146168652168898     
Spin= Alpha
Occup=     1.00000000
           1  -2.6646253490101787E-002
           2   5.6918191488555250E-003
           3 -0.19977500707770526     
           4  0.11541920059254743     
           5 -0.31581635395618363     
           6  0.67023202336495913     
           7  0.27920643179682364     
           8 -0.12345442535520756     
           9  -2.6775013651330917E-002
          10  -2.6367087834521873E-002
          11  -7.8259858898094184E-002
          12  0.21579200693669848     
          13   3.9423470703483537E-002
          14   5.2540698133204125E-002
          15  0.35324569774021009     
          16 -0.41212370719317970     
          17  -2.8741717652365398E-002
Sym=    10a
Ene=  -0.36486222139803942     
Spin= Alpha
Occup=     1.00000000
           1 -0.24399282164563460     
           2  0.40249033318748012     
           3 -0.44971414025100492     
           4  0.21268253770866238     
           5  -7.1970628615102643E-005
           6  -5.6756880733018461E-002
           7  0.21485245822648288     
           8  0.17683545557728592     
           9  0.24395041792048297     
          10 -0.28694289892025993     
          11   1.3592471176275850E-002
          12 -0.57170575074574892     
          13   2.8608240554431024E-005
          14  -4.6208497845998078E-002
          15  0.17451301352857729     
          16  0.14350366886558630     
          17  -2.3262955058154806E-005
Sym=    11a
Ene=  -0.27734604663896478     
Spin= Alpha
Occup=     0.00000000
           1 -0.10951712016422263     
           2 -0.27337002768260149     
           3 -0.28102078831065569     
           4 -0.58005907171805338     
           5   8.7152156531741387E-007
           6  -6.8890897331407977E-002
           7  0.25979520188821864     
           8  0.21389332179638623     
           9  0.10948748002638022     
          10  0.48146866786213111     
          11 -0.50398103647290649     
          12  -6.6322579684169505E-002
          13   8.3345030595991519E-006
          14  -6.9074565373599420E-002
          15  0.26062994695810032     
          16  0.21463174956571826     
          17  -4.4651993716901417E-006
Sym=    12a
Ene=  -0.23678489327367680     
Spin= Alpha
Occup=     0.00000000
           1  -6.9336247263490317E-002
           2  0.27440429399606531     
           3 -0.13549664589363819     
           4  0.40652528502819257     
           5  -6.2170814132251201E-002
           6 -0.58184456525962647     
           7  0.23714966177353522     
           8 -0.47527677475880686     
           9  -6.9334991271428212E-002
          10  0.31271018226558883     
          11 -0.28018690257381229     
          12  0.28732125956893728     
          13  0.28550454173084622     
          14  -6.9696058949143477E-002
          15  0.10794598600993396     
          16 -0.15356782826963092     
          17 -0.27171436932891502     
Sym=    13a
Ene=    3.2013185958756574E-002
Spin= Alpha
Occup=     0.00000000
           1  0.11610538440531874     
           2  0.45120738401646837     
           3   2.2124421958039913E-002
           4 -0.13453801589984252     
           5  0.13236469993630323     
           6 -0.15480909251108266     
           7   5.1046014966307098E-002
           8 -0.11188288661428296     
           9  0.11635566697778899     
          10  0.38824752713261307     
          11  0.26073791727090340     
          12   6.1686232968410533E-002
          13 -0.97071399834226724     
          14 -0.23230416704774229     
          15  0.22362439516217533     
          16 -0.34589300483733970     
          17  0.80786377186052338     
Sym=    14a
Ene=    9.1485634737920069E-002
Spin= Alpha
Occup=     0.00000000
           1  0.48899586005496992     
           2  0.51566754841056028     
           3 -0.14544164774405879     
           4 -0.46426612035416187     
           5  -4.0460658708036144E-005
           6  -6.7855030892296653E-003
           7   2.5370546119530445E-002
           8   2.0905186597480870E-002
           9 -0.48900839153602615     
          10 -0.31416376900209753     
          11 -0.61473379587859034     
          12 -0.16153255851183670     
          13  -2.9248896459828616E-004
          14  0.15993628208890676     
          15 -0.60475223668431699     
          16 -0.49813477600853356     
          17   4.8248963801903285E-004
Sym=    15a
Ene=   0.17042265187853334     
Spin= Alpha
Occup=     0.00000000
           1  0.44104117236550328     
           2 -0.25606870272898263     
           3 -0.62929574330158911     
           4  0.11749692581221106     
           5   1.0221493027693816E-004
           6  0.18991152081300072     
           7 -0.71631428774394801     
           8 -0.58997488303516632     
           9 -0.44106899579289904     
          10  0.39706719858592293     
          11   9.7844354507588840E-002
          12 -0.55535836499325275     
          13   3.2663157861333565E-005
          14  -3.1470107126771549E-002
          15  0.11932603674917197     
          16   9.8262873518723801E-002
          17  -1.5145079100070203E-004
Sym=    16a
Ene=   0.24454205809285604     
Spin= Alpha
Occup=     0.00000000
           1   8.8187223959486014E-002
           2  0.40095895104806517     
           3  0.27334391733717511     
           4 -0.34452134083141633     
           5  0.44404425272117343     
           6  0.13323712703566729     
           7  0.21943243442062704     
           8 -0.22329283751443896     
           9   8.8021611330423452E-002
          10  0.36524786124445630     
          11  0.40634069098068704     
          12 -0.23452532440892157     
          13 -0.12304864768350296     
          14  0.93120267676433455     
          15  0.21327017307581467     
          16   4.0261046017393436E-002
          17 -0.75040876284628155     
Sym=    17a
Ene=   0.47661832795552628     
Spin= Alpha
Occup=     0.00000000
           1 -0.58635600425605328     
           2  -5.6810315332613180E-002
           3  0.55605988848175048     
           4   9.1659474155049658E-002
           5  0.78662781664030879     
           6  0.44481326940882737     
           7  0.53260799283777749     
           8 -0.50354640249371263     
           9 -0.58620480979084300     
          10  0.13923098347255630     
          11 -0.18352449788989680     
          12 -0.51735076335847030     
          13  0.18046643945641824     
          14 -0.49989452207208457     
          15 -0.23045608777521021     
          16  0.11902228022691780     
          17  0.26912615079358831     
