5
 energy: -9.401889673150 gnorm: 0.166593557263 xtb: 6.2.2 (9d81278992624c895f80dd42a50cac0aa55982e2)
C         1.70967300000000   -0.39025000000000   -0.26928400000000
N         0.51821400000000   -0.13689200000000    0.51932200000000
C        -0.61673900000000   -0.17990300000000   -0.41421600000000
C        -0.07168800000000    1.10557700000000    0.00249700000000
H        -1.53946100000000   -0.39853200000000    0.16168100000000
5
 energy: -9.430269006055 gnorm: 0.116683639155 xtb: 6.2.2 (9d81278992624c895f80dd42a50cac0aa55982e2)
C         1.69390240038642   -0.39499550462024   -0.22722638668144
N         0.54736590044171   -0.13052364136707    0.45899591685062
C        -0.65514563298946   -0.12351251007288   -0.36646389944308
C        -0.03044911075953    1.11335047330312   -0.01372150062349
H        -1.55567455707914   -0.46431881724293    0.14841586989739
5
 energy: -9.457884352507 gnorm: 0.123975372010 xtb: 6.2.2 (9d81278992624c895f80dd42a50cac0aa55982e2)
C         1.69434101512660   -0.45289055936324   -0.13477023330878
N         0.62895795640459   -0.09110077944299    0.30156400775554
C        -0.72122193472088   -0.03169917745755   -0.27100411848391
C        -0.02443020529009    1.13939635623947   -0.01266881776056
H        -1.57764783152022   -0.56370583997569    0.11687916179771
5
 energy: -9.472690552902 gnorm: 0.065544353981 xtb: 6.2.2 (9d81278992624c895f80dd42a50cac0aa55982e2)
C         1.76132984116379   -0.56331819358656   -0.08726850145690
N         0.64595738328767   -0.02882837009699    0.19791254563593
C        -0.77164102178558    0.05252429376525   -0.22333557554402
C        -0.06460171313404    1.19832923047088    0.00613343021939
H        -1.57104548953184   -0.65870696055259    0.10655810114560
5
 energy: -9.478689653747 gnorm: 0.050800269778 xtb: 6.2.2 (9d81278992624c895f80dd42a50cac0aa55982e2)
C         1.77445764197988   -0.59510192229897   -0.08726647354654
N         0.66504305632556    0.00016946994421    0.15508742143263
C        -0.76263710213169    0.02792580487182   -0.16184999209849
C        -0.11107988874055    1.20068763713521    0.02981621091202
H        -1.56578470743319   -0.63368098965227    0.06421283330038
5
 energy: -9.483965286898 gnorm: 0.031101295175 xtb: 6.2.2 (9d81278992624c895f80dd42a50cac0aa55982e2)
C         1.72850255556295   -0.63213361755377   -0.09789458197415
N         0.65441385701012    0.03574066400696    0.13360164924584
C        -0.72756140204797    0.01782949625621   -0.10297673942074
C        -0.11670262368753    1.23645120869974    0.04420392250568
H        -1.53865338683756   -0.65788775140913    0.02306574964337
5
 energy: -9.486633637565 gnorm: 0.020373617194 xtb: 6.2.2 (9d81278992624c895f80dd42a50cac0aa55982e2)
C         1.70869178856941   -0.65184410372813   -0.08199997408697
N         0.63525842811196    0.04067558122113    0.07228822609386
C        -0.71729044184272    0.02321260101260   -0.02876182626260
C        -0.11126074751281    1.27336103829927    0.04484800006174
H        -1.51540002732583   -0.68540511680487   -0.00637442580604
5
 energy: -9.487251936582 gnorm: 0.010850440149 xtb: 6.2.2 (9d81278992624c895f80dd42a50cac0aa55982e2)
C         1.72300338560053   -0.64643760416024   -0.06357643651150
N         0.63461144092521    0.02684736026403    0.03833598234142
C        -0.73103705592113    0.03350727099540   -0.00661759470534
C        -0.11012543148462    1.27338822642754    0.03865214709123
H        -1.51645333912000   -0.68730525352672   -0.00679409821581
5
 energy: -9.487358678217 gnorm: 0.006167673477 xtb: 6.2.2 (9d81278992624c895f80dd42a50cac0aa55982e2)
C         1.72390077532315   -0.63952501721503   -0.05592890695897
N         0.62510682728933    0.01480437755706    0.02401669641976
C        -0.73125286065456    0.03712907601622    0.00202488316940
C        -0.11078757782047    1.27029253494892    0.03394139496397
H        -1.50696816413744   -0.68270097130716   -0.00405406759416
5
 energy: -9.487375348005 gnorm: 0.005681645484 xtb: 6.2.2 (9d81278992624c895f80dd42a50cac0aa55982e2)
C         1.72346905122148   -0.64646253316718   -0.05326980090031
N         0.62687060098094    0.01871863619832    0.01431109726485
C        -0.73047759458776    0.04297563877572    0.01510068282665
C        -0.11227201797727    1.27539313891029    0.03385454932033
H        -1.50759103963739   -0.69062488071716   -0.00999652851153
5
 energy: -9.487404384692 gnorm: 0.001503186363 xtb: 6.2.2 (9d81278992624c895f80dd42a50cac0aa55982e2)
C         1.72547402957478   -0.64190507548152   -0.05557571113198
N         0.62768071942114    0.01693905242750    0.01931336979960
C        -0.73079012329982    0.03804125255981    0.01107916444438
C        -0.11084789173938    1.27246990684694    0.03405134132505
H        -1.51151773395672   -0.68554513635273   -0.00886816443705
5
 energy: -9.487406259011 gnorm: 0.000522717479 xtb: 6.2.2 (9d81278992624c895f80dd42a50cac0aa55982e2)
C         1.72660143894865   -0.64118120207211   -0.05579360088633
N         0.62746847612820    0.01638917789154    0.01907530841802
C        -0.73036670742878    0.03739438234145    0.01164494599457
C        -0.11126614288559    1.27164802519744    0.03400821541603
H        -1.51243806476248   -0.68425038335833   -0.00893486894229
