5
 energy: -9.487406262311 gnorm: 0.000523803561 xtb: 6.2.2 (9d81278992624c895f80dd42a50cac0aa55982e2)
C         1.72659788694453   -0.64119033990352   -0.05579850878960
N         0.62746862851477    0.01638592576638    0.01907308953519
C        -0.73036647096938    0.03739822685607    0.01164743018973
C        -0.11125936584626    1.27164866712114    0.03400638436338
H        -1.51244167864366   -0.68424247983484   -0.00892839529522
