[Molden Format]
[Title]
[Atoms] AU
C      1     6 -0.10452078775590E+01 -0.98321557862662E+00  0.13565886691488E+00
C      2     6  0.72083967326505E+00  0.67777739773265E+00 -0.93108431322833E-01
O      3     8 -0.26341144375624E+01 -0.24840051670250E+01  0.34236147728277E+00
H      4     1  0.31220887943556E+00  0.26592673583535E+01  0.15996590806475E-01
H      5     1  0.26462756521534E+01  0.13017598955887E+00 -0.40090661396197E+00
[GTO]
           1 0
 s           4   1.0000000000000000     
   51.049363095579913      -0.16312063210127389     
   8.7911227406887544      -0.19911024581000730     
  0.70640422258929825       0.31882047753655751     
  0.26922813413411617       0.12706504184240380     
 p           4   1.0000000000000000     
   5.8263656140800002       0.73716451545209605     
   1.5106896018720002       0.68216371614850257     
  0.53256483288000001       0.35783053929253711     
  0.21202323690600003        5.3983030275847881E-002

           2 0
 s           4   1.0000000000000000     
   51.049363095579913      -0.16312063210127389     
   8.7911227406887544      -0.19911024581000730     
  0.70640422258929825       0.31882047753655751     
  0.26922813413411617       0.12706504184240380     
 p           4   1.0000000000000000     
   5.8263656140800002       0.73716451545209605     
   1.5106896018720002       0.68216371614850257     
  0.53256483288000001       0.35783053929253711     
  0.21202323690600003        5.3983030275847881E-002

           3 0
 s           4   1.0000000000000000     
   69.137961906196551      -0.20478756370077797     
   11.906129132707308      -0.24997023136827334     
  0.95670827744340703       0.40025880240639616     
  0.36462520496073686       0.15952206667693555     
 p           4   1.0000000000000000     
   8.2124193257781641        1.1321556799186829     
   2.1293576997098116        1.0476840782254817     
  0.75066448202360914       0.54956508217158984     
  0.29885246543283073        8.2908486592766617E-002

           4 0
 s           3   1.0000000000000000     
   3.3702276975336001       0.27359110588908298     
  0.61389118221497996       0.26460540653860526     
  0.16614291148415999        8.2465947534082318E-002

           5 0
 s           3   1.0000000000000000     
   3.3702276975336001       0.27359110588908298     
  0.61389118221497996       0.26460540653860526     
  0.16614291148415999        8.2465947534082318E-002

[MO]
Sym=     1a
Ene=  -0.74697384917920107     
Spin= Alpha
Occup=     2.00000000
           1  0.34331853968975151     
           2 -0.16145478909877414     
           3 -0.15251717722413594     
           4   2.1002945171247733E-002
           5   2.4463398224522453E-002
           6  -2.9469594056211121E-002
           7  -2.7759797401488161E-002
           8   3.8230818635381545E-003
           9  0.64771373210037120     
          10  0.16291427095110900     
          11  0.15397229205756091     
          12  -2.1201847996885778E-002
          13   2.0983893470916115E-003
          14   2.0845943065161366E-003
Sym=     2a
Ene=  -0.64987002118040971     
Spin= Alpha
Occup=     2.00000000
           1  0.43606174434368089     
           2  0.18315039745163122     
           3  0.17231273859460372     
           4  -2.3739844975896266E-002
           5  0.38331286193715408     
           6 -0.12150686833449290     
           7 -0.11419902342541394     
           8   1.5726799245369853E-002
           9 -0.35670408376464185     
          10  0.19686922039339691     
          11  0.18544212301424939     
          12  -2.5550245493684898E-002
          13   8.4484133976371584E-002
          14   8.4256961247528891E-002
Sym=     3a
Ene=  -0.58251648065764738     
Spin= Alpha
Occup=     2.00000000
           1  0.12199335478426873     
           2 -0.15394298357237041     
           3 -0.14343964347669991     
           4   1.9801393940257456E-002
           5 -0.37239616899236178     
           6  -5.5559926947615225E-002
           7  -5.2011644540915426E-002
           8   7.2279461420893532E-003
           9 -0.49691047457384163     
          10  0.40384105573658852     
          11  0.38350843618067448     
          12  -5.2786936200552324E-002
          13 -0.17709614764927245     
          14 -0.17742294125967170     
Sym=     4a
Ene=  -0.57405311270823633     
Spin= Alpha
Occup=     2.00000000
           1   1.6233933125299333E-004
           2 -0.34344283193860936     
           3  0.37327249559000164     
           4   6.1374053284075691E-002
           5   8.8120256268746225E-004
           6 -0.12903644327811231     
           7  0.14075260713322635     
           8   2.3070976546841350E-002
           9   9.4887141066678021E-004
          10 -0.44681064453369224     
          11  0.48243602955162723     
          12   7.9769958511291511E-002
          13   9.1371769669174693E-002
          14  -9.0033506896064125E-002
Sym=     5a
Ene=  -0.57073281879053972     
Spin= Alpha
Occup=     2.00000000
           1  -4.0809559056256375E-005
           2   7.7584599585087829E-002
           3  -1.2266812154745118E-002
           4  0.50876669534604380     
           5  -1.7995339935188501E-004
           6   2.1991040155811152E-002
           7  -3.5794828272109436E-003
           8  0.14482925392923521     
           9  -1.4336289559141514E-004
          10  0.10696755100649123     
          11  -1.6634819156143454E-002
          12  0.69976290114460082     
          13  -1.6250775457955525E-004
          14  -1.6198940408868826E-004
Sym=     6a
Ene=  -0.51328129125607391     
Spin= Alpha
Occup=     2.00000000
           1 -0.18149465802579987     
           2 -0.22538045922654887     
           3 -0.21261164353042231     
           4   2.9378084239051507E-002
           5  0.15480065772490445     
           6  0.35077370434011040     
           7  0.32804241614185176     
           8  -4.5605687312917635E-002
           9 -0.18122642268787148     
          10  0.25636702843405929     
          11  0.24337288845002947     
          12  -3.3108215918708141E-002
          13  0.29372708297714051     
          14  0.29677927633394713     
Sym=     7a
Ene=  -0.48675658549604417     
Spin= Alpha
Occup=     2.00000000
           1   8.9995996431077563E-004
           2  -2.1267963085558421E-003
           3   4.1540723413650022E-003
           4   4.2408543000177409E-004
           5   1.3956092276556535E-004
           6  0.34569746017782349     
           7 -0.37826734210229163     
           8  -6.1836031436761744E-002
           9   4.6823935937607096E-004
          10 -0.28983963098535137     
          11  0.31206867540907490     
          12   5.1721869882019142E-002
          13 -0.38554049993209072     
          14  0.38313464374368872     
Sym=     8a
Ene=  -0.39032212630596913     
Spin= Alpha
Occup=     2.00000000
           1  -1.3577507967691571E-004
           2   5.4719558139492037E-002
           3  -8.6707592951340302E-003
           4  0.35895130262023417     
           5   3.9068412540220677E-004
           6  0.11083790271843157     
           7  -1.7481373616449962E-002
           8  0.72658550652931475     
           9  -3.1484402731586732E-005
          10  -8.3728400123729230E-002
          11   1.3159672318620034E-002
          12 -0.54859060523909842     
          13  -7.6650458475301255E-005
          14  -7.6980104602759680E-005
Sym=     9a
Ene=  -0.25474706310256490     
Spin= Alpha
Occup=     0.00000000
           1   1.6254702810166710E-003
           2 -0.58706853355886890     
           3  0.63763850306659386     
           4  0.10489642848534281     
           5  -6.5795138935108505E-004
           6   2.4181588623523039E-002
           7  -2.5701965521795614E-002
           8  -4.3061521757892969E-003
           9   5.4878066004689878E-005
          10  0.43990327891557240     
          11 -0.47754200276450559     
          12  -7.8595099339073590E-002
          13 -0.28583600797606423     
          14  0.28576261866069291     
Sym=    10a
Ene=  -0.16546087626346748     
Spin= Alpha
Occup=     0.00000000
           1   2.6936163632785588E-004
           2 -0.12860062307689954     
           3   2.0276594796793751E-002
           4 -0.84299433327953432     
           5   3.5742276216176359E-004
           6  0.10656184109116783     
           7  -1.6616608902694535E-002
           8  0.69739593885304840     
           9  -1.1403021323599900E-005
          10   7.5965561682565463E-002
          11  -1.1989436572552505E-002
          12  0.49803642324894848     
          13  -2.0115548856848968E-004
          14  -2.0204227926486640E-004
Sym=    11a
Ene=   0.13566083124259590     
Spin= Alpha
Occup=     0.00000000
           1 -0.45256320332891897     
           2  -1.5667212237785631E-002
           3  -1.3786743984553266E-002
           4   2.0859029449402612E-003
           5   1.1018880923043570     
           6  0.19506551928821722     
           7  0.18646146894427892     
           8  -2.5917342223872101E-002
           9  0.17784810397448925     
          10  0.21241453801928781     
          11  0.20017898065000442     
          12  -2.7646446713736155E-002
          13 -0.70616357275612807     
          14 -0.70437525553015146     
Sym=    12a
Ene=   0.32649457692411449     
Spin= Alpha
Occup=     0.00000000
           1   2.1424897308338905E-002
           2  0.22005553627581162     
           3 -0.23642959755836854     
           4  -3.9248023637937453E-002
           5  -3.1214860957645006E-003
           6 -0.76524678293307680     
           7  0.85746341528540793     
           8  0.13736334780926765     
           9  -6.8667758770886928E-003
          10  -8.4655234585415517E-002
          11   7.6368166302166501E-002
          12   1.4750157080967581E-002
          13 -0.83829852572264074     
          14  0.82613610222780332     
Sym=    13a
Ene=   0.35542666730571293     
Spin= Alpha
Occup=     0.00000000
           1  -1.1091415674807947     
           2   5.0166809805625217E-003
           3  -1.2521757350489155E-003
           4  -1.2917818343312914E-003
           5   2.7235896130319796E-002
           6 -0.70073785345799666     
           7 -0.62990076333331024     
           8   9.1958701480435709E-002
           9  0.39456693107960567     
          10  0.41570847804866701     
          11  0.39476511741057646     
          12  -5.3864785802995932E-002
          13  0.34429213813891940     
          14  0.37739844633865166     
Sym=    14a
Ene=    1.1787243646519525     
Spin= Alpha
Occup=     0.00000000
           1   5.3838524968813438E-002
           2  -1.0816981623949025     
           3  -1.0200671482929402     
           4  0.14042590570824942     
           5  0.67592845546179536     
           6 -0.55839267225831690     
           7 -0.52264291549010267     
           8   7.2344794735333437E-002
           9 -0.80331593945268631     
          10 -0.53764667891913032     
          11 -0.50822905080420611     
          12   7.0017865404242249E-002
          13   6.6360126803178279E-002
          14   6.9263259577872827E-002
