 Entering Gaussian System
 *********************************************
 Gaussian 98:
 frequency output generated by the xtb code
 *********************************************
                         Standard orientation:
 --------------------------------------------------------------------
  Center     Atomic     Atomic              Coordinates (Angstroms)
  Number     Number      Type              X           Y           Z
 --------------------------------------------------------------------
    1          6             0       -0.553100   -0.520295    0.071788
    2          6             0        0.381452    0.358664   -0.049271
    3          8             0       -1.393913   -1.314479    0.181170
    4          1             0        0.165214    1.407224    0.008465
    5          1             0        1.400349    0.068886   -0.212151
 --------------------------------------------------------------------
     1 basis functions        1 primitive gaussians
     1 alpha electrons        1 beta electrons

 Harmonic frequencies (cm**-1), IR intensities (KM/Mole),
 Raman scattering activities (A**4/amu), Raman depolarization ratios,
 reduced masses (AMU), force constants (mDyne/A) and normal coordinates:
                      1                      2                      3
                        a                      a                      a 
 Frequencies --   383.4296               436.9442               676.2087
 Red. masses --     8.5252                12.4186                 3.3071
 Frc consts  --     0.0000                 0.0000                 0.0000
 IR Inten    --     0.3075                 0.8267                 0.2691
 Raman Activ --     0.0000                 0.0000                 0.0000
 Depolar     --     0.0000                 0.0000                 0.0000
 Atom AN      X      Y      Z        X      Y      Z        X      Y      Z
   1   6    -0.45   0.49   0.08    -0.12   0.02  -0.81    -0.03   0.01  -0.22
   2   6     0.05  -0.05  -0.01     0.07  -0.01   0.43    -0.05   0.01  -0.34
   3   8     0.27  -0.29  -0.05     0.06  -0.01   0.36     0.03  -0.00   0.17
   4   1     0.42   0.06  -0.06    -0.01   0.00  -0.07     0.10  -0.01   0.63
   5   1    -0.09  -0.42   0.00    -0.01   0.00  -0.07     0.10  -0.01   0.63
                      4                      5                      6
                        a                      a                      a 
 Frequencies --   888.2737              1198.6280              1376.2975
 Red. masses --     6.5008                 6.3321                 8.4450
 Frc consts  --     0.0000                 0.0000                 0.0000
 IR Inten    --     0.3989                 0.4100                 0.0665
 Raman Activ --     0.0000                 0.0000                 0.0000
 Depolar     --     0.0000                 0.0000                 0.0000
 Atom AN      X      Y      Z        X      Y      Z        X      Y      Z
   1   6    -0.34   0.37   0.06     0.07   0.07  -0.01     0.01   0.01  -0.00
   2   6     0.32  -0.34  -0.06    -0.27  -0.26   0.04     0.48   0.45  -0.06
   3   8     0.08  -0.09  -0.01     0.36   0.34  -0.05    -0.31  -0.29   0.04
   4   1    -0.46  -0.19   0.07    -0.51  -0.19   0.07    -0.44   0.01   0.07
   5   1     0.22   0.45  -0.02    -0.22  -0.50   0.02    -0.02  -0.44  -0.01
                      7                      8                      9
                        a                      a                      a 
 Frequencies --  2307.9647              3139.8426              3161.0428
 Red. masses --    12.7041                 1.5594                 2.0851
 Frc consts  --     0.0000                 0.0000                 0.0000
 IR Inten    --     3.5492                 0.3042                 0.0780
 Raman Activ --     0.0000                 0.0000                 0.0000
 Depolar     --     0.0000                 0.0000                 0.0000
 Atom AN      X      Y      Z        X      Y      Z        X      Y      Z
   1   6     0.61   0.57  -0.08    -0.01  -0.01   0.00     0.01  -0.01  -0.00
   2   6    -0.22  -0.21   0.03     0.14   0.17  -0.02     0.23  -0.21  -0.04
   3   8    -0.32  -0.30   0.04    -0.00  -0.00   0.00    -0.00  -0.00  -0.00
   4   1    -0.00  -0.06  -0.00     0.16  -0.73  -0.04    -0.10   0.59   0.03
   5   1    -0.06   0.00   0.01    -0.58   0.18   0.09    -0.71   0.18   0.11
