5
 energy: -9.099577658328 gnorm: 0.226247189379 xtb: 6.2.2 (9d81278992624c895f80dd42a50cac0aa55982e2)
C        -0.50895400000000    0.13561100000000    0.42809900000000
C         0.99131000000000   -0.08258400000000    0.46100100000000
O        -1.13067500000000   -0.95510200000000   -0.17886700000000
H        -0.74350800000000    1.06103800000000   -0.13803200000000
H         1.39182800000000   -0.15896300000000   -0.57220000000000
5
 energy: -9.154988120472 gnorm: 0.145842351142 xtb: 6.2.2 (9d81278992624c895f80dd42a50cac0aa55982e2)
C        -0.43165365303319    0.09869659008103    0.23624142273980
C         0.97815648033232   -0.12824756123563    0.47340873998722
O        -1.15490724840305   -0.94352280095325   -0.09178491954203
H        -0.81485338707185    1.11031827515742   -0.08332440649103
H         1.42325880817577   -0.13724450304957   -0.53453983669395
5
 energy: -9.159436323365 gnorm: 0.230269210539 xtb: 6.2.2 (9d81278992624c895f80dd42a50cac0aa55982e2)
C        -0.42583688550799    0.05244488808480    0.13985114097048
C         0.89405532221184   -0.08208072796405    0.44419694098928
O        -1.04976562266281   -0.87043187011406   -0.05663487802033
H        -0.83367672244423    1.10864808986237   -0.01113792557574
H         1.41522490840320   -0.20858037986907   -0.51627427836368
5
 energy: -9.175899162988 gnorm: 0.047433652397 xtb: 6.2.2 (9d81278992624c895f80dd42a50cac0aa55982e2)
C        -0.43042727504842    0.06726684866206    0.10669196250076
C         0.91799739828488   -0.08496646576438    0.42578733519281
O        -1.14366343333056   -0.93188164503262   -0.03864955631302
H        -0.84947694992658    1.14238228320025    0.01166015676674
H         1.50557126002068   -0.19280102106531   -0.50548889814728
5
 energy: -9.180091469554 gnorm: 0.051900917681 xtb: 6.2.2 (9d81278992624c895f80dd42a50cac0aa55982e2)
C        -0.44536960588844    0.04685719356055    0.09202069598235
C         0.90382651301602   -0.07512908667059    0.38844627354204
O        -1.20736218422466   -0.91351181819366   -0.01045497574038
H        -0.83879443936646    1.10971977066798    0.02183500537865
H         1.58770071646354   -0.16793605936429   -0.49184599916266
5
 energy: -9.183435077579 gnorm: 0.102524913839 xtb: 6.2.2 (9d81278992624c895f80dd42a50cac0aa55982e2)
C        -0.49682841290821   -0.04843932187646    0.03067675080345
C         0.86770813509852    0.04972589504569    0.24422887507835
O        -1.43257336676456   -0.83680332083630    0.05816325576067
H        -0.78303021915412    0.97307575822943    0.09415951237589
H         1.84472486372837   -0.13755901056236   -0.42722739401836
5
 energy: -9.194208851536 gnorm: 0.095981433460 xtb: 6.2.2 (9d81278992624c895f80dd42a50cac0aa55982e2)
C        -0.47986033747654   -0.04674841235895    0.03008898925889
C         0.85178712769011    0.00044888686183    0.27057807509249
O        -1.36425938837755   -0.85239979872059    0.06464655234018
H        -0.70229781707690    0.97681096832607    0.05283797182415
H         1.69463141524088   -0.07811164410836   -0.41815058851571
5
 energy: -9.194833617909 gnorm: 0.148186199902 xtb: 6.2.2 (9d81278992624c895f80dd42a50cac0aa55982e2)
C        -0.46790905624382   -0.09790909391989   -0.03310861706988
C         0.79983918522010   -0.09246162528117    0.25043958440166
O        -1.42775364332631   -0.88678790769467    0.16168045231500
H        -0.62619763786358    1.01345924802148    0.01400302097536
H         1.72202215221360    0.06369937887424   -0.39301344062215
5
 energy: -9.207356645716 gnorm: 0.056588424608 xtb: 6.2.2 (9d81278992624c895f80dd42a50cac0aa55982e2)
C        -0.48967438039582   -0.13645626717660   -0.03817518250232
C         0.79563148861576   -0.01884989770128    0.21191300315229
O        -1.41867730981765   -0.87832396209267    0.15030097282753
H        -0.58270865597251    1.00565669279849    0.04089971514237
H         1.69542985757021    0.02797343417205   -0.36493750861987
5
 energy: -9.227350663248 gnorm: 0.107792153724 xtb: 6.2.2 (9d81278992624c895f80dd42a50cac0aa55982e2)
C        -0.54426621281538   -0.25547664097022   -0.01443457206439
C         0.74841675534882    0.03644535867428    0.12939335680007
O        -1.54599786296514   -0.83908417716409    0.20536740341591
H        -0.35083643609702    0.88414931129891   -0.00507994119947
H         1.69268475652872    0.17396614816111   -0.31524524695212
5
 energy: -9.224717584909 gnorm: 0.256336479173 xtb: 6.2.2 (9d81278992624c895f80dd42a50cac0aa55982e2)
C        -0.60974996065283   -0.43371414219414    0.01382422017184
C         0.66088667254986    0.14711487864114    0.00989608315597
O        -1.68077632227633   -0.80705811483702    0.26779643917101
H        -0.04541742702133    0.77163355095758   -0.04581417346944
H         1.67505803740062    0.32202382743245   -0.24570156902939
5
 energy: -9.257847475917 gnorm: 0.196265638423 xtb: 6.2.2 (9d81278992624c895f80dd42a50cac0aa55982e2)
C        -0.56042039777326   -0.43817406710154    0.03993513592850
C         0.67903393104470    0.09388939000289    0.04192134542104
O        -1.60467662172189   -0.83080666743492    0.24988271336002
H        -0.18745043608671    0.91570922939781   -0.07093005202324
H         1.67351452453716    0.25938211513577   -0.26080814268633
5
 energy: -9.274478744051 gnorm: 0.131133290593 xtb: 6.2.2 (9d81278992624c895f80dd42a50cac0aa55982e2)
C        -0.51261057970066   -0.52270296962215    0.05664638264108
C         0.64384495705687    0.14422448036961    0.00679539024800
O        -1.61065696991573   -0.82156748976949    0.24777761810110
H        -0.18817837611920    0.96344697264806   -0.08085086264028
H         1.66760196867871    0.23659900637397   -0.23036752834990
5
 energy: -9.285826896490 gnorm: 0.177734754229 xtb: 6.2.2 (9d81278992624c895f80dd42a50cac0aa55982e2)
C        -0.45263781287353   -0.67818117491588    0.14832994212429
C         0.54542617570262    0.23345313947891   -0.03996121434182
O        -1.57062477672871   -0.85316120817930    0.22619471380902
H        -0.10773426767053    1.08664432762234   -0.13240116323429
H         1.58557168157015    0.21124491599394   -0.20216127835720
5
 energy: -9.278683350030 gnorm: 0.222861817556 xtb: 6.2.2 (9d81278992624c895f80dd42a50cac0aa55982e2)
C        -0.40184317387106   -0.67168776427628    0.15930215784159
C         0.51639798224605    0.11976021032172   -0.01740907092438
O        -1.60173152205327   -0.86327225842939    0.26803719869048
H        -0.03879698405614    1.05718019526215   -0.21386330518260
H         1.52597469773442    0.35801961712180   -0.19606598042510
5
 energy: -9.296780326642 gnorm: 0.043791687649 xtb: 6.2.2 (9d81278992624c895f80dd42a50cac0aa55982e2)
C        -0.45505942287860   -0.64699931462967    0.13704022807802
C         0.53180607639379    0.17665043152681   -0.03190037442281
O        -1.58469558732530   -0.89099338661720    0.24971052207051
H        -0.06533828145955    1.08558619817149   -0.14994676506455
H         1.57328821526966    0.27575607154857   -0.20490261066117
5
 energy: -9.300621510494 gnorm: 0.049871330355 xtb: 6.2.2 (9d81278992624c895f80dd42a50cac0aa55982e2)
C        -0.46298281869692   -0.61724010024616    0.11804617160831
C         0.52345374807215    0.20306652681098   -0.03333193404110
O        -1.56467304920200   -0.92942999412544    0.23556878872625
H        -0.07189861684424    1.11215197758854   -0.11066599032023
H         1.57610173667100    0.23145158997208   -0.20961603597323
5
 energy: -9.310093383644 gnorm: 0.026597218398 xtb: 6.2.2 (9d81278992624c895f80dd42a50cac0aa55982e2)
C        -0.48010218540789   -0.57955175451073    0.06957424630211
C         0.48118013258332    0.27205351010469   -0.05033590989422
O        -1.52447018862902   -1.07104386115319    0.21444716913699
H        -0.02580133167599    1.22548009769642   -0.02768192615399
H         1.54919457312957    0.15306200786280   -0.20600257939090
5
 energy: -9.314839050062 gnorm: 0.079952881255 xtb: 6.2.2 (9d81278992624c895f80dd42a50cac0aa55982e2)
C        -0.50626344282606   -0.54938506877956    0.04263993992127
C         0.43421215587638    0.32147161247504   -0.05030287040048
O        -1.46365325207556   -1.24127753482723    0.19311657487821
H         0.07547404926867    1.36055873737637    0.02467241165756
H         1.46023148975658    0.10863225375538   -0.21012505605656
5
 energy: -9.316337936843 gnorm: 0.027238715753 xtb: 6.2.2 (9d81278992624c895f80dd42a50cac0aa55982e2)
C        -0.50310316603267   -0.57743879239169    0.07315217060059
C         0.41814814250729    0.32520578907789   -0.05266108461731
O        -1.45569942067280   -1.23493468923004    0.19096102741206
H         0.10026997768018    1.36627487605666    0.00028599813000
H         1.44038546651799    0.12089281648718   -0.21173711152534
5
 energy: -9.317196881846 gnorm: 0.019142116406 xtb: 6.2.2 (9d81278992624c895f80dd42a50cac0aa55982e2)
C        -0.51444284851244   -0.56219448646247    0.07552038742050
C         0.40567255279714    0.33673406385491   -0.05310502679210
O        -1.44497309975947   -1.26025478026926    0.18365871068884
H         0.11657157751221    1.37714976634981    0.01294568007190
H         1.43717281796255    0.10856543652701   -0.21901875138915
5
 energy: -9.317439870711 gnorm: 0.010079726936 xtb: 6.2.2 (9d81278992624c895f80dd42a50cac0aa55982e2)
C        -0.52082302203792   -0.55436892217838    0.06990554349927
C         0.39587699364836    0.33916223478167   -0.08507267432657
O        -1.43348248711657   -1.26408888325475    0.19216881814456
H         0.12427811635362    1.37501509814210    0.02543624662808
H         1.43415139915250    0.10428047250935   -0.20243693394538
5
 energy: -9.317441747954 gnorm: 0.029288031541 xtb: 6.2.2 (9d81278992624c895f80dd42a50cac0aa55982e2)
C        -0.53404524211039   -0.53477902526549    0.08269761784573
C         0.39279577409837    0.34377652538152   -0.02514271551245
O        -1.41047536205339   -1.27568096169173    0.17108805855951
H         0.13722580250227    1.37298568790751   -0.00022428612932
H         1.41450002756313    0.09369777366819   -0.22841767476344
5
 energy: -9.317926726105 gnorm: 0.009556607356 xtb: 6.2.2 (9d81278992624c895f80dd42a50cac0aa55982e2)
C        -0.53724204699824   -0.53736093635463    0.06023830425439
C         0.39285046669493    0.34612719400331   -0.04059679750024
O        -1.41493599245166   -1.28359328805256    0.18851947103970
H         0.14135810322195    1.38200727658771    0.00833478659639
H         1.41797046953302    0.09281975381618   -0.21649476439024
5
 energy: -9.315281806495 gnorm: 0.047545665211 xtb: 6.2.2 (9d81278992624c895f80dd42a50cac0aa55982e2)
C        -0.54166311106537   -0.52419810149313    0.15215336889585
C         0.37947474254091    0.35606729915285   -0.12179537953221
O        -1.41522917639262   -1.31822838730791    0.14711982791387
H         0.16304614384888    1.40930803659984    0.02522246447606
H         1.41437240106820    0.07705115304835   -0.20269928175365
5
 energy: -9.318139682269 gnorm: 0.002880340055 xtb: 6.2.2 (9d81278992624c895f80dd42a50cac0aa55982e2)
C        -0.54556421273359   -0.52830532780903    0.07153948596025
C         0.38617899573068    0.35181854736421   -0.05604408319477
O        -1.40640590879974   -1.30137836316688    0.18380084404295
H         0.15460907962250    1.39603247671877    0.01176318867721
H         1.41118304618015    0.08183266689292   -0.21105843548567
5
 energy: -9.318169784451 gnorm: 0.002163662866 xtb: 6.2.2 (9d81278992624c895f80dd42a50cac0aa55982e2)
C        -0.54906342212642   -0.52501889703427    0.07124232912063
C         0.38487033234276    0.35419562732458   -0.05095683733382
O        -1.40209394950938   -1.30698889913882    0.18267549877122
H         0.15883002830384    1.40042722433544    0.00957342117729
H         1.40745801098919    0.07738494451307   -0.21253341173534
5
 energy: -9.318184324905 gnorm: 0.001193534396 xtb: 6.2.2 (9d81278992624c895f80dd42a50cac0aa55982e2)
C        -0.55273672761044   -0.52107628573040    0.07136984148508
C         0.38247824814365    0.35735829725073   -0.04855063664141
O        -1.39598040991010   -1.31323117789826    0.18155282569167
H         0.16392287488807    1.40574595709677    0.00831681461348
H         1.40231701448883    0.07120320928117   -0.21268784514883
5
 energy: -9.318186298617 gnorm: 0.000742938858 xtb: 6.2.2 (9d81278992624c895f80dd42a50cac0aa55982e2)
C        -0.55309776709215   -0.52029834719472    0.07178474872192
C         0.38145025721557    0.35866646948600   -0.04926890706703
O        -1.39390721037419   -1.31448666279855    0.18116274861335
H         0.16520644160891    1.40722466456185    0.00846806484202
H         1.40034927864186    0.06889387594542   -0.21214565511027
