$hessian                                                                        
        0.9564045237   0.7868305203  -0.1167844871  -0.3769348617  -0.2875948506
        0.0482280959  -0.5491112694  -0.4747931925   0.0666405701   0.0002421983
       -0.0036670958  -0.0011817065  -0.0306005909  -0.0207753814   0.0030975277
        0.7868305203   0.8648754328  -0.1010310678  -0.2877741415  -0.3426650055
        0.0359767391  -0.4745350155  -0.4948095826   0.0616387615  -0.0229845219
       -0.0295025048   0.0029503127  -0.0015368413   0.0021016602   0.0004652544
       -0.1167844871  -0.1010310678   0.0833601734   0.0482174578   0.0359395370
       -0.0216165936   0.0666268504   0.0616608058  -0.0475995660  -0.0016559057
        0.0000402387  -0.0067551815   0.0035960847   0.0033904862  -0.0073888324
       -0.3769348617  -0.2877741415   0.0482174578   0.7176350676   0.1913046596
       -0.0985823381  -0.0107308662  -0.0342658483   0.0010166004  -0.0393252406
        0.0572632730   0.0052210063  -0.2906440990   0.0734720573   0.0441272735
       -0.2875948506  -0.3426650055   0.0359395370   0.1913046596   0.7030267040
       -0.0132842147  -0.0344811189  -0.0061427830   0.0050308679   0.0558272580
       -0.3052829996  -0.0153692490   0.0749440519  -0.0489359158  -0.0123169412
        0.0482280959   0.0359767391  -0.0216165936  -0.0985823381  -0.0132842147
        0.0561051255   0.0010357971   0.0050176821   0.0016112956   0.0051964519
       -0.0156289066  -0.0150844685   0.0441219932  -0.0120812999  -0.0210153590
       -0.5491112694  -0.4745350155   0.0666268504  -0.0107308662  -0.0344811189
        0.0010357971   0.5591813938   0.5075471626  -0.0696760635  -0.0037821072
        0.0016921157   0.0016549192   0.0044428490  -0.0002231439   0.0003584967
       -0.4747931925  -0.4948095826   0.0616608058  -0.0342658483  -0.0061427830
        0.0050176821   0.5075471626   0.5008310755  -0.0661117581   0.0003466545
        0.0042425135  -0.0001151342   0.0011652237  -0.0041212233  -0.0004515956
        0.0666405701   0.0616387615  -0.0475995660   0.0010166004   0.0050308679
        0.0016112956  -0.0696760635  -0.0661117581   0.0326136084   0.0016347289
       -0.0003295057   0.0066127183   0.0003841641  -0.0002283655   0.0067619436
        0.0002421983  -0.0229845219  -0.0016559057  -0.0393252406   0.0558272580
        0.0051964519  -0.0037821072   0.0003466545   0.0016347289   0.0492990981
       -0.0587987104  -0.0078370693  -0.0064339486   0.0256093198   0.0026617943
       -0.0036670958  -0.0295025048   0.0000402387   0.0572632730  -0.3052829996
       -0.0156289066   0.0016921157   0.0042425135  -0.0003295057  -0.0587987104
        0.3393215696   0.0168296892   0.0035104175  -0.0087785787  -0.0009115155
       -0.0011817065   0.0029503127  -0.0067551815   0.0052210063  -0.0153692490
       -0.0150844685   0.0016549192  -0.0001151342   0.0066127183  -0.0078370693
        0.0168296892   0.0086233115   0.0021428503  -0.0042956187   0.0066036203
       -0.0306005909  -0.0015368413   0.0035960847  -0.2906440990   0.0749440519
        0.0441219932   0.0044428490   0.0011652237   0.0003841641  -0.0064339486
        0.0035104175   0.0021428503   0.3232357895  -0.0780828518  -0.0502450922
       -0.0207753814   0.0021016602   0.0033904862   0.0734720573  -0.0489359158
       -0.0120812999  -0.0002231439  -0.0041212233  -0.0002283655   0.0256093198
       -0.0087785787  -0.0042956187  -0.0780828518   0.0597340577   0.0132147978
        0.0030975277   0.0004652544  -0.0073888324   0.0441272735  -0.0123169412
       -0.0210153590   0.0003584967  -0.0004515956   0.0067619436   0.0026617943
       -0.0009115155   0.0066036203  -0.0502450922   0.0132147978   0.0150386275
