      -----------------------------------------------------------      
     |                   =====================                   |     
     |                           x T B                           |     
     |                   =====================                   |     
     |                         S. Grimme                         |     
     |          Mulliken Center for Theoretical Chemistry        |     
     |                    University of Bonn                     |     
      -----------------------------------------------------------      

   * xtb version 6.2.2 (9d81278992624c895f80dd42a50cac0aa55982e2) compiled by '@Darwin' on 04/03/2020

   xtb is free software: you can redistribute it and/or modify it under
   the terms of the GNU Lesser General Public License as published by
   the Free Software Foundation, either version 3 of the License, or
   (at your option) any later version.
   
   xtb is distributed in the hope that it will be useful,
   but WITHOUT ANY WARRANTY; without even the implied warranty of
   MERCHANTABILITY or FITNESS FOR A PARTICULAR PURPOSE.  See the
   GNU Lesser General Public License for more details.
   
   Cite this work as:
   * S. Grimme, C. Bannwarth, P. Shushkov, J. Chem. Theory Comput., 2017,
     13, 1989-2009. DOI: 10.1021/acs.jctc.7b00118
   * C. Bannwarth, S. Ehlert and S. Grimme., J. Chem. Theory Comput., 2019,
     15, 1652-1671. DOI: 10.1021/acs.jctc.8b01176
   * P. Pracht, E. Caldeweyher, S. Ehlert, S. Grimme, ChemRxiv, 2019, preprint.
     DOI: 10.26434/chemrxiv.8326202.v1
   
   for DFT-D4:
   * E. Caldeweyher, C. Bannwarth and S. Grimme, J. Chem. Phys., 2017,
     147, 034112. DOI: 10.1063/1.4993215
   * E. Caldeweyher, S. Ehlert, A. Hansen, H. Neugebauer, S. Spicher,
     C. Bannwarth and S. Grimme, J. Chem. Phys., 2019, 150, 154122.
     DOI: 10.1063/1.5090222
   
   for sTDA-xTB:
   * S. Grimme and C. Bannwarth, J. Chem. Phys., 2016, 145, 054103.
     DOI: 10.1063/1.4959605
   
   in the mass-spec context:
   * V. Asgeirsson, C. Bauer and S. Grimme, Chem. Sci., 2017, 8, 4879.
     DOI: 10.1039/c7sc00601b
   
   for metadynamics refer to:
   * S. Grimme, J. Chem. Theory Comput., 2019, 155, 2847-2862
     DOI: 10.1021/acs.jctc.9b00143
   
   with help from (in alphabetical order)
   C. Bannwarth, F. Bohle, G. Brandenburg, E. Caldeweyher, M. Checinski,
   S. Dohm, S. Ehlert, S. Ehrlich, F. März, H. Neugebauer, J. Pisarek,
   P. Pracht, P. Shushkov, and S. Spicher.
   
 * started run on 2020/05/12 at 11:45:13.228     

           -------------------------------------------------
          |                Calculation Setup                |
           -------------------------------------------------

          program call               : xtb --input H2C2O1_1_S_0.input H2C2O1_1_S_0.xyz --ohess --molden --namespace H2C2O1_1_S_0 output.out
          calculation namespace      : H2C2O1_1_S_0
          coordinate file            : H2C2O1_1_S_0.xyz
          number of atoms            :                     5
          number of electrons        :                    16
          charge                     :                     0
          spin                       :                   0.0
          first test random number   :      0.01583244560152

   ID    Z sym.   atoms
    1    6 C      1, 2
    2    8 O      3
    3    1 H      4, 5

           -------------------------------------------------
          |                 G F N 2 - x T B                 |
           -------------------------------------------------

        Reference                      10.1021/acs.jctc.8b01176
      * Hamiltonian:
        H0-scaling (s, p, d)           1.850000    2.230000    2.230000
        zeta-weighting                 0.500000
      * Dispersion:
        s8                             2.700000
        a1                             0.520000
        a2                             5.000000
        s9                             5.000000
      * Repulsion:
        kExp                           1.500000    1.000000
        rExp                           1.000000
      * Coulomb:
        alpha                          2.000000
        third order                    shell-resolved
        anisotropic                    true
        a3                             3.000000
        a5                             4.000000
        cn-shift                       1.200000
        cn-exp                         4.000000
        max-rad                        5.000000


          ...................................................
          :                      SETUP                      :
          :.................................................:
          :  # basis functions                  14          :
          :  # atomic orbitals                  14          :
          :  # shells                            8          :
          :  # electrons                        16          :
          :  max. iterations                   250          :
          :  Hamiltonian                  GFN2-xTB          :
          :  restarted?                      false          :
          :  GBSA solvation                  false          :
          :  PC potential                    false          :
          :  electronic temp.          300.0000000     K    :
          :  accuracy                    1.0000000          :
          :  -> integral cutoff          0.2500000E+02      :
          :  -> integral neglect         0.1000000E-07      :
          :  -> SCF convergence          0.1000000E-05 Eh   :
          :  -> wf. convergence          0.1000000E-03 e    :
          :  Broyden damping             0.4000000          :
          ...................................................

 iter      E             dE          RMSdq      gap      omega  full diag
   1     -9.0928906 -0.909289E+01  0.105E+01    1.05       0.0  T
   2     -8.6699558  0.422935E+00  0.784E+00    0.32       1.0  T
   3     -8.4774532  0.192503E+00  0.104E+01    1.23       1.0  T
   4     -9.0419171 -0.564464E+00  0.761E+00    1.02       1.0  T
   5     -9.0960418 -0.541247E-01  0.457E+00    1.02       1.0  T
   6     -9.1185692 -0.225274E-01  0.363E+00    0.94       1.0  T
   7     -9.1246822 -0.611302E-02  0.334E+00    0.91       1.0  T
   8     -9.1501062 -0.254240E-01  0.826E-01    0.66       1.0  T
   9     -9.1505204 -0.414148E-03  0.764E-01    0.65       1.0  T
  10     -9.1508801 -0.359706E-03  0.246E-01    0.58       1.0  T
  11     -9.1509598 -0.797296E-04  0.164E-01    0.58       1.0  T
  12     -9.1510291 -0.693272E-04  0.310E-02    0.59       1.4  T
  13     -9.1510253  0.381289E-05  0.464E-02    0.59       1.0  T
  14     -9.1510308 -0.545332E-05  0.400E-03    0.60      11.2  T
  15     -9.1510308  0.993570E-08  0.245E-03    0.60      18.3  T
  16     -9.1510308 -0.180627E-07  0.780E-04    0.60      57.3  T
  17     -9.1510308 -0.261953E-08  0.399E-04    0.59     112.1  T

   *** convergence criteria satisfied after 17 iterations ***

         #    Occupation            Energy/Eh            Energy/eV
      -------------------------------------------------------------
         1        2.0000           -0.7049891             -19.1837
         2        2.0000           -0.6560103             -17.8509
         3        2.0000           -0.6011602             -16.3584
         4        2.0000           -0.5603486             -15.2479
         5        2.0000           -0.5381457             -14.6437
         6        2.0000           -0.5111883             -13.9101
         7        2.0000           -0.4516344             -12.2896
         8        2.0000           -0.4137287             -11.2581 (HOMO)
         9        0.0000           -0.3918650             -10.6632 (LUMO)
        10                         -0.3526584              -9.5963
        11                          0.0799598               2.1758
        12                          0.0843559               2.2954
        13                          0.1121464               3.0517
        14                          0.1487115               4.0466
      -------------------------------------------------------------
                  HL-Gap            0.0218637 Eh            0.5949 eV
             Fermi-level           -0.4027968 Eh          -10.9607 eV

 SCC (total)                   0 d,  0 h,  0 min,  0.003 sec
 SCC setup                      ...        0 min,  0.000 sec (  3.239%)
 Dispersion                     ...        0 min,  0.000 sec (  0.442%)
 integral evaluation            ...        0 min,  0.001 sec ( 23.513%)
 zeroth order Hamiltonian       ...        0 min,  0.000 sec (  0.692%)
 iterations                     ...        0 min,  0.001 sec ( 44.578%)
 molecular gradient             ...        0 min,  0.001 sec ( 24.326%)
 printout                       ...        0 min,  0.000 sec (  2.811%)

         :::::::::::::::::::::::::::::::::::::::::::::::::::::
         ::                     SUMMARY                     ::
         :::::::::::::::::::::::::::::::::::::::::::::::::::::
         :: total energy              -9.099577658778 Eh    ::
         :: gradient norm              0.226246326169 Eh/a0 ::
         :: HOMO-LUMO gap              0.594941946454 eV    ::
         ::.................................................::
         :: SCC energy                -9.151030772926 Eh    ::
         :: -> isotropic ES            0.024105818563 Eh    ::
         :: -> anisotropic ES         -0.002558206184 Eh    ::
         :: -> anisotropic XC          0.009803144835 Eh    ::
         :: -> dispersion             -0.001367845650 Eh    ::
         :: repulsion energy           0.051453071402 Eh    ::
         :: add. restraining           0.000000000000 Eh    ::
         :::::::::::::::::::::::::::::::::::::::::::::::::::::

      ----------------------------------------------------------- 
     |                   =====================                   |
     |                        A N C O P T                        |
     |                   =====================                   |
     |               Approximate Normal Coordinate               |
     |                Rational Function Optimizer                |
      ----------------------------------------------------------- 

          ...................................................
          :                      SETUP                      :
          :.................................................:
          :   optimization level            normal          :
          :   max. optcycles                   200          :
          :   ANC micro-cycles                  20          :
          :   degrees of freedom                 9          :
          :.................................................:
          :   RF solver                   davidson          :
          :   write xtbopt.log                true          :
          :   linear?                        false          :
          :   energy convergence         0.5000000E-05 Eh   :
          :   grad. convergence          0.1000000E-02 Eh/α :
          :   maximium RF displ.         1.0000000          :
          :   Hlow (freq-cutoff)         0.1000000E-01      :
          :   Hmax (freq-cutoff)         5.0000000          :
          :   S6 in model hess.         20.0000000          :
          ...................................................

generating ANC from model Hessian ...
Using Lindh-Hessian (1995)
 Shifting diagonal of input Hessian by    0.0000000000000000     
 Lowest  eigenvalues of input Hessian
   -0.000000   -0.000000   -0.000000   -0.000000    0.000000    0.000000
    0.012355    0.032453    0.094645    0.126544    0.141999    0.571877
    0.812120    1.045529    1.298712
 Highest eigenvalues
    0.126544    0.141999    0.571877    0.812120    1.045529    1.298712


........................................................................
.............................. CYCLE    1 ..............................
........................................................................
   1     -9.1510308 -0.915103E+01  0.999E-05    0.59       0.0  T
   2     -9.1510308  0.382698E-10  0.140E-04    0.59     318.4  T
   3     -9.1510308 -0.883382E-10  0.386E-05    0.59    1157.6  T
     SCC iter.                  ...        0 min,  0.001 sec
     gradient                   ...        0 min,  0.001 sec
 * total energy  :    -9.0995777 Eh     change        0.4499370E-09 Eh
   gradient norm :     0.2262472 Eh/α   predicted     0.0000000E+00 (-100.00%)
   displ. norm   :     0.4936981 α      lambda       -0.8039904E-01
   maximum displ.:     0.2485457 α      in ANC's #2, #5, #6, ...

........................................................................
.............................. CYCLE    2 ..............................
........................................................................
   1     -9.2218482 -0.922185E+01  0.157E+00    0.74       0.0  T
   2     -9.2220476 -0.199396E-03  0.949E-01    0.70       1.0  T
   3     -9.2214754  0.572234E-03  0.447E-01    0.74       1.0  T
   4     -9.2221602 -0.684844E-03  0.866E-02    0.69       1.0  T
   5     -9.2221570  0.325478E-05  0.572E-02    0.71       1.0  T
   6     -9.2221681 -0.111475E-04  0.177E-02    0.70       2.5  T
   7     -9.2221684 -0.264973E-06  0.414E-03    0.70      10.8  T
   8     -9.2221684 -0.360126E-07  0.159E-03    0.70      28.1  T
   9     -9.2221684 -0.452606E-08  0.288E-04    0.70     155.3  T
  10     -9.2221684 -0.127400E-09  0.353E-05    0.70    1268.2  T
     SCC iter.                  ...        0 min,  0.001 sec
     gradient                   ...        0 min,  0.001 sec
 * total energy  :    -9.1549881 Eh     change       -0.5541046E-01 Eh
   gradient norm :     0.1453452 Eh/α   predicted    -0.4999766E-01 (  -9.77%)
   displ. norm   :     0.4234395 α      lambda       -0.4981282E-01
   maximum displ.:     0.2812429 α      in ANC's #6, #1, #9, ...

........................................................................
.............................. CYCLE    3 ..............................
........................................................................
   1     -9.2807719 -0.928077E+01  0.209E+00    0.45       0.0  T
   2     -9.2872746 -0.650272E-02  0.154E+00    1.05       1.0  T
   3     -9.2936575 -0.638295E-02  0.726E-01    0.74       1.0  T
   4     -9.2937326 -0.750966E-04  0.249E-01    0.70       1.0  T
   5     -9.2937502 -0.176107E-04  0.645E-02    0.69       1.0  T
   6     -9.2937562 -0.597050E-05  0.329E-02    0.69       1.4  T
   7     -9.2937565 -0.326391E-06  0.341E-03    0.69      13.1  T
   8     -9.2937565 -0.287388E-08  0.161E-03    0.69      27.8  T
   9     -9.2937565 -0.568045E-09  0.617E-04    0.69      72.5  T
  10     -9.2937565 -0.808823E-09  0.885E-05    0.69     505.4  T
     SCC iter.                  ...        0 min,  0.001 sec
     gradient                   ...        0 min,  0.001 sec
 * total energy  :    -9.1594363 Eh     change       -0.4448203E-02 Eh
   gradient norm :     0.2277456 Eh/α   predicted    -0.2937215E-01 ( 560.31%)
   displ. norm   :     0.3024286 α      lambda       -0.4074560E-01
   maximum displ.:     0.2381150 α      in ANC's #2, #4, #1, ...

........................................................................
.............................. CYCLE    4 ..............................
........................................................................
   1     -9.2578117 -0.925781E+01  0.140E+00    0.94       0.0  T
   2     -9.2601365 -0.232473E-02  0.847E-01    0.42       1.0  T
   3     -9.2625188 -0.238232E-02  0.472E-01    0.74       1.0  T
   4     -9.2627957 -0.276893E-03  0.159E-01    0.65       1.0  T
   5     -9.2628520 -0.562971E-04  0.605E-02    0.66       1.0  T
   6     -9.2628604 -0.845536E-05  0.138E-02    0.67       3.2  T
   7     -9.2628605 -0.548034E-07  0.827E-03    0.67       5.4  T
   8     -9.2628605 -0.326073E-07  0.123E-03    0.67      36.3  T
   9     -9.2628605 -0.483881E-09  0.257E-04    0.67     174.1  T
  10     -9.2628605 -0.145898E-09  0.781E-05    0.67     572.3  T
     SCC iter.                  ...        0 min,  0.001 sec
     gradient                   ...        0 min,  0.001 sec
 * total energy  :    -9.1758992 Eh     change       -0.1646284E-01 Eh
   gradient norm :     0.0472622 Eh/α   predicted    -0.2223616E-01 (  35.07%)
   displ. norm   :     0.2432618 α      lambda       -0.4565522E-02
   maximum displ.:     0.1641310 α      in ANC's #2, #3, #1, ...

........................................................................
.............................. CYCLE    5 ..............................
........................................................................
   1     -9.2699156 -0.926992E+01  0.116E+00    0.65       0.0  T
   2     -9.2704034 -0.487818E-03  0.582E-01    0.64       1.0  T
   3     -9.2702490  0.154451E-03  0.364E-01    0.56       1.0  T
   4     -9.2705650 -0.316069E-03  0.108E-01    0.63       1.0  T
   5     -9.2706018 -0.368082E-04  0.411E-02    0.59       1.1  T
   6     -9.2706056 -0.380635E-05  0.128E-02    0.61       3.5  T
   7     -9.2706057 -0.751809E-07  0.305E-03    0.60      14.7  T
   8     -9.2706057 -0.964965E-08  0.147E-03    0.60      30.5  T
   9     -9.2706057 -0.188837E-08  0.258E-04    0.60     173.1  T
  10     -9.2706057 -0.329230E-10  0.355E-05    0.60    1258.5  T
     SCC iter.                  ...        0 min,  0.001 sec
     gradient                   ...        0 min,  0.001 sec
 * total energy  :    -9.1800915 Eh     change       -0.4192307E-02 Eh
   gradient norm :     0.0513946 Eh/α   predicted    -0.2417850E-02 ( -42.33%)
   displ. norm   :     0.8714670 α      lambda       -0.2012631E-01
   maximum displ.:     0.5824797 α      in ANC's #3, #2, #6, ...

........................................................................
.............................. CYCLE    6 ..............................
........................................................................
   1     -9.2224986 -0.922250E+01  0.491E+00    1.23       0.0  T
   2     -9.0997313  0.122767E+00  0.521E+00    1.94       1.0  T
   3     -9.2683340 -0.168603E+00  0.199E+00    1.30       1.0  T
   4     -9.2780643 -0.973033E-02  0.597E-01    1.32       1.0  T
   5     -9.2784734 -0.409077E-03  0.305E-01    1.35       1.0  T
   6     -9.2784895 -0.161631E-04  0.934E-02    1.36       1.0  T
   7     -9.2785114 -0.219161E-04  0.472E-02    1.35       1.0  T
   8     -9.2785191 -0.764743E-05  0.918E-03    1.35       4.9  T
   9     -9.2785191 -0.413464E-07  0.711E-03    1.35       6.3  T
  10     -9.2785192 -0.106113E-06  0.499E-04    1.35      89.6  T
  11     -9.2785192  0.922697E-09  0.811E-04    1.35      55.2  T
     SCC iter.                  ...        0 min,  0.001 sec
     gradient                   ...        0 min,  0.001 sec
 * total energy  :    -9.1834351 Eh     change       -0.3343608E-02 Eh
   gradient norm :     0.0985250 Eh/α   predicted    -0.1770571E-01 ( 429.54%)
   displ. norm   :     0.3918744 α      lambda       -0.2009316E-01
   maximum displ.:     0.3425735 α      in ANC's #2, #3, #1, ...

........................................................................
.............................. CYCLE    7 ..............................
........................................................................
   1     -9.3159335 -0.931593E+01  0.640E-01    1.44       0.0  T
   2     -9.3149851  0.948359E-03  0.582E-01    1.50       1.0  T
   3     -9.3161455 -0.116034E-02  0.379E-01    1.42       1.0  T
   4     -9.3165525 -0.407002E-03  0.841E-02    1.45       1.0  T
   5     -9.3165636 -0.111780E-04  0.237E-02    1.44       1.9  T
   6     -9.3165638 -0.208570E-06  0.810E-03    1.45       5.5  T
   7     -9.3165639 -0.160001E-07  0.193E-03    1.45      23.1  T
   8     -9.3165639 -0.401513E-08  0.833E-04    1.45      53.7  T
   9     -9.3165639 -0.134390E-08  0.105E-04    1.45     424.1  T
     SCC iter.                  ...        0 min,  0.001 sec
     gradient                   ...        0 min,  0.001 sec
 * total energy  :    -9.1942089 Eh     change       -0.1077377E-01 Eh
   gradient norm :     0.0930931 Eh/α   predicted    -0.1158939E-01 (   7.57%)
   displ. norm   :     0.4752776 α      lambda       -0.1545683E-01
   maximum displ.:     0.4112969 α      in ANC's #1, #4, #6, ...

........................................................................
.............................. CYCLE    8 ..............................
........................................................................
   1     -9.2976162 -0.929762E+01  0.155E+00    1.81       0.0  T
   2     -9.2742492  0.233671E-01  0.255E+00    1.35       1.0  T
   3     -9.3044896 -0.302404E-01  0.645E-01    1.64       1.0  T
   4     -9.3044982 -0.858016E-05  0.164E-01    1.60       1.0  T
   5     -9.3045545 -0.563041E-04  0.357E-02    1.63       1.3  T
   6     -9.3045568 -0.234455E-05  0.204E-02    1.62       2.2  T
   7     -9.3045576 -0.819024E-06  0.623E-03    1.62       7.2  T
   8     -9.3045576 -0.221988E-07  0.840E-04    1.62      53.2  T
   9     -9.3045576 -0.939817E-10  0.352E-04    1.62     127.0  T
     SCC iter.                  ...        0 min,  0.001 sec
     gradient                   ...        0 min,  0.001 sec
 * total energy  :    -9.1948336 Eh     change       -0.6247664E-03 Eh
   gradient norm :     0.1447443 Eh/α   predicted    -0.9474178E-02 (1416.44%)
   displ. norm   :     0.2286243 α      lambda       -0.1839959E-01
   maximum displ.:     0.1490195 α      in ANC's #3, #1, #9, ...

........................................................................
.............................. CYCLE    9 ..............................
........................................................................
   1     -9.3139827 -0.931398E+01  0.196E+00    2.06       0.0  T
   2     -9.2926784  0.213042E-01  0.241E+00    2.42       1.0  T
   3     -9.3299888 -0.373104E-01  0.427E-01    2.20       1.0  T
   4     -9.3301141 -0.125313E-03  0.205E-01    2.20       1.0  T
   5     -9.3301899 -0.757346E-04  0.645E-02    2.21       1.0  T
   6     -9.3302014 -0.115292E-04  0.174E-02    2.21       2.6  T
   7     -9.3302014 -0.680387E-07  0.654E-03    2.21       6.8  T
   8     -9.3302015 -0.815230E-07  0.999E-04    2.21      44.8  T
   9     -9.3302015 -0.143770E-08  0.314E-04    2.21     142.3  T
     SCC iter.                  ...        0 min,  0.001 sec
     gradient                   ...        0 min,  0.001 sec
 * total energy  :    -9.2073566 Eh     change       -0.1252303E-01 Eh
   gradient norm :     0.0537549 Eh/α   predicted    -0.9680663E-02 ( -22.70%)
   displ. norm   :     0.7196414 α      lambda       -0.2204187E-01
   maximum displ.:     0.4685879 α      in ANC's #3, #1, #6, ...

........................................................................
.............................. CYCLE   10 ..............................
........................................................................
   1     -9.3227437 -0.932274E+01  0.345E+00    4.14       0.0  T
   2     -9.2970088  0.257349E-01  0.323E+00    4.27       1.0  T
   3     -9.3529497 -0.559408E-01  0.125E+00    4.15       1.0  T
   4     -9.3553194 -0.236975E-02  0.329E-01    4.12       1.0  T
   5     -9.3555228 -0.203320E-03  0.961E-02    4.14       1.0  T
   6     -9.3555353 -0.125539E-04  0.315E-02    4.15       1.4  T
   7     -9.3555358 -0.532588E-06  0.579E-03    4.14       7.7  T
   8     -9.3555359 -0.445365E-07  0.114E-03    4.14      39.3  T
   9     -9.3555359 -0.226281E-08  0.439E-04    4.14     101.9  T
  10     -9.3555359 -0.100494E-08  0.315E-05    4.14    1418.6  T
     SCC iter.                  ...        0 min,  0.001 sec
     gradient                   ...        0 min,  0.001 sec
 * total energy  :    -9.2273507 Eh     change       -0.1999402E-01 Eh
   gradient norm :     0.1042836 Eh/α   predicted    -0.1672849E-01 ( -16.33%)
   displ. norm   :     0.9039142 α      lambda       -0.3208008E-01
   maximum displ.:     0.6215047 α      in ANC's #3, #1, #6, ...

........................................................................
.............................. CYCLE   11 ..............................
........................................................................
   1     -9.3305856 -0.933059E+01  0.448E+00    5.20       0.0  T
   2     -9.3056533  0.249323E-01  0.417E+00    4.12       1.0  T
   3     -9.3792825 -0.736292E-01  0.173E+00    4.79       1.0  T
   4     -9.3822503 -0.296781E-02  0.554E-01    4.56       1.0  T
   5     -9.3830807 -0.830352E-03  0.957E-02    4.62       1.0  T
   6     -9.3830795  0.115479E-05  0.549E-02    4.63       1.0  T
   7     -9.3830836 -0.409482E-05  0.647E-03    4.62       6.9  T
   8     -9.3830837 -0.373161E-07  0.210E-03    4.62      21.3  T
   9     -9.3830837 -0.802045E-08  0.397E-04    4.62     112.7  T
  10     -9.3830837 -0.133841E-09  0.591E-05    4.62     757.1  T
     SCC iter.                  ...        0 min,  0.001 sec
     gradient                   ...        0 min,  0.001 sec
 * total energy  :    -9.2247176 Eh     change        0.2633078E-02 Eh
   gradient norm :     0.2392157 Eh/α   predicted    -0.2914573E-01 (*******%)
   displ. norm   :     0.4617880 α      lambda       -0.9172051E-01
   maximum displ.:     0.3117501 α      in ANC's #3, #1, #6, ...

........................................................................
.............................. CYCLE   12 ..............................
........................................................................
   1     -9.3951524 -0.939515E+01  0.136E+00    5.32       0.0  T
   2     -9.3960479 -0.895436E-03  0.779E-01    5.45       1.0  T
   3     -9.3967464 -0.698477E-03  0.596E-01    5.31       1.0  T
   4     -9.3974782 -0.731834E-03  0.131E-01    5.38       1.0  T
   5     -9.3975069 -0.287367E-04  0.482E-02    5.36       1.0  T
   6     -9.3975092 -0.227238E-05  0.116E-02    5.37       3.9  T
   7     -9.3975093 -0.617962E-07  0.337E-03    5.37      13.3  T
   8     -9.3975093 -0.476348E-07  0.112E-03    5.37      39.8  T
   9     -9.3975093 -0.341853E-08  0.139E-04    5.37     320.7  T
  10     -9.3975093 -0.251177E-11  0.546E-05    5.37     819.4  T
     SCC iter.                  ...        0 min,  0.001 sec
     gradient                   ...        0 min,  0.001 sec
 * total energy  :    -9.2578475 Eh     change       -0.3312989E-01 Eh
   gradient norm :     0.1891540 Eh/α   predicted    -0.5563991E-01 (  67.94%)
   displ. norm   :     0.2584159 α      lambda       -0.2064117E-01
   maximum displ.:     0.1717155 α      in ANC's #8, #7, #3, ...

........................................................................
.............................. CYCLE   13 ..............................
........................................................................
   1     -9.4096106 -0.940961E+01  0.121E+00    4.78       0.0  T
   2     -9.4096896 -0.789964E-04  0.718E-01    4.79       1.0  T
   3     -9.4096329  0.567775E-04  0.151E-01    4.76       1.0  T
   4     -9.4097071 -0.742742E-04  0.598E-02    4.80       1.0  T
   5     -9.4097145 -0.735941E-05  0.207E-02    4.78       2.2  T
   6     -9.4097154 -0.857677E-06  0.851E-03    4.79       5.3  T
   7     -9.4097154 -0.253800E-07  0.907E-04    4.79      49.3  T
   8     -9.4097154 -0.435360E-09  0.412E-04    4.79     108.4  T
     SCC iter.                  ...        0 min,  0.001 sec
     gradient                   ...        0 min,  0.001 sec
 * total energy  :    -9.2744787 Eh     change       -0.1663127E-01 Eh
   gradient norm :     0.1261252 Eh/α   predicted    -0.1100978E-01 ( -33.80%)
   displ. norm   :     0.5717803 α      lambda       -0.3190118E-01
   maximum displ.:     0.3552124 α      in ANC's #8, #7, #2, ...

........................................................................
.............................. CYCLE   14 ..............................
........................................................................
   1     -9.4247509 -0.942475E+01  0.220E+00    3.38       0.0  T
   2     -9.4269184 -0.216749E-02  0.164E+00    2.87       1.0  T
   3     -9.4309023 -0.398394E-02  0.884E-01    3.18       1.0  T
   4     -9.4314059 -0.503621E-03  0.218E-01    3.04       1.0  T
   5     -9.4315636 -0.157677E-03  0.590E-02    3.07       1.0  T
   6     -9.4315669 -0.328238E-05  0.114E-02    3.08       3.9  T
   7     -9.4315670 -0.795869E-07  0.496E-03    3.07       9.0  T
   8     -9.4315670 -0.576700E-07  0.439E-04    3.08     101.9  T
   9     -9.4315670 -0.544560E-10  0.100E-04    3.08     446.1  T
     SCC iter.                  ...        0 min,  0.001 sec
     gradient                   ...        0 min,  0.001 sec
 * total energy  :    -9.2858269 Eh     change       -0.1134815E-01 Eh
   gradient norm :     0.1657180 Eh/α   predicted    -0.2116538E-01 (  86.51%)
   displ. norm   :     0.4520711 α      lambda       -0.3189296E-01
   maximum displ.:     0.3927298 α      in ANC's #1, #2, #3, ...

........................................................................
.............................. CYCLE   15 ..............................
........................................................................
   1     -9.4281781 -0.942818E+01  0.241E+00    3.39       0.0  T
   2     -9.4390106 -0.108325E-01  0.150E+00    3.78       1.0  T
   3     -9.4448663 -0.585565E-02  0.644E-01    3.57       1.0  T
   4     -9.4449195 -0.532126E-04  0.128E-01    3.62       1.0  T
   5     -9.4449567 -0.371743E-04  0.532E-02    3.60       1.0  T
   6     -9.4449622 -0.556834E-05  0.117E-02    3.61       3.8  T
   7     -9.4449626 -0.398586E-06  0.332E-03    3.61      13.5  T
   8     -9.4449627 -0.245105E-07  0.485E-04    3.61      92.3  T
   9     -9.4449627 -0.684128E-10  0.808E-05    3.61     553.8  T
     SCC iter.                  ...        0 min,  0.001 sec
     gradient                   ...        0 min,  0.001 sec
 * total energy  :    -9.2786834 Eh     change        0.7143546E-02 Eh
   gradient norm :     0.2082734 Eh/α   predicted    -0.1920543E-01 (-368.85%)
   displ. norm   :     0.2908960 α      lambda       -0.3291457E-01
   maximum displ.:     0.2166124 α      in ANC's #1, #2, #4, ...

........................................................................
.............................. CYCLE   16 ..............................
........................................................................
   1     -9.4415441 -0.944154E+01  0.157E+00    3.87       0.0  T
   2     -9.4454085 -0.386446E-02  0.101E+00    3.48       1.0  T
   3     -9.4484189 -0.301037E-02  0.441E-01    3.68       1.0  T
   4     -9.4484201 -0.122880E-05  0.165E-01    3.62       1.0  T
   5     -9.4485163 -0.961663E-04  0.306E-02    3.64       1.5  T
   6     -9.4485168 -0.548763E-06  0.690E-03    3.64       6.5  T
   7     -9.4485169 -0.103883E-06  0.291E-03    3.64      15.4  T
   8     -9.4485169 -0.289761E-08  0.408E-04    3.64     109.6  T
   9     -9.4485169 -0.707345E-10  0.685E-05    3.64     653.2  T
     SCC iter.                  ...        0 min,  0.001 sec
     gradient                   ...        0 min,  0.001 sec
 * total energy  :    -9.2967803 Eh     change       -0.1809698E-01 Eh
   gradient norm :     0.0392676 Eh/α   predicted    -0.1784990E-01 (  -1.37%)
   displ. norm   :     0.1736269 α      lambda       -0.4668950E-02
   maximum displ.:     0.1273335 α      in ANC's #1, #4, #9, ...

........................................................................
.............................. CYCLE   17 ..............................
........................................................................
   1     -9.4578134 -0.945781E+01  0.442E-01    3.86       0.0  T
   2     -9.4578674 -0.539908E-04  0.265E-01    3.82       1.0  T
   3     -9.4578580  0.943557E-05  0.173E-01    3.86       1.0  T
   4     -9.4579102 -0.522043E-04  0.226E-02    3.84       2.0  T
   5     -9.4579116 -0.137547E-05  0.104E-02    3.84       4.3  T
   6     -9.4579116 -0.453444E-07  0.200E-03    3.84      22.4  T
   7     -9.4579116 -0.131426E-08  0.340E-04    3.84     131.5  T
   8     -9.4579116 -0.104837E-09  0.854E-05    3.84     523.7  T
     SCC iter.                  ...        0 min,  0.001 sec
     gradient                   ...        0 min,  0.001 sec
 * total energy  :    -9.3006215 Eh     change       -0.3841184E-02 Eh
   gradient norm :     0.0455179 Eh/α   predicted    -0.2404853E-02 ( -37.39%)
   displ. norm   :     0.4695954 α      lambda       -0.1223404E-01
   maximum displ.:     0.3760802 α      in ANC's #4, #1, #9, ...

........................................................................
.............................. CYCLE   18 ..............................
........................................................................
   1     -9.4614761 -0.946148E+01  0.109E+00    3.73       0.0  T
   2     -9.4615474 -0.712836E-04  0.673E-01    3.78       1.0  T
   3     -9.4613764  0.170963E-03  0.242E-01    3.71       1.0  T
   4     -9.4616074 -0.230957E-03  0.394E-02    3.77       1.1  T
   5     -9.4616078 -0.424109E-06  0.208E-02    3.77       2.2  T
   6     -9.4616083 -0.500073E-06  0.296E-03    3.77      15.1  T
   7     -9.4616083 -0.340204E-08  0.793E-04    3.77      56.4  T
   8     -9.4616083 -0.546695E-09  0.220E-04    3.77     203.6  T
     SCC iter.                  ...        0 min,  0.001 sec
     gradient                   ...        0 min,  0.001 sec
 * total energy  :    -9.3100934 Eh     change       -0.9471873E-02 Eh
   gradient norm :     0.0262955 Eh/α   predicted    -0.7465963E-02 ( -21.18%)
   displ. norm   :     0.5386567 α      lambda       -0.1032375E-01
   maximum displ.:     0.4342087 α      in ANC's #4, #2, #1, ...

........................................................................
.............................. CYCLE   19 ..............................
........................................................................
   1     -9.4586127 -0.945861E+01  0.118E+00    3.52       0.0  T
   2     -9.4588809 -0.268176E-03  0.761E-01    3.64       1.0  T
   3     -9.4586640  0.216934E-03  0.454E-01    3.52       1.0  T
   4     -9.4591469 -0.482956E-03  0.508E-02    3.60       1.0  T
   5     -9.4591500 -0.308328E-05  0.306E-02    3.59       1.5  T
   6     -9.4591506 -0.585209E-06  0.575E-03    3.59       7.8  T
   7     -9.4591506 -0.272628E-07  0.101E-03    3.59      44.3  T
   8     -9.4591506 -0.147504E-08  0.325E-04    3.59     137.8  T
   9     -9.4591506 -0.378346E-10  0.726E-05    3.59     616.2  T
     SCC iter.                  ...        0 min,  0.001 sec
     gradient                   ...        0 min,  0.001 sec
 * total energy  :    -9.3148391 Eh     change       -0.4745666E-02 Eh
   gradient norm :     0.0755278 Eh/α   predicted    -0.6659596E-02 (  40.33%)
   displ. norm   :     0.1180540 α      lambda       -0.3587791E-02
   maximum displ.:     0.0750288 α      in ANC's #2, #8, #7, ...

........................................................................
.............................. CYCLE   20 ..............................
........................................................................
   1     -9.4676546 -0.946765E+01  0.625E-01    3.71       0.0  T
   2     -9.4682493 -0.594695E-03  0.433E-01    3.52       1.0  T
   3     -9.4687888 -0.539470E-03  0.184E-01    3.61       1.0  T
   4     -9.4687900 -0.125593E-05  0.469E-02    3.59       1.0  T
   5     -9.4687977 -0.766957E-05  0.126E-02    3.59       3.6  T
   6     -9.4687979 -0.153081E-06  0.279E-03    3.59      16.0  T
   7     -9.4687979 -0.252480E-08  0.115E-03    3.59      39.0  T
   8     -9.4687979 -0.194887E-08  0.154E-04    3.59     290.0  T
   9     -9.4687979 -0.101235E-10  0.340E-05    3.59    1317.1  T
     SCC iter.                  ...        0 min,  0.001 sec
     gradient                   ...        0 min,  0.001 sec
 * total energy  :    -9.3163379 Eh     change       -0.1498887E-02 Eh
   gradient norm :     0.0254740 Eh/α   predicted    -0.1818895E-02 (  21.35%)
   displ. norm   :     0.0891260 α      lambda       -0.1184151E-02
   maximum displ.:     0.0515147 α      in ANC's #4, #5, #1, ...
 * RMSD in coord.:     1.4087085 α      energy gain  -0.2167603E+00 Eh

generating ANC from model Hessian ...
Using Lindh-Hessian (1995)
 Shifting diagonal of input Hessian by    9.6962905287083460E-003
 Lowest  eigenvalues of input Hessian
   -0.000000   -0.000000   -0.000000   -0.000000    0.000000    0.000000
    0.010000    0.010682    0.128555    0.189302    0.417801    0.630681
    1.287666    1.496385    2.775127
 Highest eigenvalues
    0.189302    0.417801    0.630681    1.287666    1.496385    2.775127


........................................................................
.............................. CYCLE   21 ..............................
........................................................................
   1     -9.4676137 -0.946761E+01  0.262E-01    3.59       0.0  T
   2     -9.4676338 -0.200277E-04  0.167E-01    3.62       1.0  T
   3     -9.4676326  0.118545E-05  0.105E-01    3.59       1.0  T
   4     -9.4676508 -0.181713E-04  0.124E-02    3.61       3.6  T
   5     -9.4676511 -0.350615E-06  0.620E-03    3.61       7.2  T
   6     -9.4676511 -0.231457E-07  0.167E-03    3.61      26.7  T
   7     -9.4676511 -0.124897E-08  0.255E-04    3.61     175.4  T
   8     -9.4676511 -0.312284E-10  0.766E-05    3.61     584.1  T
     SCC iter.                  ...        0 min,  0.001 sec
     gradient                   ...        0 min,  0.001 sec
 * total energy  :    -9.3171969 Eh     change       -0.8589450E-03 Eh
   gradient norm :     0.0191421 Eh/α   predicted     0.0000000E+00 (-100.00%)
   displ. norm   :     0.0844861 α      lambda       -0.5256989E-03
   maximum displ.:     0.0720435 α      in ANC's #1, #2, #3, ...

........................................................................
.............................. CYCLE   22 ..............................
........................................................................
   1     -9.4719592 -0.947196E+01  0.304E-01    3.68       0.0  T
   2     -9.4719747 -0.155068E-04  0.183E-01    3.65       1.0  T
   3     -9.4719613  0.133802E-04  0.117E-01    3.69       1.0  T
   4     -9.4719900 -0.286751E-04  0.560E-03    3.67       8.0  T
   5     -9.4719901 -0.871770E-07  0.289E-03    3.67      15.5  T
   6     -9.4719901 -0.472573E-08  0.818E-04    3.67      54.6  T
   7     -9.4719901 -0.258607E-09  0.149E-04    3.67     299.4  T
     SCC iter.                  ...        0 min,  0.000 sec
     gradient                   ...        0 min,  0.001 sec
 * total energy  :    -9.3174399 Eh     change       -0.2429889E-03 Eh
   gradient norm :     0.0100794 Eh/α   predicted    -0.2647246E-03 (   8.95%)
   displ. norm   :     0.1631755 α      lambda       -0.1125261E-02
   maximum displ.:     0.1122365 α      in ANC's #1, #2, #3, ...

........................................................................
.............................. CYCLE   23 ..............................
........................................................................
   1     -9.4823793 -0.948238E+01  0.564E-01    3.83       0.0  T
   2     -9.4824460 -0.667138E-04  0.342E-01    3.76       1.0  T
   3     -9.4824163  0.297039E-04  0.213E-01    3.82       1.0  T
   4     -9.4825018 -0.855279E-04  0.116E-02    3.79       3.8  T
   5     -9.4825020 -0.246967E-06  0.683E-03    3.79       6.5  T
   6     -9.4825021 -0.197639E-07  0.116E-03    3.79      38.5  T
   7     -9.4825021 -0.689818E-09  0.329E-04    3.79     135.8  T
   8     -9.4825021 -0.559872E-10  0.711E-05    3.79     628.9  T
     SCC iter.                  ...        0 min,  0.001 sec
     gradient                   ...        0 min,  0.001 sec
 * total energy  :    -9.3174417 Eh     change       -0.1877243E-05 Eh
   gradient norm :     0.0292854 Eh/α   predicted    -0.5776085E-03 (*******%)
   displ. norm   :     0.0726676 α      lambda       -0.8305951E-03
   maximum displ.:     0.0596655 α      in ANC's #2, #1, #5, ...

........................................................................
.............................. CYCLE   24 ..............................
........................................................................
   1     -9.4763935 -0.947639E+01  0.258E-01    3.69       0.0  T
   2     -9.4764239 -0.303770E-04  0.165E-01    3.73       1.0  T
   3     -9.4764413 -0.173817E-04  0.104E-01    3.70       1.0  T
   4     -9.4764523 -0.109968E-04  0.684E-03    3.71       6.5  T
   5     -9.4764524 -0.123022E-06  0.350E-03    3.71      12.8  T
   6     -9.4764524 -0.550797E-08  0.847E-04    3.71      52.8  T
   7     -9.4764524 -0.246381E-09  0.147E-04    3.71     304.5  T
     SCC iter.                  ...        0 min,  0.000 sec
     gradient                   ...        0 min,  0.001 sec
 * total energy  :    -9.3179267 Eh     change       -0.4849782E-03 Eh
   gradient norm :     0.0095554 Eh/α   predicted    -0.4174918E-03 ( -13.92%)
   displ. norm   :     0.2697647 α      lambda       -0.1165098E-02
   maximum displ.:     0.2028546 α      in ANC's #1, #2, #3, ...

........................................................................
.............................. CYCLE   25 ..............................
........................................................................
   1     -9.4553315 -0.945533E+01  0.131E+00    3.48       0.0  T
   2     -9.4555651 -0.233609E-03  0.793E-01    3.62       1.0  T
   3     -9.4552117  0.353365E-03  0.541E-01    3.47       1.0  T
   4     -9.4558839 -0.672179E-03  0.311E-02    3.56       1.4  T
   5     -9.4558863 -0.237882E-05  0.167E-02    3.56       2.7  T
   6     -9.4558864 -0.865720E-07  0.291E-03    3.56      15.4  T
   7     -9.4558864 -0.179848E-07  0.879E-04    3.56      50.9  T
   8     -9.4558864 -0.120347E-08  0.248E-04    3.56     180.4  T
     SCC iter.                  ...        0 min,  0.001 sec
     gradient                   ...        0 min,  0.001 sec
 * total energy  :    -9.3152818 Eh     change        0.2644920E-02 Eh
   gradient norm :     0.0475274 Eh/α   predicted    -0.6249471E-03 (-123.63%)
   displ. norm   :     0.2167481 α      lambda       -0.6202387E-02
   maximum displ.:     0.1590561 α      in ANC's #1, #2, #5, ...

........................................................................
.............................. CYCLE   26 ..............................
........................................................................
   1     -9.4735979 -0.947360E+01  0.110E+00    3.76       0.0  T
   2     -9.4737890 -0.191113E-03  0.658E-01    3.64       1.0  T
   3     -9.4736028  0.186258E-03  0.427E-01    3.76       1.0  T
   4     -9.4739837 -0.380953E-03  0.212E-02    3.69       2.1  T
   5     -9.4739844 -0.673059E-06  0.123E-02    3.69       3.6  T
   6     -9.4739844 -0.368821E-07  0.165E-03    3.69      27.1  T
   7     -9.4739844 -0.702783E-08  0.455E-04    3.69      98.2  T
   8     -9.4739844 -0.138352E-09  0.130E-04    3.69     343.7  T
     SCC iter.                  ...        0 min,  0.001 sec
     gradient                   ...        0 min,  0.001 sec
 * total energy  :    -9.3181397 Eh     change       -0.2857876E-02 Eh
   gradient norm :     0.0028798 Eh/α   predicted    -0.3246888E-02 (  13.61%)
   displ. norm   :     0.0257359 α      lambda       -0.4057991E-04
   maximum displ.:     0.0222926 α      in ANC's #3, #6, #1, ...

........................................................................
.............................. CYCLE   27 ..............................
........................................................................
   1     -9.4736773 -0.947368E+01  0.710E-02    3.69       0.0  T
   2     -9.4736774 -0.164211E-06  0.441E-02    3.69       1.0  T
   3     -9.4736775 -0.910634E-07  0.357E-03    3.69      12.5  T
   4     -9.4736775 -0.293190E-07  0.192E-03    3.69      23.3  T
   5     -9.4736775 -0.485212E-09  0.779E-04    3.69      57.4  T
   6     -9.4736775 -0.166015E-08  0.140E-04    3.69     319.4  T
     SCC iter.                  ...        0 min,  0.000 sec
     gradient                   ...        0 min,  0.001 sec
 * total energy  :    -9.3181698 Eh     change       -0.3010218E-04 Eh
   gradient norm :     0.0021629 Eh/α   predicted    -0.2030531E-04 ( -32.55%)
   displ. norm   :     0.0297980 α      lambda       -0.2579567E-04
   maximum displ.:     0.0274176 α      in ANC's #3, #6, #2, ...

........................................................................
.............................. CYCLE   28 ..............................
........................................................................
   1     -9.4736813 -0.947368E+01  0.723E-02    3.69       0.0  T
   2     -9.4736816 -0.305429E-06  0.452E-02    3.69       1.0  T
   3     -9.4736812  0.388977E-06  0.126E-02    3.69       3.5  T
   4     -9.4736819 -0.618040E-06  0.239E-03    3.69      18.7  T
   5     -9.4736819 -0.203204E-08  0.135E-03    3.69      33.1  T
   6     -9.4736819 -0.188375E-08  0.194E-04    3.69     230.5  T
   7     -9.4736819 -0.366231E-10  0.248E-05    3.69    1805.4  T
     SCC iter.                  ...        0 min,  0.000 sec
     gradient                   ...        0 min,  0.001 sec
 * total energy  :    -9.3181843 Eh     change       -0.1454045E-04 Eh
   gradient norm :     0.0011934 Eh/α   predicted    -0.1291050E-04 ( -11.21%)
   displ. norm   :     0.0091752 α      lambda       -0.2303187E-05
   maximum displ.:     0.0078837 α      in ANC's #3, #4, #1, ...

........................................................................
.............................. CYCLE   29 ..............................
........................................................................
   1     -9.4739299 -0.947393E+01  0.213E-02    3.69       0.0  T
   2     -9.4739300 -0.123528E-06  0.134E-02    3.69       3.3  T
   3     -9.4739300  0.191739E-07  0.833E-03    3.69       5.4  T
   4     -9.4739301 -0.119742E-06  0.875E-04    3.69      51.1  T
   5     -9.4739301 -0.165775E-08  0.474E-04    3.69      94.3  T
     SCC iter.                  ...        0 min,  0.000 sec
     gradient                   ...        0 min,  0.001 sec
 * total energy  :    -9.3181863 Eh     change       -0.1973712E-05 Eh
   gradient norm :     0.0007428 Eh/α   predicted    -0.1150651E-05 ( -41.70%)
   displ. norm   :     0.0023323 α      lambda       -0.6874083E-06
   maximum displ.:     0.0011875 α      in ANC's #6, #1, #4, ...

   *** GEOMETRY OPTIMIZATION CONVERGED AFTER 29 ITERATIONS ***

------------------------------------------------------------------------
 total energy gain   :        -0.2186086 Eh     -137.1790 kcal/mol
 total RMSD          :         1.4292699 a0        0.7563 Å
 total power (kW/mol):       -19.7916174 (step)-8818.0340 (real)
------------------------------------------------------------------------

 ANCopt (total)                0 d,  0 h,  0 min,  0.065 sec
 optimizer setup                ...        0 min,  0.000 sec (  0.119%)
 model hessian                  ...        0 min,  0.000 sec (  0.277%)
 ANC generation                 ...        0 min,  0.000 sec (  0.195%)
 coordinate transformation      ...        0 min,  0.000 sec (  0.105%)
 single point calculation       ...        0 min,  0.062 sec ( 95.564%)
 optimization log               ...        0 min,  0.001 sec (  1.197%)
 hessian update                 ...        0 min,  0.000 sec (  0.106%)
 rational function              ...        0 min,  0.001 sec (  1.121%)

================
 final structure:
================
5
 xtb: 6.2.2 (9d81278992624c895f80dd42a50cac0aa55982e2)
C        -0.55309776709215   -0.52029834719472    0.07178474872192
C         0.38145025721557    0.35866646948600   -0.04926890706703
O        -1.39390721037419   -1.31448666279855    0.18116274861335
H         0.16520644160891    1.40722466456185    0.00846806484202
H         1.40034927864186    0.06889387594542   -0.21214565511027

 Bond Distances (Angstroems)
 ---------------------------
C1-C2=1.2886         C1-O3=1.1617         C2-C1=1.2886         C2-H4=1.0722         C2-H5=1.0718         O3-C1=1.1617         
H4-C2=1.0722         H5-C2=1.0718         
 C  H  Rav=1.0720 sigma=0.0002  Rmin=1.0718  Rmax=1.0722     2
 C  C  Rav=1.2886 sigma=0.0000  Rmin=1.2886  Rmax=1.2886     1
 O  C  Rav=1.1617 sigma=0.0000  Rmin=1.1617  Rmax=1.1617     1

 selected bond angles (degree)
 --------------------
O3-C1-C2=179.88                H4-C2-C1=121.05                H5-C2-C1=121.29                H5-C2-H4=117.67                

 selected dihedral angles (degree)
 ---------------------------------
H4-C2-C1-O3=192.59            H5-C2-C1-O3= 12.67            
           -------------------------------------------------
          |                Final Singlepoint                |
           -------------------------------------------------

          ...................................................
          :                      SETUP                      :
          :.................................................:
          :  # basis functions                  14          :
          :  # atomic orbitals                  14          :
          :  # shells                            8          :
          :  # electrons                        16          :
          :  max. iterations                   250          :
          :  Hamiltonian                  GFN2-xTB          :
          :  restarted?                      false          :
          :  GBSA solvation                  false          :
          :  PC potential                    false          :
          :  electronic temp.          300.0000000     K    :
          :  accuracy                    1.0000000          :
          :  -> integral cutoff          0.2500000E+02      :
          :  -> integral neglect         0.1000000E-07      :
          :  -> SCF convergence          0.1000000E-05 Eh   :
          :  -> wf. convergence          0.1000000E-03 e    :
          :  Broyden damping             0.4000000          :
          ...................................................

 iter      E             dE          RMSdq      gap      omega  full diag
   1     -9.4739301 -0.947393E+01  0.942E-05    3.69       0.0  T
   2     -9.4739301 -0.465050E-11  0.517E-05    3.69     865.7  T
   3     -9.4739301 -0.754952E-12  0.220E-05    3.69    2030.6  T

   *** convergence criteria satisfied after 3 iterations ***

         #    Occupation            Energy/Eh            Energy/eV
      -------------------------------------------------------------
         1        2.0000           -0.7469740             -20.3262
         2        2.0000           -0.6498701             -17.6839
         3        2.0000           -0.5825165             -15.8511
         4        2.0000           -0.5740532             -15.6208
         5        2.0000           -0.5707329             -15.5304
         6        2.0000           -0.5132813             -13.9671
         7        2.0000           -0.4867566             -13.2453
         8        2.0000           -0.3903222             -10.6212 (HOMO)
         9                         -0.2547472              -6.9320 (LUMO)
        10                         -0.1654610              -4.5024
        11                          0.1356608               3.6915
        12                          0.3264946               8.8844
        13                          0.3554266               9.6716
        14                          1.1787242              32.0747
      -------------------------------------------------------------
                  HL-Gap            0.1355750 Eh            3.6892 eV
             Fermi-level           -0.3225347 Eh           -8.7766 eV

 SCC (total)                   0 d,  0 h,  0 min,  0.002 sec
 SCC setup                      ...        0 min,  0.000 sec (  3.946%)
 Dispersion                     ...        0 min,  0.000 sec (  0.535%)
 integral evaluation            ...        0 min,  0.001 sec ( 39.600%)
 zeroth order Hamiltonian       ...        0 min,  0.000 sec (  0.586%)
 iterations                     ...        0 min,  0.000 sec ( 12.500%)
 molecular gradient             ...        0 min,  0.001 sec ( 39.231%)
 printout                       ...        0 min,  0.000 sec (  3.195%)

         :::::::::::::::::::::::::::::::::::::::::::::::::::::
         ::                     SUMMARY                     ::
         :::::::::::::::::::::::::::::::::::::::::::::::::::::
         :: total energy              -9.318186299869 Eh    ::
         :: gradient norm              0.000741319800 Eh/a0 ::
         :: HOMO-LUMO gap              3.689182488942 eV    ::
         ::.................................................::
         :: SCC energy                -9.473930093577 Eh    ::
         :: -> isotropic ES            0.016622682529 Eh    ::
         :: -> anisotropic ES          0.001841146952 Eh    ::
         :: -> anisotropic XC          0.005598912143 Eh    ::
         :: -> dispersion             -0.001369860307 Eh    ::
         :: repulsion energy           0.155743779586 Eh    ::
         :: add. restraining           0.000000000000 Eh    ::
         :::::::::::::::::::::::::::::::::::::::::::::::::::::

           ------------------------------------------------- 
          |                Numerical Hessian                |
           ------------------------------------------------- 
step length          :   0.00500
SCC accuracy         :   0.30000
Hessian scale factor :   1.00000
frozen atoms in %    :   0.00000    0
RMS gradient         :   0.00074
estimated CPU  time      0.00 min
estimated wall time      0.00 min

writing file <hessian>.

 projected vibrational frequencies (cm-1)
eigval :       -0.00    -0.00     0.00     0.00     0.00     0.00
eigval :      383.43   436.94   676.21   888.27  1198.63  1376.30
eigval :     2307.96  3139.84  3161.04
           -------------------------------------------------
          |                Property Printout                |
           -------------------------------------------------

    * Orbital Energies and Occupations

         #    Occupation            Energy/Eh            Energy/eV
      -------------------------------------------------------------
         1        2.0000           -0.7469738             -20.3262
         2        2.0000           -0.6498700             -17.6839
         3        2.0000           -0.5825165             -15.8511
         4        2.0000           -0.5740531             -15.6208
         5        2.0000           -0.5707328             -15.5304
         6        2.0000           -0.5132813             -13.9671
         7        2.0000           -0.4867566             -13.2453
         8        2.0000           -0.3903221             -10.6212 (HOMO)
         9                         -0.2547471              -6.9320 (LUMO)
        10                         -0.1654609              -4.5024
        11                          0.1356608               3.6915
        12                          0.3264946               8.8844
        13                          0.3554267               9.6717
        14                          1.1787244              32.0747
      -------------------------------------------------------------
                  HL-Gap            0.1355751 Eh            3.6892 eV
             Fermi-level           -0.3225346 Eh           -8.7766 eV

     #   Z        covCN         q      C6AA      α(0)
     1   6 C      1.836     0.252    25.335     8.131
     2   6 C      2.834    -0.204    33.391     9.469
     3   8 O      0.856    -0.240    18.728     5.802
     4   1 H      0.926     0.096     1.823     2.112
     5   1 H      0.926     0.096     1.822     2.111

 Mol. C6AA /au·bohr⁶  :        316.246781
 Mol. C8AA /au·bohr⁸  :       7520.034445
 Mol. α(0) /au        :         27.625189


Wiberg/Mayer (AO) data.
largest (>0.10) Wiberg bond orders for each atom
          total WBO             WBO to atom ...
     1  C   3.881        O    3 2.009    C    2 1.808
     2  C   3.906        C    1 1.808    H    5 0.917    H    4 0.917    O    3 0.265
     3  O   2.354        C    1 2.009    C    2 0.265
     4  H   0.991        C    2 0.917
     5  H   0.991        C    2 0.917

MOs/occ written to file <molden.input>


molecular dipole:
                 x           y           z       tot (Debye)
 q only:        0.505       0.477      -0.066
   full:        0.581       0.550      -0.076       2.042
molecular quadrupole (traceless):
                xx          xy          yy          xz          yz          zz
 q only:       -0.483      -1.945      -0.239       0.139       0.273       0.722
  q+dip:       -0.072      -2.082       0.211      -0.063       0.326      -0.139
   full:       -0.432      -3.188      -0.008       0.055       0.475       0.439

           -------------------------------------------------
          |                Geometry Summary                 |
           -------------------------------------------------

      molecular mass/u    :       42.0367582
   center of mass at/Å    :       -0.5420355      -0.5110850       0.0705038
  moments of inertia/u·Å² :        0.1696064E+01   0.4838045E+02   0.5007651E+02
rotational constants/cm⁻¹ :        0.9939268E+01   0.3484389E+00   0.3366375E+00

 * 4 selected distances

     #   Z        #   Z                                     value/Å
     1   6 C      2   6 C                                 1.2886478 (max)
     1   6 C      3   8 O                                 1.1617483
Molecule has the following symmetry elements: (C2) 2*(sigma) 
It seems to be the C2v point group
     2   6 C      4   1 H                                 1.0721797
     2   6 C      5   1 H                                 1.0717519 (min)

 * 3 distinct bonds (by element types)

   Z      Z             #   av. dist./Å        max./Å        min./Å
   1 H    6 C           2     1.0719658     1.0721797     1.0717519
   6 C    6 C           1     1.2886478     1.2886478     1.2886478
   6 C    8 O           1     1.1617483     1.1617483     1.1617483

           -------------------------------------------------
          |               Frequency Printout                |
           -------------------------------------------------
 projected vibrational frequencies (cm-1)
eigval :       -0.00    -0.00     0.00     0.00     0.00     0.00
eigval :      383.43   436.94   676.21   888.27  1198.63  1376.30
eigval :     2307.96  3139.84  3161.04
 reduced masses (amu)
   1: 13.69   2: 13.47   3: 14.51   4: 10.40   5:  9.93   6:  2.23   7:  8.53   8: 12.42
   9:  3.31  10:  6.50  11:  6.33  12:  8.45  13: 12.70  14:  1.56  15:  2.09
 IR intensities (amu)
   1:  0.17   2:  0.14   3:  0.15   4:  0.14   5:  0.12   6:  0.04   7:  0.31   8:  0.83
   9:  0.27  10:  0.40  11:  0.41  12:  0.07  13:  3.55  14:  0.30  15:  0.08
 Raman intensities (amu)
   1:  0.00   2:  0.00   3:  0.00   4:  0.00   5:  0.00   6:  0.00   7:  0.00   8:  0.00
   9:  0.00  10:  0.00  11:  0.00  12:  0.00  13:  0.00  14:  0.00  15:  0.00
 output can be read by thermo (or use thermo option).
 writing <g98.out> molden fake output.
 recommended (thermochemical) frequency scaling factor: 1.0
           -------------------------------------------------
          |             Thermodynamic Functions             |
           -------------------------------------------------

c2v symmetry found (for desy threshold:  0.10E+00) used in thermo

          ...................................................
          :                      SETUP                      :
          :.................................................:
          :  # frequencies                           9      :
          :  # imaginary freq.                       0      :
          :  linear?                             false      :
          :  only rotor calc.                    false      :
          :  symmetry                              c2v      :
          :  rotational number                       2      :
          :  scaling factor                  1.0000000      :
          :  rotor cutoff                   50.0000000 cm⁻¹ :
          :  imag. cutoff                  -20.0000000 cm⁻¹ :
          :.................................................:

    mode    ω/cm⁻¹     T·S(HO)/kcal·mol⁻¹    T·S(FR)/kcal·mol⁻¹   T·S(vib)
   ------------------------------------------------------------------------
   ------------------------------------------------------------------------

   temp. (K)  partition function   enthalpy   heat capacity  entropy
                                   cal/mol     cal/K/mol   cal/K/mol   J/K/mol
 298.15  VIB   1.43                  505.275      4.611      2.406
         ROT  0.245E+04              888.752      2.981     18.488
         INT  0.350E+04             1394.027      7.592     20.894
         TR   0.264E+27             1481.254      4.968     37.118
         TOT                        2875.2813    12.5603    58.0116   242.7207

   temp. (K)  partition function   enthalpy   heat capacity  entropy
                                   cal/mol     cal/K/mol   cal/K/mol   J/K/mol
 120.00  VIB   1.02                   18.472      0.770      0.186
         ROT   625.                  357.707      2.981     15.775
         INT   635.                  376.179      3.750     15.960
         TR   0.673E+26              596.178      4.968     32.599
         TOT                         972.3571     8.7185    48.5590   203.1710

   temp. (K)  partition function   enthalpy   heat capacity  entropy
                                   cal/mol     cal/K/mol   cal/K/mol   J/K/mol
 100.00  VIB   1.01                    6.876      0.404      0.081
         ROT   476.                  298.089      2.981     15.231
         INT   478.                  304.965      3.385     15.312
         TR   0.512E+26              496.815      4.968     31.693
         TOT                         801.7796     8.3529    47.0054   196.6707

   temp. (K)  partition function   enthalpy   heat capacity  entropy
                                   cal/mol     cal/K/mol   cal/K/mol   J/K/mol
  80.00  VIB   1.00                    1.604      0.145      0.023
         ROT   340.                  238.471      2.981     14.566
         INT   341.                  240.075      3.126     14.589
         TR   0.367E+26              397.452      4.968     30.585
         TOT                         637.5272     8.0939    45.1744   189.0095

   temp. (K)  partition function   enthalpy   heat capacity  entropy
                                   cal/mol     cal/K/mol   cal/K/mol   J/K/mol
  60.00  VIB   1.00                    0.147      0.023      0.003
         ROT   221.                  178.853      2.981     13.709
         INT   221.                  179.000      3.004     13.711
         TR   0.238E+26              298.089      4.968     29.157
         TOT                         477.0891     7.9723    42.8680   179.3596

   temp. (K)  partition function   enthalpy   heat capacity  entropy
                                   cal/mol     cal/K/mol   cal/K/mol   J/K/mol
  40.00  VIB   1.00                    0.001      0.000     -0.000
         ROT   120.                  119.236      2.981     12.500
         INT   120.                  119.237      2.981     12.500
         TR   0.130E+26              198.726      4.968     27.143
         TOT                         317.9629     7.9495    39.6430   165.8665

   temp. (K)  partition function   enthalpy   heat capacity  entropy
                                   cal/mol     cal/K/mol   cal/K/mol   J/K/mol
  20.00  VIB   1.00                    0.000      0.000     -0.001
         ROT   42.5                   59.618      2.981     10.434
         INT   42.5                   59.618      2.981     10.433
         TR   0.458E+25               99.363      4.968     23.701
         TOT                         158.9808     7.9490    34.1345   142.8187

   temp. (K)  partition function   enthalpy   heat capacity  entropy
                                   cal/mol     cal/K/mol   cal/K/mol   J/K/mol
  10.00  VIB   1.00                    0.000      0.000     -0.001
         ROT   15.0                   29.809      2.981      8.368
         INT   15.0                   29.809      2.981      8.367
         TR   0.162E+25               49.681      4.968     20.259
         TOT                          79.4904     7.9490    28.6260   119.7710

       T/K    H(0)-H(T)+PV         H(T)/Eh          T*S/Eh         G(T)/Eh
   ------------------------------------------------------------------------
    298.15    0.458205E-02    0.354937E-01    0.275632E-01    0.793047E-02
    120.00    0.154955E-02    0.324612E-01    0.928605E-02    0.231751E-01
    100.00    0.127772E-02    0.321893E-01    0.749079E-02    0.246985E-01
     80.00    0.101596E-02    0.319276E-01    0.575919E-02    0.261684E-01
     60.00    0.760290E-03    0.316719E-01    0.409887E-02    0.275730E-01
     40.00    0.506706E-03    0.314183E-01    0.252701E-02    0.288913E-01
     20.00    0.253352E-03    0.311650E-01    0.108794E-02    0.300770E-01
     10.00    0.126676E-03    0.310383E-01    0.456184E-03    0.305821E-01 (used)
   ------------------------------------------------------------------------

         :::::::::::::::::::::::::::::::::::::::::::::::::::::
         ::                  THERMODYNAMIC                  ::
         :::::::::::::::::::::::::::::::::::::::::::::::::::::
         :: total free energy          -9.287604189654 Eh   ::
         ::.................................................::
         :: total energy               -9.318186299431 Eh   ::
         :: zero point energy           0.030911617504 Eh   ::
         :: G(RRHO) w/o ZPVE           -0.000329507728 Eh   ::
         :: G(RRHO) contrib.            0.030582109777 Eh   ::
         :::::::::::::::::::::::::::::::::::::::::::::::::::::

optimized geometry written to: xtbopt.xyz


           -------------------------------------------------
          | TOTAL ENERGY               -9.318186299431 Eh   |
          | TOTAL ENTHALPY             -9.287148005911 Eh   |
          | TOTAL FREE ENERGY          -9.287604189654 Eh   |
          | GRADIENT NORM               0.000741247678 Eh/α |
          | HOMO-LUMO GAP               3.689185248006 eV   |
           -------------------------------------------------

------------------------------------------------------------------------
 * finished run on 2020/05/12 at 11:45:13.379     
------------------------------------------------------------------------
 total:
 * wall-time:     0 d,  0 h,  0 min,  0.150 sec
 *  cpu-time:     0 d,  0 h,  0 min,  0.149 sec
 * ratio c/w:     0.998 speedup
 SCF:
 * wall-time:     0 d,  0 h,  0 min,  0.003 sec
 *  cpu-time:     0 d,  0 h,  0 min,  0.003 sec
 * ratio c/w:     0.992 speedup
 ANC optimizer:
 * wall-time:     0 d,  0 h,  0 min,  0.068 sec
 *  cpu-time:     0 d,  0 h,  0 min,  0.068 sec
 * ratio c/w:     0.999 speedup
 numerical hessian:
 * wall-time:     0 d,  0 h,  0 min,  0.059 sec
 *  cpu-time:     0 d,  0 h,  0 min,  0.059 sec
 * ratio c/w:     0.998 speedup

