[Molden Format]
[Title]
[Atoms] AU
C      1     6 -0.33338191033156E+01 -0.36643654860929E+00 -0.63339061523736E+00
O      2     8 -0.12112144256675E+01 -0.13330391076033E+00 -0.22926679893000E+00
C      3     6  0.11253772151665E+01  0.12387423697308E+00  0.21732068891550E+00
C      4     6  0.34196563138067E+01  0.37586433267059E+00  0.64533672525516E+00
[GTO]
           1 0
 s           4   1.0000000000000000     
   51.049363095579913      -0.16312063210127389     
   8.7911227406887544      -0.19911024581000730     
  0.70640422258929825       0.31882047753655751     
  0.26922813413411617       0.12706504184240380     
 p           4   1.0000000000000000     
   5.8263656140800002       0.73716451545209605     
   1.5106896018720002       0.68216371614850257     
  0.53256483288000001       0.35783053929253711     
  0.21202323690600003        5.3983030275847881E-002

           2 0
 s           4   1.0000000000000000     
   69.137961906196551      -0.20478756370077797     
   11.906129132707308      -0.24997023136827334     
  0.95670827744340703       0.40025880240639616     
  0.36462520496073686       0.15952206667693555     
 p           4   1.0000000000000000     
   8.2124193257781641        1.1321556799186829     
   2.1293576997098116        1.0476840782254817     
  0.75066448202360914       0.54956508217158984     
  0.29885246543283073        8.2908486592766617E-002

           3 0
 s           4   1.0000000000000000     
   51.049363095579913      -0.16312063210127389     
   8.7911227406887544      -0.19911024581000730     
  0.70640422258929825       0.31882047753655751     
  0.26922813413411617       0.12706504184240380     
 p           4   1.0000000000000000     
   5.8263656140800002       0.73716451545209605     
   1.5106896018720002       0.68216371614850257     
  0.53256483288000001       0.35783053929253711     
  0.21202323690600003        5.3983030275847881E-002

           4 0
 s           4   1.0000000000000000     
   51.049363095579913      -0.16312063210127389     
   8.7911227406887544      -0.19911024581000730     
  0.70640422258929825       0.31882047753655751     
  0.26922813413411617       0.12706504184240380     
 p           4   1.0000000000000000     
   5.8263656140800002       0.73716451545209605     
   1.5106896018720002       0.68216371614850257     
  0.53256483288000001       0.35783053929253711     
  0.21202323690600003        5.3983030275847881E-002

[MO]
Sym=     1a
Ene=  -0.84776673407088010     
Spin= Alpha
Occup=     2.00000000
           1  0.28490793338041565     
           2  0.17614779211576403     
           3   1.9351636738053624E-002
           4   3.3577102988598430E-002
           5  0.70755715824360566     
           6 -0.17377002278816270     
           7  -1.9059310131533856E-002
           8  -3.2900979377099675E-002
           9   5.3504625296824912E-002
          10  -7.0130014884035433E-002
          11  -7.7127626329500550E-003
          12  -1.3383468095822510E-002
          13  -1.0753111271225957E-003
          14  -6.5708471069988810E-004
          15  -7.1653783028651278E-005
          16  -1.1269955604879213E-004
Sym=     2a
Ene=  -0.78580000304835240     
Spin= Alpha
Occup=     2.00000000
           1 -0.28640432231209717     
           2  -6.4589804425098887E-002
           3  -7.0764939941800583E-003
           4  -1.2246329909087908E-002
           5  0.28999612326277818     
           6  0.57858054481904464     
           7   6.3628798962944683E-002
           8  0.11043886112284990     
           9  0.30108327785380334     
          10 -0.18356583416068928     
          11  -2.0213200310068007E-002
          12  -3.5136645736388410E-002
          13   3.2277977849918649E-002
          14  -3.1282116039290916E-002
          15  -3.4380897995249741E-003
          16  -5.8772396026766337E-003
Sym=     3a
Ene=  -0.68538720062972935     
Spin= Alpha
Occup=     2.00000000
           1  -1.4817034133784092E-005
           2  -5.9174299727827874E-002
           3  -9.2054458747361165E-003
           4  0.31575385029642516     
           5  -2.8123514498865288E-004
           6 -0.14923072192141779     
           7  -2.3216457703414635E-002
           8  0.79646226503902717     
           9  -2.2937160607722885E-004
          10  -3.7969438639031045E-002
          11  -5.8914901639093315E-003
          12  0.20076150435129073     
          13  -7.5229859474296146E-004
          14  -3.9329343880553664E-003
          15  -6.2590953234638726E-004
          16   2.2687823807410738E-002
Sym=     4a
Ene=  -0.68538715606099831     
Spin= Alpha
Occup=     2.00000000
           1   4.3567312725415874E-005
           2  -3.5595642116270781E-002
           3  0.31939492024191840     
           4   2.6407176717016478E-003
           5  -1.0092985913133447E-004
           6  -8.9838824268397163E-002
           7  0.80563467848365744     
           8   6.6509308462882749E-003
           9   2.6244988025670507E-005
          10  -2.2685443618053067E-002
          11  0.20313509797213569     
          12   1.6707603322783596E-003
          13  -2.0914057608666047E-005
          14  -2.5471174784131158E-003
          15   2.2891589551157578E-002
          16   1.9000206619652790E-004
Sym=     5a
Ene=  -0.63809262352538243     
Spin= Alpha
Occup=     2.00000000
           1 -0.12108442205904639     
           2   2.5315969492032487E-003
           3   2.7557956910988701E-004
           4  -1.8681153091365088E-004
           5   6.5376424081519266E-002
           6   7.8297333853034640E-002
           7   8.5936775679754732E-003
           8   1.3650120847643362E-002
           9 -0.38923819990526543     
          10 -0.31705678805649473     
          11  -3.4847467532386635E-002
          12  -5.9895304684916120E-002
          13 -0.56517168628396486     
          14  0.15791020144426043     
          15   1.7340578141133829E-002
          16   2.9356207445436353E-002
Sym=     6a
Ene=  -0.52122089085658008     
Spin= Alpha
Occup=     2.00000000
           1  0.75564241633371820     
           2 -0.57053789514510334     
           3  -6.2696505394764665E-002
           4 -0.10885081362835143     
           5 -0.14272527912756544     
           6  0.16647303404779953     
           7   1.8260453107234696E-002
           8   3.1510432798850033E-002
           9  0.15048495473598222     
          10 -0.12787514491467350     
          11  -1.4111065030335494E-002
          12  -2.4243048699078992E-002
          13 -0.14474580183790070     
          14  -5.1549205338144749E-002
          15  -5.6881371557958972E-003
          16  -9.7761823341034702E-003
Sym=     7a
Ene=  -0.44231062547756417     
Spin= Alpha
Occup=     2.00000000
           1   5.2781397645194070E-004
           2  -8.2642122251325570E-002
           3   1.7652050399912415E-002
           4  0.41817869958407394     
           5   5.7617032069752082E-004
           6  -1.0706038742449995E-002
           7   2.5845323311080009E-003
           8   5.9007800168301407E-002
           9  -3.2515047820763899E-003
          10  0.12024929356918276     
          11  -2.6706497937026577E-002
          12 -0.62506207058415919     
          13   4.2237148110242364E-003
          14   9.8754700744004692E-002
          15  -2.0951600661180098E-002
          16 -0.49741629355740707     
Sym=     8a
Ene=  -0.44230974384977673     
Spin= Alpha
Occup=     2.00000000
           1  -1.5310819627195779E-005
           2  -4.1540820430672691E-002
           3  0.42381198253092783     
           4  -2.6099130436714513E-002
           5  -1.5454232438010489E-007
           6  -5.8669392223521322E-003
           7   5.9619987619204277E-002
           8  -3.6760247460613216E-003
           9  -1.2465243695030315E-006
          10   6.2230093678402036E-002
          11 -0.63284730498313491     
          12   3.9011019020797143E-002
          13   5.2258736579087408E-006
          14   4.9581376167081671E-002
          15 -0.50417367443216088     
          16   3.1079913453867070E-002
Sym=     9a
Ene=  -0.41700353022055336     
Spin= Alpha
Occup=     2.00000000
           1   6.8298007708318273E-002
           2 -0.14859555707714731     
           3  -1.6476647696086956E-002
           4  -3.1571893181760728E-002
           5  0.12157668243154690     
           6  0.13247195020056596     
           7   1.4552575159237538E-002
           8   2.5304496871857568E-002
           9 -0.28327524488477063     
          10 -0.13766859629591041     
          11  -1.4891642497415395E-002
          12  -2.2168447786947595E-002
          13  0.65860276230756543     
          14  0.62955709436564478     
          15   6.9384935178351148E-002
          16  0.12110683313111921     
Sym=    10a
Ene=  -0.31669090737227062     
Spin= Alpha
Occup=     0.00000000
           1   7.8539523641903697E-005
           2 -0.17049152465939277     
           3  0.19600136234038659     
           4  0.77984738712517243     
           5   7.7158263428482327E-004
           6  0.10380872453214464     
           7 -0.11897675535608943     
           8 -0.47345429411960560     
           9  -5.6802285383580290E-004
          10   6.4944905470524540E-003
          11  -7.0386602165518073E-003
          12  -2.8090253028748385E-002
          13  -1.1852744029756411E-004
          14 -0.10804291674894199     
          15  0.12715218218359242     
          16  0.50533252773653636     
Sym=    11a
Ene=  -0.31669079819981871     
Spin= Alpha
Occup=     0.00000000
           1   7.0621711682193531E-006
           2   4.7144488961639995E-002
           3 -0.79337764782214570     
           4  0.20970811408739479     
           5   1.0237210588751538E-004
           6  -2.8588912078567584E-002
           7  0.48172921145194747     
           8 -0.12732420231013988     
           9  -8.4578931647006045E-005
          10  -1.6854953139996409E-003
          11   2.8644470678740656E-002
          12  -7.5678010725510206E-003
          13   1.0613715167407007E-007
          14   3.1156564027295070E-002
          15 -0.51357893723453740     
          16  0.13588950049869333     
Sym=    12a
Ene=  -0.14684380507541059     
Spin= Alpha
Occup=     0.00000000
           1   3.3618465832947595E-004
           2  -5.9615964682281308E-002
           3   5.4449026297881276E-003
           4  0.31710854983764075     
           5  -2.1671499026160836E-003
           6   8.2971644857459156E-002
           7  -7.4273254783992120E-003
           8 -0.43721392872580228     
           9   4.1893806558797302E-003
          10 -0.15416565599977941     
          11   1.3370332631651313E-002
          12  0.80062319919935709     
          13   3.7648761379612131E-005
          14  0.13729227944105452     
          15  -1.1968692017070742E-002
          16 -0.71468538409663573     
Sym=    13a
Ene=  -0.14684047440623227     
Spin= Alpha
Occup=     0.00000000
           1  -1.6689653220646308E-005
           2  -3.3067027990855043E-002
           3  0.32079145981109308     
           4  -1.1724555209823571E-002
           5   7.8452793799889739E-005
           6   4.5559943697301181E-002
           7 -0.44244542966008027     
           8   1.6161797018618584E-002
           9  -7.6360516290763069E-006
          10  -8.3504281153911203E-002
          11  0.81062666207654854     
          12  -2.9616788199097840E-002
          13   1.0890854867792521E-006
          14   7.4530099756362267E-002
          15 -0.72354644528976375     
          16   2.6434522132517572E-002
Sym=    14a
Ene=    4.3973636097630157E-002
Spin= Alpha
Occup=     0.00000000
           1  0.23335715722682432     
           2  0.50599323489735959     
           3   5.5647337773127060E-002
           4   9.5893924672314973E-002
           5 -0.87532814210974874     
           6 -0.24051916576837451     
           7  -2.6563397755947515E-002
           8  -4.4879193404286581E-002
           9  0.88781104956639867     
          10 -0.43582417350339725     
          11  -4.8094106491107090E-002
          12  -8.7370156198757890E-002
          13 -0.13988207773416617     
          14  0.45744801059885271     
          15   5.0365757044057449E-002
          16   8.8616766085706886E-002
Sym=    15a
Ene=   0.75362889695451296     
Spin= Alpha
Occup=     0.00000000
           1  0.64817841285381361     
           2  0.77950400623634386     
           3   8.5624393715347719E-002
           4  0.14862184263482689     
           5 -0.68052371698847269     
           6  0.70668236221910519     
           7   7.7580608621292305E-002
           8  0.13378529006046094     
           9 -0.78051836186604706     
          10 -0.51906442477501002     
          11  -5.6925699280509973E-002
          12  -9.5803818966310447E-002
          13  0.58315546902874649     
          14 -0.68109266678711189     
          15  -7.4832271713876505E-002
          16 -0.12734682144140372     
Sym=    16a
Ene=    1.2792741494557329     
Spin= Alpha
Occup=     0.00000000
           1 -0.56692568781633979     
           2 -0.58315259006855635     
           3  -6.4014771720317956E-002
           4 -0.11079077279783128     
           5  -5.1523302103951556E-002
           6  -1.0241997636701814     
           7 -0.11264805656892231     
           8 -0.19601709445045520     
           9 -0.10930085596352593     
          10  -1.2727375290790639     
          11 -0.13995568072866443     
          12 -0.24033735532278910     
          13  0.72420231062517848     
          14 -0.69147180472584024     
          15  -7.5902000666990876E-002
          16 -0.12821155031603998     
