$hessian                                                                        
        0.3455091219   0.0793833363   0.0525502396  -0.0302471407   0.0004372476
       -0.0048174023  -0.1204454488  -0.2949693435  -0.0035946977  -0.1948165324
        0.2151487596  -0.0441381396
        0.0793833363   0.2484044741  -0.0007379022   0.1260310294  -0.1704868744
        0.0303979662  -0.2516451305   0.0145679681  -0.0424321476   0.0462307649
       -0.0924855678   0.0127720836
        0.0525502396  -0.0007379022   0.0102763104  -0.0119113693   0.0096331186
       -0.0039736457  -0.0060417925  -0.0496061817   0.0033173071  -0.0345970779
        0.0407109653  -0.0096199717
       -0.0302471407   0.1260310294  -0.0119113693   0.1813445442  -0.2191196389
        0.0421970216  -0.1284110053   0.0253264967  -0.0225123377  -0.0226863983
        0.0677621128  -0.0077733147
        0.0004372476  -0.1704868744   0.0096331186  -0.2191196389   0.2976730377
       -0.0530283037   0.1509169359  -0.0694497048   0.0288820438   0.0677654553
       -0.0577364585   0.0145131413
       -0.0048174023   0.0303979662  -0.0039736457   0.0421970216  -0.0530283037
        0.0113739396  -0.0295404379   0.0080220359  -0.0068114692  -0.0078391815
        0.0146083016  -0.0005888247
       -0.1204454488  -0.2516451305  -0.0060417925  -0.1284110053   0.1509169359
       -0.0295404379   0.2843622418   0.0949038809   0.0415381594  -0.0355057877
        0.0058243137  -0.0059559290
       -0.2949693435   0.0145679681  -0.0496061817   0.0253264967  -0.0694497048
        0.0080220359   0.0949038809   0.3112837429  -0.0016969600   0.1747389659
       -0.2564020062   0.0432811058
       -0.0035946977  -0.0424321476   0.0033173071  -0.0225123377   0.0288820438
       -0.0068114692   0.0415381594  -0.0016969600   0.0085040750  -0.0154311240
        0.0152470638  -0.0050099129
       -0.1948165324   0.0462307649  -0.0345970779  -0.0226863983   0.0677654553
       -0.0078391815  -0.0355057877   0.1747389659  -0.0154311240   0.2530087184
       -0.2887351861   0.0578673833
        0.2151487596  -0.0924855678   0.0407109653   0.0677621128  -0.0577364585
        0.0146083016   0.0058243137  -0.2564020062   0.0152470638  -0.2887351861
        0.4066240325  -0.0705663306
       -0.0441381396   0.0127720836  -0.0096199717  -0.0077733147   0.0145131413
       -0.0005888247  -0.0059559290   0.0432811058  -0.0050099129   0.0578673833
       -0.0705663306   0.0152187093
