[Molden Format]
[Title]
[Atoms] AU
C      1     6 -0.10937260572522E+01 -0.93043923176450E+00 -0.12885720486275E+00
C      2     6 -0.13665233399052E+01  0.17751691165710E+01 -0.32632873374428E+00
C      3     6  0.11550885775576E+01  0.85070910464603E+00  0.14355874827902E+00
N      4     7  0.13051589298739E+01 -0.16954389894427E+01  0.31162719033460E+00
[GTO]
           1 0
 s           4   1.0000000000000000     
   51.049363095579913      -0.16312063210127389     
   8.7911227406887544      -0.19911024581000730     
  0.70640422258929825       0.31882047753655751     
  0.26922813413411617       0.12706504184240380     
 p           4   1.0000000000000000     
   5.8263656140800002       0.73716451545209605     
   1.5106896018720002       0.68216371614850257     
  0.53256483288000001       0.35783053929253711     
  0.21202323690600003        5.3983030275847881E-002

           2 0
 s           4   1.0000000000000000     
   51.049363095579913      -0.16312063210127389     
   8.7911227406887544      -0.19911024581000730     
  0.70640422258929825       0.31882047753655751     
  0.26922813413411617       0.12706504184240380     
 p           4   1.0000000000000000     
   5.8263656140800002       0.73716451545209605     
   1.5106896018720002       0.68216371614850257     
  0.53256483288000001       0.35783053929253711     
  0.21202323690600003        5.3983030275847881E-002

           3 0
 s           4   1.0000000000000000     
   51.049363095579913      -0.16312063210127389     
   8.7911227406887544      -0.19911024581000730     
  0.70640422258929825       0.31882047753655751     
  0.26922813413411617       0.12706504184240380     
 p           4   1.0000000000000000     
   5.8263656140800002       0.73716451545209605     
   1.5106896018720002       0.68216371614850257     
  0.53256483288000001       0.35783053929253711     
  0.21202323690600003        5.3983030275847881E-002

           4 0
 s           4   1.0000000000000000     
   63.594024466941008      -0.19234388414721629     
   10.951417231523665      -0.23478107924953728     
  0.87999310257376984       0.37593753901700888     
  0.33538715296521110       0.14982889271862770     
 p           4   1.0000000000000000     
   7.2965040481495080       0.97658666315667420     
   1.8918745450712575       0.90372226730345739     
  0.66694432110824120       0.47404958461536373     
  0.26552202674130870        7.1516067715011844E-002

[MO]
Sym=     1a
Ene=  -0.77037635205407007     
Spin= Alpha
Occup=     2.00000000
           1 -0.33556002211707331     
           2 -0.15575027229779206     
           3  -7.3738788979927680E-002
           4  -2.1656059830709826E-002
           5 -0.18584892635022823     
           6  -6.0391483643656249E-002
           7   7.8451756469661862E-002
           8  -1.4421688111859055E-002
           9 -0.33556522014909262     
          10  0.10828855112580825     
          11  0.13539620797049748     
          12   1.0328620078686167E-002
          13 -0.31393955307886934     
          14  0.13530213262662208     
          15 -0.17576357498903813     
          16   3.2304211631489610E-002
Sym=     2a
Ene=  -0.68453011474687431     
Spin= Alpha
Occup=     2.00000000
           1  -7.9114177016762335E-002
           2  0.17673538553743648     
           3 -0.26643605088201255     
           4   4.4275936416668729E-002
           5 -0.45670406144432213     
           6  -5.9555995472671576E-002
           7   7.7373445151213666E-002
           8  -1.4224681884651036E-002
           9  -7.9081749145273675E-002
          10  0.21198362758345918     
          11 -0.23852856752799298     
          12   4.8546414756717830E-002
          13  0.42198986965037882     
          14  -4.1320307691901322E-002
          15   5.3695180634821003E-002
          16  -9.8605640747482029E-003
Sym=     3a
Ene=  -0.63150072720767492     
Spin= Alpha
Occup=     2.00000000
           1 -0.46623752841596272     
           2   6.1959172338268566E-002
           3  0.19016885403244638     
           4  -4.2832815724687758E-004
           5   1.6829648413177254E-005
           6  0.12394740736797794     
           7   9.8173087468123379E-002
           8   1.5014589086130004E-002
           9  0.46624560210612764     
          10  0.19689937787965434     
          11   1.4892719395356630E-002
          12   3.1783876064659787E-002
          13  -1.2891336524396520E-005
          14  0.36759771515721773     
          15  0.29115577289736083     
          16   4.4529705034319585E-002
Sym=     4a
Ene=  -0.59490786530142414     
Spin= Alpha
Occup=     2.00000000
           1   9.1525265419620021E-006
           2  -7.1756839075013165E-002
           3   2.4367283915626578E-002
           4  0.43307164322451980     
           5  -5.5511249367350009E-006
           6  -3.6048397746792041E-002
           7   1.2240979566683824E-002
           8  0.21754632115430389     
           9   9.0752081035136258E-006
          10  -7.1763932029441785E-002
          11   2.4363806232577192E-002
          12  0.43308250294334039     
          13  -1.1887103462204012E-005
          14  -8.5516790336452667E-002
          15   2.9031497057717126E-002
          16  0.51612974530491018     
Sym=     5a
Ene=  -0.55691969282929865     
Spin= Alpha
Occup=     2.00000000
           1 -0.19550060352616797     
           2  0.31624802182216311     
           3 -0.23446194570672652     
           4   6.5592199858764369E-002
           5  -2.6500008007379540E-005
           6  0.35106976903647041     
           7  0.27805542192055538     
           8   4.2528059540101373E-002
           9  0.19549631637893355     
          10 -0.14759355744355016     
          11  0.36804446965596921     
          12  -4.5161858543996902E-002
          13  -3.1745998014314923E-005
          14 -0.29922361647543322     
          15 -0.23697165830838074     
          16  -3.6248620666122382E-002
Sym=     6a
Ene=  -0.52115045384478709     
Spin= Alpha
Occup=     2.00000000
           1  0.14042626063650865     
           2   4.2851529504909239E-002
           3  -3.2833668745134562E-002
           4   8.9452056604067236E-003
           5 -0.49343221160215017     
           6  0.13741892506280468     
           7 -0.17855762777582027     
           8   3.2815412353876805E-002
           9  0.14041004839358578     
          10   2.1021858557228445E-002
          11  -5.0162362263404835E-002
          12   6.3029933001713554E-003
          13 -0.64895065934252882     
          14 -0.31179074383033289     
          15  0.40507579215620204     
          16  -7.4460625736638836E-002
Sym=     7a
Ene=  -0.47654431790021939     
Spin= Alpha
Occup=     2.00000000
           1 -0.43696851583503027     
           2  0.42998542801123496     
           3  0.32300093855152601     
           4   5.3075750237459238E-002
           5   8.3040944377554160E-002
           6  -5.9921623168229264E-002
           7   7.7827588047639160E-002
           8  -1.4310406779298689E-002
           9 -0.43696776136670351     
          10 -0.41316553421400193     
          11 -0.34486191994101495     
          12  -4.9058442535687308E-002
          13  -7.9914695573705022E-002
          14 -0.10052424301772862     
          15  0.13060631088883567     
          16  -2.3998316912402503E-002
Sym=     8a
Ene=  -0.44168359882265507     
Spin= Alpha
Occup=     1.99981996
           1   3.7438283097022823E-002
           2   5.3236040002822378E-003
           3 -0.24682306801106935     
           4   1.4755045458862614E-002
           5  0.50538703587743816     
           6 -0.37718079039560998     
           7  0.48999539633068673     
           8  -9.0124438889923345E-002
           9   3.7437017987024680E-002
          10  0.23476897458767651     
          11  -6.5081692934498919E-002
          12   4.2548854215460813E-002
          13 -0.22213518912694841     
          14 -0.26579318982170724     
          15  0.34525976140920961     
          16  -6.3403390516020341E-002
Sym=     9a
Ene=  -0.42530072512839961     
Spin= Alpha
Occup=     1.00018004
           1  -2.8857761133772422E-006
           2   2.9846254971197569E-002
           3  -1.0118695113106249E-002
           4 -0.18013896786860678     
           5  -3.4246570644494315E-005
           6  0.10840318473992991     
           7  -3.6845729160312375E-002
           8 -0.65396659579868854     
           9  -2.8963494404914370E-006
          10   2.9816327528400990E-002
          11  -1.0122672220942900E-002
          12 -0.18003534974738192     
          13   6.3631289735974116E-006
          14 -0.11607565203812654     
          15   3.9386004719117462E-002
          16  0.70069429817232876     
Sym=    10a
Ene=  -0.36695368865287825     
Spin= Alpha
Occup=     0.00000000
           1  -2.9047348400977777E-005
           2  0.12496246309825826     
           3  -4.2390742062439299E-002
           4 -0.75399766148832670     
           5  -2.5037543060641040E-009
           6  -4.8038188068334719E-005
           7  -2.9242439428589479E-005
           8   4.2088960483276729E-005
           9   2.9041745278261409E-005
          10 -0.12490541975333996     
          11   4.2440159742434348E-002
          12  0.75402757321197555     
          13   3.2202968269459217E-009
          14  -2.2543626361625975E-005
          15  -2.9524230594932638E-005
          16  -6.6222078024891795E-005
Sym=    11a
Ene=  -0.31086050719001723     
Spin= Alpha
Occup=     0.00000000
           1  0.23843039775858607     
           2 -0.35128982087924820     
           3 -0.36079386856953982     
           4  -3.7981198074423912E-002
           5   3.1254171302977501E-006
           6  0.47697672859018186     
           7  0.37778494644765404     
           8   5.7779766441238674E-002
           9 -0.23842871843927788     
          10 -0.43025611940625208     
          11 -0.25824010436095435     
          12  -5.6692300847123060E-002
          13  -3.1435122894397614E-006
          14  0.41066982935992657     
          15  0.32526244496088419     
          16   4.9747758490937190E-002
Sym=    12a
Ene=  -0.25572324826336557     
Spin= Alpha
Occup=     0.00000000
           1  -8.3093888105204123E-006
           2   8.3259085934421689E-002
           3  -2.8274601709391660E-002
           4 -0.50250950536280881     
           5  -1.9426717298250477E-006
           6 -0.12291411294407227     
           7   4.1734909412473209E-002
           8  0.74178837635217465     
           9  -8.3093008298696544E-006
          10   8.3268348031388814E-002
          11  -2.8266330490958409E-002
          12 -0.50250332019928245     
          13   7.7434130279583552E-008
          14  -8.6095052434977032E-002
          15   2.9234839753266247E-002
          16  0.51957389130212250     
Sym=    13a
Ene=   0.10594850186221157     
Spin= Alpha
Occup=     0.00000000
           1  0.31298018532970007     
           2 -0.17108044183234355     
           3  0.74323636913574376     
           4  -7.0166331171630889E-002
           5   7.7016134156996326E-005
           6  0.62397301780089010     
           7  0.49406544666442048     
           8   7.5594758800830608E-002
           9 -0.31313835372848881     
          10  0.66948899695233299     
          11 -0.34851175072543933     
          12  0.13054427197682544     
          13   5.5451735569513212E-005
          14 -0.33277656253519056     
          15 -0.26345207031026241     
          16  -4.0318488195527982E-002
Sym=    14a
Ene=   0.18745210346976796     
Spin= Alpha
Occup=     0.00000000
           1  0.65933092053877551     
           2  0.74901750291059099     
           3  0.14039801952166495     
           4  0.11620334740013313     
           5  -2.7514731023662610E-004
           6   2.5910161493602181E-002
           7   2.1222060383300580E-002
           8   3.0993024474639005E-003
           9 -0.65811969716945429     
          10  0.31559143243516097     
          11  0.70200478182382631     
          12   1.2806253015825121E-002
          13  -8.0965104585717536E-004
          14  0.51972389583937806     
          15  0.41041795022755229     
          16   6.3026912064282556E-002
Sym=    15a
Ene=   0.20237884523336924     
Spin= Alpha
Occup=     0.00000000
           1  0.56505676074458178     
           2  0.40918816025314958     
           3  0.11585455212753309     
           4   6.1262513431410912E-002
           5 -0.36446951552720064     
           6 -0.36777869751337128     
           7  0.47788946785504766     
           8  -8.7828296184431526E-002
           9  0.56646021878766117     
          10 -0.21051687194964600     
          11 -0.37628730194126886     
          12  -1.3733283916920629E-002
          13 -0.64717619618100208     
          14  0.49031865952773057     
          15 -0.63827718094087682     
          16  0.11714494997699647     
Sym=    16a
Ene=   0.29652740410562939     
Spin= Alpha
Occup=     0.00000000
           1 -0.13230085503822187     
           2  0.41651990675000888     
           3 -0.62020662624553002     
           4  0.10391397857091411     
           5  0.73640795594724839     
           6  0.45294948252336431     
           7 -0.58850211727675661     
           8  0.10818401349860646     
           9 -0.13199012476873243     
          10  0.49200546097604630     
          11 -0.56049333321677342     
          12  0.11306228819864599     
          13 -0.53841006556237736     
          14  0.24211360954517319     
          15 -0.31469615131557011     
          16   5.7805457258787864E-002
