5
 energy: -8.674196255016 gnorm: 0.140973795000 xtb: 6.2.2 (9d81278992624c895f80dd42a50cac0aa55982e2)
C        -0.00936600000000   -0.07831700000000    0.00243100000000
N        -1.08365600000000    0.89090100000000   -0.10768200000000
N         1.26380300000000    0.61538800000000    0.06091700000000
H        -0.14611000000000   -0.67868500000000    0.92526900000000
H        -0.02467100000000   -0.74928700000000   -0.88093500000000
5
 energy: -8.704742674689 gnorm: 0.078190122081 xtb: 6.2.2 (9d81278992624c895f80dd42a50cac0aa55982e2)
C        -0.01176331353299   -0.09836077016432    0.00305324101930
N        -0.95341241509713    0.89884744531937   -0.09923575132089
N         1.13903908443690    0.65326315929076    0.05104818465227
H        -0.14719994231666   -0.69183620597031    0.91895821711765
H        -0.02666341349012   -0.76191362847550   -0.87382389146833
5
 energy: -8.735142174733 gnorm: 0.150354195105 xtb: 6.2.2 (9d81278992624c895f80dd42a50cac0aa55982e2)
C        -0.01590160996884   -0.13295915505524    0.00412708840150
N        -0.75466813083631    0.94768986744863   -0.08778222168116
N         0.95731605189112    0.74675732729010    0.03517594606216
H        -0.15261964536688   -0.74629903998549    0.90543422328321
H        -0.03412666571908   -0.81518899969799   -0.85695503606571
5
 energy: -8.883019969957 gnorm: 0.117857817542 xtb: 6.2.2 (9d81278992624c895f80dd42a50cac0aa55982e2)
C        -0.03067115717335   -0.25645186184826    0.00796132876741
N        -0.52063129844499    1.06167035700811   -0.07650232173592
N         0.75664325055827    0.91175675290326    0.01523423817651
H        -0.16391462830307   -0.82288145675765    0.93756082015941
H        -0.04142616663685   -0.89409379130546   -0.88425406536741
5
 energy: -7.187901394448 gnorm: 9.366150519980 xtb: 6.2.2 (9d81278992624c895f80dd42a50cac0aa55982e2)
C        -0.04836871657086   -0.40443956495456    0.01255644853054
N        -0.20974697506079    1.14774597043314   -0.05896504941427
N         0.47467227511960    1.06741751582359   -0.00980863482431
H        -0.17178292729424   -0.86844207614468    0.97263518709595
H        -0.04477365619371   -0.94228184515748   -0.91641795138792
5
 energy: -8.847787602233 gnorm: 0.329692653709 xtb: 6.2.2 (9d81278992624c895f80dd42a50cac0aa55982e2)
C        -0.04690134490365   -0.39216869052478    0.01217551261652
N        -0.41274741056075    1.16284771499916   -0.07320396816895
N         0.67561530162681    1.03511014166134    0.00496444730836
H        -0.17142493811402   -0.86601131147275    0.97162216822561
H        -0.04454160804840   -0.93977785466296   -0.91555815998154
5
 energy: -8.867137878774 gnorm: 0.278073632879 xtb: 6.2.2 (9d81278992624c895f80dd42a50cac0aa55982e2)
C        -0.04071042951725   -0.34039259834011    0.01056766773711
N        -0.42499926786641    1.12901040240818   -0.07270493278289
N         0.67954336851741    0.99936993156308    0.00662567089668
H        -0.16896484721177   -0.85792069057880    0.95061756442012
H        -0.04486882392198   -0.93006704505235   -0.89510597027102
5
 energy: -8.878549911000 gnorm: 0.219349197498 xtb: 6.2.2 (9d81278992624c895f80dd42a50cac0aa55982e2)
C        -0.03035615350791   -0.25381443041320    0.00788003837302
N        -0.45795022335659    1.04242329620741   -0.07153613956920
N         0.69115744630727    0.90755193662077    0.01099515862949
H        -0.16273734675898   -0.81243559996100    0.93824125919869
H        -0.04011372268380   -0.88372520245397   -0.88558031663199
5
 energy: -8.885328723665 gnorm: 0.151425989025 xtb: 6.2.2 (9d81278992624c895f80dd42a50cac0aa55982e2)
C        -0.03598404359800   -0.30088606750440    0.00934177447270
N        -0.45417367351553    1.06642619247643   -0.07222058477129
N         0.69315178277873    0.93176975372917    0.01018251257160
H        -0.16373077876676   -0.81247430239392    0.95197115726690
H        -0.03926328689844   -0.88483557630728   -0.89927485953990
5
 energy: -8.887770128720 gnorm: 0.106118991768 xtb: 6.2.2 (9d81278992624c895f80dd42a50cac0aa55982e2)
C        -0.03651719454983   -0.30534536529991    0.00948025769834
N        -0.46148499519641    1.06535004913123   -0.07267011745321
N         0.70000771040356    0.92903187925277    0.01075048265735
H        -0.16317684306552   -0.80837233837054    0.95095551454901
H        -0.03882867759180   -0.88066422471356   -0.89851613745149
5
 energy: -8.890515954122 gnorm: 0.021471975434 xtb: 6.2.2 (9d81278992624c895f80dd42a50cac0aa55982e2)
C        -0.03623972595785   -0.30301566391194    0.00940774020689
N        -0.47806231092113    1.06687188014744   -0.07384411446363
N         0.71648365572252    0.92667228047110    0.01195057587462
H        -0.16314969004159   -0.80918516071566    0.94926603338390
H        -0.03903192880195   -0.88134333599094   -0.89678023500178
5
 energy: -8.890708212659 gnorm: 0.003871601767 xtb: 6.2.2 (9d81278992624c895f80dd42a50cac0aa55982e2)
C        -0.03558898023845   -0.29757374123259    0.00923875635602
N        -0.48197722837076    1.06937192039366   -0.07420503182183
N         0.72087980675363    0.92819672752729    0.01218657106647
H        -0.16357147107774   -0.81400218946606    0.94726805425636
H        -0.03974212706668   -0.88599271722229   -0.89448834985703
5
 energy: -8.890718746142 gnorm: 0.000547875289 xtb: 6.2.2 (9d81278992624c895f80dd42a50cac0aa55982e2)
C        -0.03534120781082   -0.29550170574957    0.00917442070676
N        -0.48266709679311    1.07027152644528   -0.07428657382212
N         0.72176256133555    0.92891150405708    0.01221798361080
H        -0.16376296852763   -0.81586215867698    0.94689642508536
H        -0.03999128820398   -0.88781916607582   -0.89400225558080
5
 energy: -8.890718922861 gnorm: 0.000126733861 xtb: 6.2.2 (9d81278992624c895f80dd42a50cac0aa55982e2)
C        -0.03529628808231   -0.29512692271887    0.00916279075503
N        -0.48258411110921    1.07048443462560   -0.07428931588886
N         0.72173208940487    0.92913776847524    0.01220709162732
H        -0.16380601968677   -0.81627242908728    0.94682479659991
H        -0.04004567052658   -0.88822285129469   -0.89390536309340
