 Entering Gaussian System
 *********************************************
 Gaussian 98:
 frequency output generated by the xtb code
 *********************************************
                         Standard orientation:
 --------------------------------------------------------------------
  Center     Atomic     Atomic              Coordinates (Angstroms)
  Number     Number      Type              X           Y           Z
 --------------------------------------------------------------------
    1          6             0       -0.035298   -0.295127    0.009163
    2          7             0       -0.482579    1.070487   -0.074289
    3          7             0        0.721737    0.929134    0.012203
    4          1             0       -0.163807   -0.816270    0.946827
    5          1             0       -0.040053   -0.888224   -0.893904
 --------------------------------------------------------------------
     1 basis functions        1 primitive gaussians
     1 alpha electrons        1 beta electrons

 Harmonic frequencies (cm**-1), IR intensities (KM/Mole),
 Raman scattering activities (A**4/amu), Raman depolarization ratios,
 reduced masses (AMU), force constants (mDyne/A) and normal coordinates:
                      1                      2                      3
                        a                      a                      a 
 Frequencies --   953.7964               980.4280               983.5488
 Red. masses --    11.4856                 2.8587                 5.1076
 Frc consts  --     0.0000                 0.0000                 0.0000
 IR Inten    --     0.1985                 0.0021                 0.0904
 Raman Activ --     0.0000                 0.0000                 0.0000
 Depolar     --     0.0000                 0.0000                 0.0000
 Atom AN      X      Y      Z        X      Y      Z        X      Y      Z
   1   6    -0.31   0.04  -0.02    -0.01   0.00  -0.00    -0.56   0.07  -0.04
   2   7     0.16  -0.58   0.03     0.02  -0.01  -0.27     0.10  -0.11   0.02
   3   7     0.29   0.53   0.00    -0.02   0.01   0.27     0.12   0.08  -0.00
   4   1    -0.29   0.03  -0.02     0.66  -0.08   0.05     0.55  -0.06   0.04
   5   1    -0.30   0.04  -0.02    -0.64   0.07  -0.05     0.57  -0.07   0.04
                      4                      5                      6
                        a                      a                      a 
 Frequencies --  1091.2049              1195.9620              1444.5296
 Red. masses --     3.5972                11.9529                 2.1219
 Frc consts  --     0.0000                 0.0000                 0.0000
 IR Inten    --     0.3133                 0.1427                 0.0925
 Raman Activ --     0.0000                 0.0000                 0.0000
 Depolar     --     0.0000                 0.0000                 0.0000
 Atom AN      X      Y      Z        X      Y      Z        X      Y      Z
   1   6    -0.03   0.02   0.44    -0.09  -0.73   0.02    -0.03  -0.27   0.01
   2   7     0.01  -0.01  -0.14     0.23   0.37   0.00     0.10  -0.04   0.01
   3   7     0.01  -0.01  -0.14    -0.14   0.41  -0.03    -0.11  -0.01  -0.01
   4   1    -0.05  -0.58  -0.23    -0.02  -0.19   0.00     0.04   0.58   0.34
   5   1     0.08   0.56  -0.26    -0.02  -0.19   0.01     0.09   0.55  -0.38
                      7                      8                      9
                        a                      a                      a 
 Frequencies --  1800.6507              3090.7700              3101.2560
 Red. masses --    13.7390                 1.4131                 2.1202
 Frc consts  --     0.0000                 0.0000                 0.0000
 IR Inten    --     0.9436                 0.1768                 0.2909
 Raman Activ --     0.0000                 0.0000                 0.0000
 Depolar     --     0.0000                 0.0000                 0.0000
 Atom AN      X      Y      Z        X      Y      Z        X      Y      Z
   1   6     0.03   0.24  -0.01    -0.02  -0.19   0.01     0.02  -0.01  -0.32
   2   7     0.65  -0.18   0.05    -0.02  -0.00  -0.00     0.00  -0.00  -0.00
   3   7    -0.68  -0.03  -0.04     0.02  -0.01   0.00     0.00  -0.00  -0.00
   4   1     0.00  -0.03  -0.07     0.08   0.32  -0.61    -0.08  -0.34   0.57
   5   1    -0.01  -0.02   0.07     0.00   0.37   0.59     0.01   0.38   0.55
