[Molden Format]
[Title]
[Atoms] AU
C      1     6  0.14173218619238E+01 -0.55800866800888E-01  0.13225075428104E-01
N      2     7 -0.10497752034361E+01 -0.34149679963972E-01 -0.35066545438451E+00
N      3     7  0.35732916255785E+01 -0.10040650587408E+00  0.21274586437330E+00
H      4     1 -0.19060801759999E+01  0.16673140296940E+01 -0.28644899144393E+00
H      5     1 -0.20347581080762E+01 -0.14769588667810E+01  0.41114350603033E+00
[GTO]
           1 0
 s           4   1.0000000000000000     
   51.049363095579913      -0.16312063210127389     
   8.7911227406887544      -0.19911024581000730     
  0.70640422258929825       0.31882047753655751     
  0.26922813413411617       0.12706504184240380     
 p           4   1.0000000000000000     
   5.8263656140800002       0.73716451545209605     
   1.5106896018720002       0.68216371614850257     
  0.53256483288000001       0.35783053929253711     
  0.21202323690600003        5.3983030275847881E-002

           2 0
 s           4   1.0000000000000000     
   63.594024466941008      -0.19234388414721629     
   10.951417231523665      -0.23478107924953728     
  0.87999310257376984       0.37593753901700888     
  0.33538715296521110       0.14982889271862770     
 p           4   1.0000000000000000     
   7.2965040481495080       0.97658666315667420     
   1.8918745450712575       0.90372226730345739     
  0.66694432110824120       0.47404958461536373     
  0.26552202674130870        7.1516067715011844E-002

           3 0
 s           4   1.0000000000000000     
   63.594024466941008      -0.19234388414721629     
   10.951417231523665      -0.23478107924953728     
  0.87999310257376984       0.37593753901700888     
  0.33538715296521110       0.14982889271862770     
 p           4   1.0000000000000000     
   7.2965040481495080       0.97658666315667420     
   1.8918745450712575       0.90372226730345739     
  0.66694432110824120       0.47404958461536373     
  0.26552202674130870        7.1516067715011844E-002

           4 0
 s           3   1.0000000000000000     
   3.3702276975336001       0.27359110588908298     
  0.61389118221497996       0.26460540653860526     
  0.16614291148415999        8.2465947534082318E-002

           5 0
 s           3   1.0000000000000000     
   3.3702276975336001       0.27359110588908298     
  0.61389118221497996       0.26460540653860526     
  0.16614291148415999        8.2465947534082318E-002

[MO]
Sym=     1a
Ene=  -0.66466722446760296     
Spin= Alpha
Occup=     2.00000000
           1  0.39468609429785512     
           2 -0.15819634885112785     
           3   4.3652201919435587E-003
           4  -9.8720808252891132E-003
           5  0.55259620325062164     
           6  0.16433863545047214     
           7   9.9316046244531265E-003
           8   7.5850187533738789E-002
           9   8.7371593781175344E-002
          10  -7.3754833942681203E-002
          11   1.8900863918293049E-003
          12  -5.2070680091305293E-003
          13  0.14508538257703310     
          14  0.14522073869537422     
Sym=     2a
Ene=  -0.63599100827866761     
Spin= Alpha
Occup=     2.00000000
           1 -0.38583759261397022     
           2 -0.27165419570476773     
           3   7.0181766176316126E-003
           4  -1.8808108564308115E-002
           5  0.24056009726621069     
           6 -0.14579361263522467     
           7   1.2034157719410273E-002
           8   2.7271076405764809E-002
           9 -0.47137219923592799     
          10  0.19020396976180001     
          11  -4.1696952760363389E-003
          12   1.6557874262893891E-002
          13  0.11761988921578546     
          14  0.11761202505451243     
Sym=     3a
Ene=  -0.58266193747158146     
Spin= Alpha
Occup=     2.00000000
           1 -0.17117078769711214     
           2  0.31021708107026319     
           3   8.4063370716005795E-003
           4   9.4843145559813921E-002
           5  0.13139576582400792     
           6 -0.54313050966468546     
           7   3.8291171271277444E-002
           8   6.8605061396607839E-002
           9  0.30745253195210825     
          10  -1.6956860912343941E-002
          11   6.2425296110154250E-003
          12   2.4724594196128637E-002
          13  0.25280745280749428     
          14  0.25194310287885102     
Sym=     4a
Ene=  -0.57524255589337525     
Spin= Alpha
Occup=     2.00000000
           1  -2.2031461982073493E-004
           2  -1.0263441125060719E-002
           3 -0.25716449891229248     
           4   5.7183408198644758E-002
           5  -7.7782404664268005E-005
           6  -2.4731996607552278E-002
           7 -0.58320880865582347     
           8  0.12947717367503708     
           9   3.3744989122315222E-004
          10  -4.3311098319718895E-003
          11 -0.10486893508895617     
          12   2.3306354525381209E-002
          13 -0.33156873234320611     
          14  0.33215689453941616     
Sym=     5a
Ene=  -0.50909897759724143     
Spin= Alpha
Occup=     2.00000000
           1   5.5287980597482973E-002
           2  -9.2489023666293899E-002
           3  0.11997839875024675     
           4  0.52332223438453263     
           5 -0.16597742453327871     
           6   5.7517596868198760E-002
           7  0.11719345800117925     
           8  0.53876815098066488     
           9  -7.2772076612326084E-002
          10  -5.6663805761808093E-002
          11   8.1782827486834853E-002
          12  0.35788653322671488     
          13  -5.4058924252385785E-003
          14  -5.4023199662892084E-003
Sym=     6a
Ene=  -0.46229917057213216     
Spin= Alpha
Occup=     2.00000000
           1  -2.1937185819737639E-004
           2   2.1490668083521888E-002
           3  0.51958261830446562     
           4 -0.11527997960100636     
           5   3.2582971682092177E-005
           6  -8.2101446758090137E-003
           7 -0.19775738571760540     
           8   4.3855436004622730E-002
           9   2.9959210208178085E-004
          10   2.7141837907773803E-002
          11  0.65259965941815867     
          12 -0.14477072793837328     
          13 -0.18231654861929245     
          14  0.18235763847414135     
Sym=     7a
Ene=  -0.42227860815888368     
Spin= Alpha
Occup=     2.00000000
           1  0.18977452086340482     
           2  0.17070758470104899     
           3  -2.2895622116202923E-002
           4  -7.2173543757409517E-002
           5 -0.15403755330769503     
           6 -0.17850402117139333     
           7   3.8888849071809367E-002
           8  0.14248931640720602     
           9 -0.63098011976935875     
          10 -0.62263793401160428     
          11  -3.1643256285099466E-002
          12 -0.25973917132695551     
          13   7.0602080591882457E-002
          14   7.0659355445059621E-002
Sym=     8a
Ene=  -0.41133852905652707     
Spin= Alpha
Occup=     2.00000000
           1  -4.0625283388099252E-002
           2  -4.6427967602130679E-002
           3  -4.4238560608865198E-002
           4 -0.20788478011723602     
           5 -0.15466140636636699     
           6   7.8165695142907610E-002
           7  0.14724698208872611     
           8  0.67806624794653581     
           9  0.18020649099167033     
          10  0.25563477967468196     
          11 -0.13549428079951042     
          12 -0.56285118142825619     
          13   3.7448352871785884E-002
          14   3.7408416373018380E-002
Sym=     9a
Ene=  -0.19461998875093034     
Spin= Alpha
Occup=     0.00000000
           1   3.2355201124913461E-004
           2  -3.3970204880816743E-002
           3 -0.81812054634373288     
           4  0.18135801128154530     
           5  -2.9142616909636577E-004
           6   9.7352961504509745E-005
           7   2.5608225450948342E-003
           8  -5.8480914614763852E-004
           9   1.9604418948445994E-005
          10   3.1494107397748557E-002
          11  0.75993521820707000     
          12 -0.16846256381702346     
          13  0.22849166586438222     
          14 -0.22830356648734432     
Sym=    10a
Ene=  -0.16266143028470564     
Spin= Alpha
Occup=     0.00000000
           1  -1.7341218207083949E-002
           2   8.8439680334344281E-002
           3 -0.18963401424256793     
           4 -0.83904339925148663     
           5 -0.17972557839549105     
           6   5.7870746275331626E-002
           7   7.5748114084658022E-002
           8  0.35231147929599416     
           9  -6.9250967517421160E-003
          10  -5.9949202258966966E-002
          11  0.16002760266251059     
          12  0.71077218437918210     
          13  0.11923542889206182     
          14  0.11923971823571237     
Sym=    11a
Ene=    8.7833890352480709E-003
Spin= Alpha
Occup=     0.00000000
           1 -0.41033470644473491     
           2  0.20567566288134612     
           3  -2.7856653642041467E-002
           4  -8.5355687749690337E-002
           5   1.0475890261166700     
           6 -0.14796126997069931     
           7   7.8940387877418125E-002
           8  0.32778025815549661     
           9   8.1736668216168054E-002
          10 -0.25695358364661308     
          11   1.8700504830990009E-002
          12   3.5423394982945777E-002
          13 -0.65991030469538492     
          14 -0.65955839720299769     
Sym=    12a
Ene=   0.22494307181247136     
Spin= Alpha
Occup=     0.00000000
           1  -1.4681338536678573E-002
           2  -4.8537245533290668E-003
           3 -0.24278400154997715     
           4   5.5829751675987381E-002
           5   6.2529982235965753E-004
           6   5.6998373420251408E-002
           7   1.0293998532548454     
           8 -0.22913815416560016     
           9   3.0661735721298944E-003
          10  -1.9567625006003358E-003
          11  0.11051737863623406     
          12  -2.5760137746390216E-002
          13 -0.84090205525516037     
          14  0.85308108074197142     
Sym=    13a
Ene=   0.23277117039507556     
Spin= Alpha
Occup=     0.00000000
           1 -0.97751220186473653     
           2  0.33170208789909850     
           3   1.8059671769062084E-002
           4  0.12692291637088357     
           5   5.5028072443009828E-002
           6  0.95714577405784818     
           7  -6.3043909282619714E-002
           8  -3.1701789801614769E-002
           9  0.21227522079541586     
          10 -0.43997993281604086     
          11  -1.8802077823778136E-003
          12  -8.2912230589037669E-002
          13  0.39921274499116527     
          14  0.37326863208354166     
Sym=    14a
Ene=    1.2042999205188210     
Spin= Alpha
Occup=     0.00000000
           1 -0.52155467739439210     
           2  -1.4125867918545973     
           3   2.3724181313834351E-002
           4 -0.15598734637483008     
           5 -0.42176338855905382     
           6 -0.48641575703963513     
           7   6.7067135140256523E-003
           8  -6.1547451157236956E-002
           9  0.99049260055752286     
          10 -0.94114688956008863     
          11   2.1028727754691022E-002
          12  -7.9952402469407435E-002
          13  -6.6945345669226622E-002
          14  -6.6651351219613478E-002
