 Entering Gaussian System
 *********************************************
 Gaussian 98:
 frequency output generated by the xtb code
 *********************************************
                         Standard orientation:
 --------------------------------------------------------------------
  Center     Atomic     Atomic              Coordinates (Angstroms)
  Number     Number      Type              X           Y           Z
 --------------------------------------------------------------------
    1          6             0        0.750014   -0.029529    0.006998
    2          7             0       -0.555517   -0.018071   -0.185564
    3          7             0        1.890905   -0.053133    0.112580
    4          1             0       -1.008654    0.882305   -0.151582
    5          1             0       -1.076748   -0.781573    0.217568
 --------------------------------------------------------------------
     1 basis functions        1 primitive gaussians
     1 alpha electrons        1 beta electrons

 Harmonic frequencies (cm**-1), IR intensities (KM/Mole),
 Raman scattering activities (A**4/amu), Raman depolarization ratios,
 reduced masses (AMU), force constants (mDyne/A) and normal coordinates:
                      1                      2                      3
                        a                      a                      a 
 Frequencies --   407.3315               452.8337               506.2893
 Red. masses --    10.0482                 7.7694                 8.0202
 Frc consts  --     0.0000                 0.0000                 0.0000
 IR Inten    --     0.3942                 0.3583                 1.0547
 Raman Activ --     0.0000                 0.0000                 0.0000
 Depolar     --     0.0000                 0.0000                 0.0000
 Atom AN      X      Y      Z        X      Y      Z        X      Y      Z
   1   6     0.03   0.73  -0.16    -0.07   0.14   0.64    -0.04   0.12   0.51
   2   7    -0.01  -0.15   0.03     0.10  -0.00   0.01    -0.03  -0.11  -0.50
   3   7    -0.02  -0.43   0.10     0.02  -0.08  -0.37     0.01  -0.05  -0.20
   4   1    -0.28  -0.18  -0.00    -0.11  -0.06  -0.44     0.10   0.03   0.45
   5   1     0.26  -0.18   0.08    -0.11  -0.12  -0.43     0.10   0.16   0.42
                      4                      5                      6
                        a                      a                      a 
 Frequencies --  1017.4007              1146.9775              1441.5251
 Red. masses --     4.5833                11.8404                 3.1251
 Frc consts  --     0.0000                 0.0000                 0.0000
 IR Inten    --     0.2954                 0.8666                 0.6028
 Raman Activ --     0.0000                 0.0000                 0.0000
 Depolar     --     0.0000                 0.0000                 0.0000
 Atom AN      X      Y      Z        X      Y      Z        X      Y      Z
   1   6     0.02   0.37  -0.08    -0.28   0.00  -0.04     0.02   0.01   0.05
   2   7    -0.02  -0.38   0.08     0.67  -0.01   0.08    -0.39   0.02   0.00
   3   7    -0.00  -0.06   0.01    -0.55   0.01  -0.05     0.09  -0.00   0.00
   4   1     0.55   0.19   0.11     0.27   0.04   0.01     0.54   0.31  -0.18
   5   1    -0.53   0.17  -0.19     0.27  -0.05   0.03     0.51  -0.40  -0.02
                      7                      8                      9
                        a                      a                      a 
 Frequencies --  2441.0833              3437.2257              3480.0977
 Red. masses --    12.7287                 1.4475                 2.1554
 Frc consts  --     0.0000                 0.0000                 0.0000
 IR Inten    --     2.3357                 0.2141                 0.1483
 Raman Activ --     0.0000                 0.0000                 0.0000
 Depolar     --     0.0000                 0.0000                 0.0000
 Atom AN      X      Y      Z        X      Y      Z        X      Y      Z
   1   6    -0.79   0.02  -0.08     0.01  -0.00  -0.00     0.00   0.01  -0.00
   2   7     0.14  -0.00   0.01     0.17  -0.02  -0.06     0.01   0.29  -0.06
   3   7     0.59  -0.01   0.05    -0.01   0.00  -0.00     0.00  -0.00   0.00
   4   1     0.02   0.00   0.02    -0.30   0.63  -0.00     0.32  -0.59  -0.02
   5   1     0.02   0.00   0.02    -0.34  -0.54   0.26    -0.36  -0.51   0.27
