4
 energy: -10.043698423911 gnorm: 0.172836884252 xtb: 6.2.2 (9d81278992624c895f80dd42a50cac0aa55982e2)
C         1.47196600000000   -0.03541300000000   -0.24579200000000
C         0.19459900000000   -0.01530000000000    0.56668400000000
C        -0.89012800000000   -0.67466900000000   -0.18972000000000
O        -0.77643800000000    0.72538100000000   -0.13117200000000
4
 energy: -10.074029269031 gnorm: 0.111566302763 xtb: 6.2.2 (9d81278992624c895f80dd42a50cac0aa55982e2)
C         1.47625262027391   -0.04591057867740   -0.18826114880396
C         0.23824132818821   -0.01252381291949    0.46720289042935
C        -0.89877100237686   -0.65198780308532   -0.16964788203938
O        -0.81572394608527    0.71042119468222   -0.10929385958601
4
 energy: -10.086153817322 gnorm: 0.132567844516 xtb: 6.2.2 (9d81278992624c895f80dd42a50cac0aa55982e2)
C         1.46045521300893   -0.02538483763067   -0.09561628591315
C         0.31728548941369   -0.03859650629076    0.31924760725485
C        -0.94422316886081   -0.61922117144376   -0.12567082552551
O        -0.83351853356181    0.68320151536519   -0.09796049581619
4
 energy: -10.094044555826 gnorm: 0.038542306121 xtb: 6.2.2 (9d81278992624c895f80dd42a50cac0aa55982e2)
C         1.56336706115587   -0.00680311992662   -0.07875539737517
C         0.31067851950271   -0.06133861450298    0.27075640237920
C        -1.01035845458036   -0.61478689730019   -0.09613686436807
O        -0.86368812607822    0.68292763172979   -0.09586414063596
4
 energy: -10.095247881237 gnorm: 0.022833054503 xtb: 6.2.2 (9d81278992624c895f80dd42a50cac0aa55982e2)
C         1.55852183126633   -0.00531034628316   -0.06916017881869
C         0.31569054585204   -0.06844377154300    0.25345179786337
C        -1.00724092370061   -0.60732997213142   -0.08822052330022
O        -0.86697245341775    0.68108308995758   -0.09607109574447
4
 energy: -10.096793449753 gnorm: 0.018689890593 xtb: 6.2.2 (9d81278992624c895f80dd42a50cac0aa55982e2)
C         1.56238871328937    0.01139889073521   -0.04087937464405
C         0.32873027251706   -0.10121386139951    0.20118432100950
C        -1.01902177831336   -0.59101773242442   -0.05755252824527
O        -0.87209820749306    0.68083170308872   -0.10275241812018
4
 energy: -10.098469381932 gnorm: 0.024183664876 xtb: 6.2.2 (9d81278992624c895f80dd42a50cac0aa55982e2)
C         1.57675343581438    0.02956536071267   -0.00574686449635
C         0.34359022039044   -0.14485310617692    0.13432566420319
C        -1.03204674238177   -0.57193322852948   -0.01723550886533
O        -0.88829791382306    0.68721997399373   -0.11134329084151
4
 energy: -10.100679562284 gnorm: 0.032576010111 xtb: 6.2.2 (9d81278992624c895f80dd42a50cac0aa55982e2)
C         1.58450153849553    0.04249648940689    0.02604405270925
C         0.35816634548025   -0.18535275050863    0.07471044651801
C        -1.03512698058571   -0.55323123372703    0.01905574512069
O        -0.90754190339007    0.69608649482877   -0.11981024434796
4
 energy: -10.104118924442 gnorm: 0.045359699193 xtb: 6.2.2 (9d81278992624c895f80dd42a50cac0aa55982e2)
C         1.59092532453936    0.05252794607506    0.06241544220036
C         0.37565894394575   -0.23030573803538    0.00677996556599
C        -1.03088276671850   -0.52957499326830    0.05944660606044
O        -0.93570250176661    0.70735178522863   -0.12864201382678
4
 energy: -10.108617094096 gnorm: 0.054975777826 xtb: 6.2.2 (9d81278992624c895f80dd42a50cac0aa55982e2)
C         1.58462001637180    0.04518835935292    0.08666152276344
C         0.38865227921447   -0.25977439491245   -0.03812568352666
C        -1.00032258059044   -0.50762801275638    0.08503358928118
O        -0.97295071499584    0.72221304831591   -0.13356942851796
4
 energy: -10.110431001956 gnorm: 0.098697856454 xtb: 6.2.2 (9d81278992624c895f80dd42a50cac0aa55982e2)
C         1.61121159986349    0.06227668352688    0.14257301454678
C         0.41955804212003   -0.32414682599447   -0.14096187008386
C        -1.01084429332954   -0.46976585521676    0.14412418361508
O        -1.01992634865398    0.73163499768435   -0.14573532807801
4
 energy: -10.126569605795 gnorm: 0.118583344560 xtb: 6.2.2 (9d81278992624c895f80dd42a50cac0aa55982e2)
C         1.59872434131838    0.01824537327686    0.18170155552189
C         0.45248528336874   -0.37258620637120   -0.20800484120283
C        -0.91246680402280   -0.41184387608562    0.18129196703300
O        -1.13874382066433    0.76618370917996   -0.15498868135206
4
 energy: -10.124130518705 gnorm: 0.313260738263 xtb: 6.2.2 (9d81278992624c895f80dd42a50cac0aa55982e2)
C         1.55627904909346   -0.11098406013573    0.22586447823818
C         0.52656557489448   -0.44459417365965   -0.26300464403810
C        -0.65961817977947   -0.27026518321910    0.21762387375851
O        -1.42322744420847    0.82584241701447   -0.18048370795859
4
 energy: -10.147697756092 gnorm: 0.217514943712 xtb: 6.2.2 (9d81278992624c895f80dd42a50cac0aa55982e2)
C         1.57370077613730   -0.02894686270994    0.24561132873896
C         0.51964362906351   -0.47951401220933   -0.30477063560026
C        -0.77467626646018   -0.29151045578127    0.25222281323800
O        -1.31866913874064    0.79997033070054   -0.19306350637671
4
 energy: -10.117951515644 gnorm: 0.278996975308 xtb: 6.2.2 (9d81278992624c895f80dd42a50cac0aa55982e2)
C         1.52388445455021    0.05657980388549    0.11697309631272
C         0.47157810477382   -0.41133729882818   -0.03904290677520
C        -0.91108614035414   -0.34412029478082    0.15236427437491
O        -1.08437741896989    0.69887678972351   -0.23029446391243
4
 energy: -10.156306044111 gnorm: 0.102766411437 xtb: 6.2.2 (9d81278992624c895f80dd42a50cac0aa55982e2)
C         1.54910301192453    0.02028481550748    0.16568946825209
C         0.50279235180428   -0.46674575418785   -0.13092045514834
C        -0.84117985376716   -0.30217495162179    0.20089942550536
O        -1.21071650996165    0.74863489030216   -0.23566843860911
4
 energy: -10.150599804618 gnorm: 0.236151280851 xtb: 6.2.2 (9d81278992624c895f80dd42a50cac0aa55982e2)
C         1.53335092402727   -0.03297812924652    0.23972385818966
C         0.57590012387830   -0.58768654742809   -0.24729823693837
C        -0.69042619194027   -0.16114667361773    0.28405722360985
O        -1.41882585596530    0.78181035029234   -0.27648284486114
4
 energy: -10.168866577127 gnorm: 0.124103715940 xtb: 6.2.2 (9d81278992624c895f80dd42a50cac0aa55982e2)
C         1.55144028232901   -0.00047575335979    0.19802739774028
C         0.53244274857036   -0.53508099902799   -0.18361492327199
C        -0.77096414225086   -0.22291576868291    0.24688088293871
O        -1.31291988864851    0.75847152107069   -0.26129335740699
4
 energy: -10.171650866987 gnorm: 0.097211823329 xtb: 6.2.2 (9d81278992624c895f80dd42a50cac0aa55982e2)
C         1.55770150437724    0.00103671667340    0.18832707679123
C         0.52676859670094   -0.53627941326749   -0.16622606062979
C        -0.77216948695211   -0.21315097018007    0.24408222225579
O        -1.31230161412607    0.74839266677416   -0.26618323841723
4
 energy: -10.180742933572 gnorm: 0.043007357190 xtb: 6.2.2 (9d81278992624c895f80dd42a50cac0aa55982e2)
C         1.59345078117989   -0.01367358527739    0.15631747615017
C         0.51669351794869   -0.54824733007742   -0.10579355634197
C        -0.74898207509548   -0.14715607108919    0.23702616104184
O        -1.36116322403309    0.70907598644401   -0.28755008085003
4
 energy: -10.188921256602 gnorm: 0.046804689213 xtb: 6.2.2 (9d81278992624c895f80dd42a50cac0aa55982e2)
C         1.63734227073499   -0.05070283225835    0.13446849033185
C         0.52044143031682   -0.56274747185894   -0.06120507009263
C        -0.69823645240121   -0.06027140898725    0.23313942455662
O        -1.45954824865059    0.67372071310453   -0.30640284479585
4
 energy: -10.193951439130 gnorm: 0.034730942168 xtb: 6.2.2 (9d81278992624c895f80dd42a50cac0aa55982e2)
C         1.68208975577056   -0.10046416077908    0.15520311595172
C         0.53575261355015   -0.53084354200549   -0.07653358057179
C        -0.69283714510557   -0.01347722668557    0.22333100314515
O        -1.52500622421514    0.64478392947015   -0.30200053852508
4
 energy: -10.199074359758 gnorm: 0.070396777471 xtb: 6.2.2 (9d81278992624c895f80dd42a50cac0aa55982e2)
C         1.76226206173371   -0.20315620666943    0.19317807043873
C         0.55620113153650   -0.45250117120858   -0.10129735383857
C        -0.67571285258641    0.07449880916384    0.19840904762763
O        -1.64275134068379    0.58115756871416   -0.29028976422778
4
 energy: -10.202218596453 gnorm: 0.041110499952 xtb: 6.2.2 (9d81278992624c895f80dd42a50cac0aa55982e2)
C         1.77264490951583   -0.23690803956373    0.19878086214118
C         0.56255806911006   -0.41861471798142   -0.09787540933744
C        -0.67209039836472    0.09996842676999    0.17734543966021
O        -1.66311358026117    0.55555333077516   -0.27825089246395
4
 energy: -10.205603943566 gnorm: 0.036382493563 xtb: 6.2.2 (9d81278992624c895f80dd42a50cac0aa55982e2)
C         1.79268075256128   -0.31104857744713    0.21421825514585
C         0.57386372146831   -0.34560770761069   -0.09552952504473
C        -0.65273334747982    0.15559683459786    0.13740983634827
O        -1.71381212654977    0.50105845045996   -0.25609856644938
4
 energy: -10.206482135254 gnorm: 0.040284790010 xtb: 6.2.2 (9d81278992624c895f80dd42a50cac0aa55982e2)
C         1.77443037653806   -0.34184060771007    0.21128952942520
C         0.57765151981113   -0.30358483814270   -0.07894274903364
C        -0.64238369114641    0.17279825269903    0.10417124294945
O        -1.70969920520278    0.47262619315374   -0.23651802334101
4
 energy: -10.206913758011 gnorm: 0.058267237304 xtb: 6.2.2 (9d81278992624c895f80dd42a50cac0aa55982e2)
C         1.80148066260177   -0.41738667057063    0.22724111343371
C         0.58997421950384   -0.22946553994843   -0.07846487407113
C        -0.62833049644080    0.22803845278476    0.06763298086393
O        -1.76312538566481    0.41881275773431   -0.21640922022651
4
 energy: -10.207601885182 gnorm: 0.004963263703 xtb: 6.2.2 (9d81278992624c895f80dd42a50cac0aa55982e2)
C         1.79066037108346   -0.37620391147302    0.21875881951738
C         0.58671677167729   -0.27216371769486   -0.07930240997875
C        -0.63958779755352    0.19800139018107    0.08902261784265
O        -1.73779034520723    0.45036523898682   -0.22847902738129
4
 energy: -10.207717763396 gnorm: 0.006133521181 xtb: 6.2.2 (9d81278992624c895f80dd42a50cac0aa55982e2)
C         1.79219346837407   -0.38940205122774    0.22105854373244
C         0.58995995416283   -0.25887098771176   -0.07879125216621
C        -0.63704447507549    0.20793981927998    0.08207312411520
O        -1.74510994746142    0.44033221965952   -0.22434041568143
4
 energy: -10.207789583259 gnorm: 0.009816592295 xtb: 6.2.2 (9d81278992624c895f80dd42a50cac0aa55982e2)
C         1.79281776321242   -0.40791166933041    0.22423346111500
C         0.59480806189465   -0.23969368624179   -0.07891129345929
C        -0.63422389822363    0.22217096065353    0.07339219773093
O        -1.75340292688344    0.42543339491866   -0.21871436538663
4
 energy: -10.207821970328 gnorm: 0.006448971071 xtb: 6.2.2 (9d81278992624c895f80dd42a50cac0aa55982e2)
C         1.79096550995921   -0.41088893090192    0.22508184444379
C         0.59606659729444   -0.23657726753225   -0.08031987259580
C        -0.63360018301314    0.22529405831498    0.07337922971872
O        -1.75343292424050    0.42217114011919   -0.21814120156670
4
 energy: -10.207875027216 gnorm: 0.003344995331 xtb: 6.2.2 (9d81278992624c895f80dd42a50cac0aa55982e2)
C         1.78637831411864   -0.41805564409487    0.22794385011632
C         0.59851813325133   -0.22871805105635   -0.08651622146388
C        -0.63272325770616    0.23354498632954    0.07660691496039
O        -1.75217418966380    0.41322770882168   -0.21803454361283
4
 energy: -10.207892562856 gnorm: 0.003154850460 xtb: 6.2.2 (9d81278992624c895f80dd42a50cac0aa55982e2)
C         1.78361532037839   -0.42153877827001    0.23021423365748
C         0.59955770388798   -0.22535662072104   -0.09148113050979
C        -0.63137999972548    0.23861719036000    0.07997066098837
O        -1.75179402454089    0.40827720863105   -0.21870376413606
4
 energy: -10.207901953564 gnorm: 0.002171094150 xtb: 6.2.2 (9d81278992624c895f80dd42a50cac0aa55982e2)
C         1.78217224151828   -0.42232362513048    0.23190475801245
C         0.59939416198334   -0.22449422565682   -0.09625879094181
C        -0.63115736521156    0.24099105895190    0.08478886823463
O        -1.75041003829007    0.40582579183540   -0.22043483530528
4
 energy: -10.207904056794 gnorm: 0.000905143469 xtb: 6.2.2 (9d81278992624c895f80dd42a50cac0aa55982e2)
C         1.78243723560347   -0.41988086175152    0.23186945693793
C         0.59854847786077   -0.22713944172626   -0.09718608750947
C        -0.63135538339095    0.23924613276174    0.08708489262077
O        -1.74963133007329    0.40777317071605   -0.22176826204923
