 Entering Gaussian System
 *********************************************
 Gaussian 98:
 frequency output generated by the xtb code
 *********************************************
                         Standard orientation:
 --------------------------------------------------------------------
  Center     Atomic     Atomic              Coordinates (Angstroms)
  Number     Number      Type              X           Y           Z
 --------------------------------------------------------------------
    1          6             0        1.782436   -0.419890    0.231864
    2          6             0        0.598547   -0.227143   -0.097188
    3          6             0       -0.631354    0.239250    0.087087
    4          8             0       -1.749630    0.407782   -0.221763
 --------------------------------------------------------------------
     1 basis functions        1 primitive gaussians
     1 alpha electrons        1 beta electrons

 Harmonic frequencies (cm**-1), IR intensities (KM/Mole),
 Raman scattering activities (A**4/amu), Raman depolarization ratios,
 reduced masses (AMU), force constants (mDyne/A) and normal coordinates:
                      1                      2                      3
                        a                      a                      a 
 Frequencies --   194.6098               283.1469               365.5316
 Red. masses --    12.8522                12.9050                12.3857
 Frc consts  --     0.0000                 0.0000                 0.0000
 IR Inten    --     0.2366                 0.2402                 0.4702
 Raman Activ --     0.0000                 0.0000                 0.0000
 Depolar     --     0.0000                 0.0000                 0.0000
 Atom AN      X      Y      Z        X      Y      Z        X      Y      Z
   1   6     0.14   0.43  -0.23    -0.05   0.23   0.42    -0.25   0.18   0.19
   2   6    -0.13  -0.43   0.23     0.06  -0.21  -0.40    -0.12  -0.27  -0.58
   3   6    -0.14  -0.45   0.24     0.07  -0.30  -0.48     0.08   0.25   0.53
   4   8     0.11   0.39  -0.21    -0.07   0.24   0.40     0.25  -0.13  -0.12
                      4                      5                      6
                        a                      a                      a 
 Frequencies --   986.9673              1838.8044              2132.4492
 Red. masses --    13.2878                12.3583                12.9093
 Frc consts  --     0.0000                 0.0000                 0.0000
 IR Inten    --     0.1429                 1.4912                 2.1228
 Raman Activ --     0.0000                 0.0000                 0.0000
 Depolar     --     0.0000                 0.0000                 0.0000
 Atom AN      X      Y      Z        X      Y      Z        X      Y      Z
   1   6    -0.52   0.09  -0.12     0.59  -0.11   0.15    -0.17   0.02  -0.05
   2   6    -0.39   0.22   0.20    -0.63   0.12  -0.14     0.39  -0.10   0.04
   3   6     0.27  -0.19  -0.20    -0.29   0.05  -0.08    -0.74   0.14  -0.14
   4   8     0.55  -0.10   0.11     0.28  -0.05   0.06     0.45  -0.06   0.14
