$hessian                                                                        
        1.2236989056  -0.1461752450  -0.0658554406  -0.3209622793   0.0376019776
        0.0169730385  -0.8535103191   0.1029718242   0.0463406941  -0.0272018041
       -0.0009664661  -0.0005666322  -0.0220245032   0.0065679093   0.0031083403
       -0.1461752450   0.0359273400  -0.0035044585   0.0374588279  -0.0190262334
       -0.0016883388   0.1031181890  -0.0132589275   0.0050972838  -0.0112858550
        0.0003894493   0.0010740230   0.0168840830  -0.0040316285  -0.0009785095
       -0.0658554406  -0.0035044585   0.0398993024   0.0169353940  -0.0016945233
       -0.0159785016   0.0464076126   0.0050975088  -0.0201829577  -0.0055845415
        0.0011187258  -0.0014050209   0.0080969755  -0.0010172527  -0.0023328222
       -0.3209622793   0.0374588279   0.0169353940   0.6267340174  -0.0151875031
       -0.0048775756  -0.1005891496   0.0113678118   0.0050788374  -0.1339997320
       -0.1188741382  -0.0581967749  -0.0711828565   0.0852350015   0.0410601191
        0.0376019776  -0.0190262334  -0.0016945233  -0.0151875031   0.4287238891
        0.1882242657   0.0111544713  -0.0057385338  -0.0038548862  -0.1245163348
       -0.1752747580  -0.0788992786   0.0909473890  -0.2286843639  -0.1037755775
        0.0169730385  -0.0016883388  -0.0159785016  -0.0048775756   0.1882242657
        0.1316777873   0.0049843664  -0.0038573325   0.0004644833  -0.0609189488
       -0.0788667587  -0.0522709851   0.0438391195  -0.1038118356  -0.0638927839
       -0.8535103191   0.1031181890   0.0464076126  -0.1005891496   0.0111544713
        0.0049843664   0.9539791762  -0.1145202741  -0.0514798536  -0.0000985554
        0.0014666760   0.0006945366   0.0002188479  -0.0012190622  -0.0006066620
        0.1029718242  -0.0132589275   0.0050975088   0.0113678118  -0.0057385338
       -0.0038573325  -0.1145202741   0.0161133274   0.0007726993  -0.0018887887
        0.0015403548  -0.0009733154   0.0020694267   0.0013437791  -0.0010395601
        0.0463406941   0.0050972838  -0.0201829577   0.0050788374  -0.0038548862
        0.0004644833  -0.0514798536   0.0007726993   0.0136569366  -0.0009305171
       -0.0009606212   0.0030638551   0.0009908393  -0.0010544757   0.0029976826
       -0.0272018041  -0.0112858550  -0.0055845415  -0.1339997320  -0.1245163348
       -0.0609189488  -0.0000985554  -0.0018887887  -0.0009305171   0.1547949091
        0.1313907968   0.0643770795   0.0065051823   0.0063001816   0.0030569278
       -0.0009664661   0.0003894493   0.0011187258  -0.1188741382  -0.1752747580
       -0.0788667587   0.0014666760   0.0015403548  -0.0009606212   0.1313907968
        0.1892124393   0.0894055321  -0.0130168686  -0.0158674853  -0.0106968780
       -0.0005666322   0.0010740230  -0.0014050209  -0.0581967749  -0.0788992786
       -0.0522709851   0.0006945366  -0.0009733154   0.0030638551   0.0643770795
        0.0894055321   0.0497169343  -0.0063082091  -0.0106069610   0.0008952166
       -0.0220245032   0.0168840830   0.0080969755  -0.0711828565   0.0909473890
        0.0438391195   0.0002188479   0.0020694267   0.0009908393   0.0065051823
       -0.0130168686  -0.0063082091   0.0864833295  -0.0968840301  -0.0466187252
        0.0065679093  -0.0040316285  -0.0010172527   0.0852350015  -0.2286843639
       -0.1038118356  -0.0012190622   0.0013437791  -0.0010544757   0.0063001816
       -0.0158674853  -0.0106069610  -0.0968840301   0.2472396987   0.1164905250
        0.0031083403  -0.0009785095  -0.0023328222   0.0410601191  -0.1037755775
       -0.0638927839  -0.0006066620  -0.0010395601   0.0029976826   0.0030569278
       -0.0106968780   0.0008952166  -0.0466187252   0.1164905250   0.0623327069
