[Molden Format]
[Title]
[Atoms] AU
C      1     6  0.14697269800440E+01 -0.17875115108379E+00 -0.80615515986763E-01
C      2     6 -0.10731456903265E+01  0.12968162127239E+00  0.58639516693578E-01
C      3     6  0.37531802251770E+01 -0.45223102239932E+00 -0.20336301296258E+00
H      4     1 -0.23077032457764E+01 -0.13194363253801E+01 -0.64967821662532E+00
H      5     1 -0.18420563793855E+01  0.18207368775843E+01  0.87501911860044E+00
[GTO]
           1 0
 s           4   1.0000000000000000     
   51.049363095579913      -0.16312063210127389     
   8.7911227406887544      -0.19911024581000730     
  0.70640422258929825       0.31882047753655751     
  0.26922813413411617       0.12706504184240380     
 p           4   1.0000000000000000     
   5.8263656140800002       0.73716451545209605     
   1.5106896018720002       0.68216371614850257     
  0.53256483288000001       0.35783053929253711     
  0.21202323690600003        5.3983030275847881E-002

           2 0
 s           4   1.0000000000000000     
   51.049363095579913      -0.16312063210127389     
   8.7911227406887544      -0.19911024581000730     
  0.70640422258929825       0.31882047753655751     
  0.26922813413411617       0.12706504184240380     
 p           4   1.0000000000000000     
   5.8263656140800002       0.73716451545209605     
   1.5106896018720002       0.68216371614850257     
  0.53256483288000001       0.35783053929253711     
  0.21202323690600003        5.3983030275847881E-002

           3 0
 s           4   1.0000000000000000     
   51.049363095579913      -0.16312063210127389     
   8.7911227406887544      -0.19911024581000730     
  0.70640422258929825       0.31882047753655751     
  0.26922813413411617       0.12706504184240380     
 p           4   1.0000000000000000     
   5.8263656140800002       0.73716451545209605     
   1.5106896018720002       0.68216371614850257     
  0.53256483288000001       0.35783053929253711     
  0.21202323690600003        5.3983030275847881E-002

           4 0
 s           3   1.0000000000000000     
   3.3702276975336001       0.27359110588908298     
  0.61389118221497996       0.26460540653860526     
  0.16614291148415999        8.2465947534082318E-002

           5 0
 s           3   1.0000000000000000     
   3.3702276975336001       0.27359110588908298     
  0.61389118221497996       0.26460540653860526     
  0.16614291148415999        8.2465947534082318E-002

[MO]
Sym=     1a
Ene=  -0.63174939874511660     
Spin= Alpha
Occup=     2.00000000
           1  0.54447786300020784     
           2   3.5560303859653516E-002
           3  -4.0524421638517714E-003
           4  -1.7828383547852894E-003
           5  0.30136600407775455     
           6  0.14479459354033319     
           7  -1.7475108912028629E-002
           8  -7.8894033564034897E-003
           9  0.35705905168851088     
          10 -0.18481550291030491     
          11   2.2198877526846957E-002
          12   9.9721568415287905E-003
          13   7.4929587794268990E-002
          14   7.5133349586662443E-002
Sym=     2a
Ene=  -0.60011349555640936     
Spin= Alpha
Occup=     2.00000000
           1  -5.3098048654165612E-002
           2 -0.35096544059051421     
           3   4.2342232215318486E-002
           4   1.9055941535181510E-002
           5  0.47530385100326106     
           6   7.4653622749691522E-003
           7  -8.4082606875340328E-004
           8  -4.1646626445461293E-004
           9 -0.37397805640863430     
          10   8.8335608576434008E-002
          11  -1.0523994201225927E-002
          12  -4.7123355522752557E-003
          13  0.18069756645202104     
          14  0.18099048328426318     
Sym=     3a
Ene=  -0.51807279743744306     
Spin= Alpha
Occup=     2.00000000
           1 -0.24665052990326744     
           2  0.29502182590500114     
           3  -3.4583055260852348E-002
           4  -1.5574678501051794E-002
           5  0.15959922586791281     
           6 -0.48241323422176952     
           7   6.0155377074985521E-002
           8   2.7116531634259401E-002
           9  0.32028172683767520     
          10   7.2909933464222698E-002
          11  -8.3967927875731822E-003
          12  -3.7948734569792494E-003
          13  0.27977656153646197     
          14  0.28205874386905616     
Sym=     4a
Ene=  -0.50705998575803024     
Spin= Alpha
Occup=     2.00000000
           1  -4.0549306933106654E-004
           2  -4.0824979635292857E-002
           3 -0.28417541145515618     
           4 -0.13797473916860020     
           5   7.4936810188548457E-004
           6  -7.0136451862309768E-002
           7 -0.46293660755332200     
           8 -0.22478317540309806     
           9   1.0783034435949525E-003
          10  -1.9936133249764017E-002
          11 -0.13802351467015880     
          12  -6.7014583132806713E-002
          13  0.34668400080990180     
          14 -0.34440466837498901     
Sym=     5a
Ene=  -0.45975233422663986     
Spin= Alpha
Occup=     2.00000000
           1  -1.1019196866425653E-004
           2  -2.3101192894943159E-003
           3 -0.26710054570873870     
           4  0.55080963497322921     
           5   9.4197011261044241E-005
           6  -1.5300189862003963E-003
           7 -0.17674527928756281     
           8  0.36448094412122306     
           9   9.7486495507326530E-005
          10  -1.6954799263052913E-003
          11 -0.19853263559911627     
          12  0.40940373504056732     
          13  -7.3640407261009772E-006
          14  -7.4518627291993979E-006
Sym=     6a
Ene=  -0.41942247447075720     
Spin= Alpha
Occup=     1.99998796
           1   7.2569267947607361E-004
           2  -6.9959326180027495E-002
           3 -0.47995450261248829     
           4 -0.23303443072813826     
           5  -1.6725939301063749E-004
           6   2.7913293424332960E-002
           7  0.19214253819606278     
           8   9.3291779029504682E-002
           9  -1.4854175344462392E-003
          10  -8.2895310541311190E-002
          11 -0.55860640014141749     
          12 -0.27122898253947636     
          13 -0.23472988636106162     
          14  0.23488189623425640     
Sym=     7a
Ene=  -0.39790030085191069     
Spin= Alpha
Occup=     1.00001204
           1 -0.12180698823810834     
           2 -0.21939099047681954     
           3   2.5411577272788394E-002
           4   1.1328057855909067E-002
           5  0.10262612444521359     
           6  0.22326657814002163     
           7  -2.6723877528972401E-002
           8  -1.2122863344761562E-002
           9  0.61391723201202186     
          10  0.68171115256888515     
          11  -8.3055584567234650E-002
          12  -3.7408682417515368E-002
          13  -7.3472288689655968E-002
          14  -7.2356996042946042E-002
Sym=     8a
Ene=  -0.34091699795332431     
Spin= Alpha
Occup=     1.00000000
           1   1.6161422343060376E-005
           2  -2.1207471279163206E-004
           3  -2.2701144450817032E-002
           4   4.6818603600585769E-002
           5  -1.8651278069474776E-004
           6   2.9942051916257298E-003
           7  0.34656858696566650     
           8 -0.71468587397211725     
           9   2.8806628656513324E-006
          10  -2.4009034129596849E-003
          11 -0.26861774112490727     
          12  0.55396171548189010     
          13   5.3678001205370137E-005
          14   5.3616526824252872E-005
Sym=     9a
Ene=  -0.17547101529007472     
Spin= Alpha
Occup=     0.00000000
           1   9.2918695463218160E-004
           2 -0.10532872656714386     
           3 -0.71645462820112116     
           4 -0.34786827592166547     
           5  -1.9392473360563091E-004
           6  -5.3045039692843918E-003
           7  -3.1103709294224187E-002
           8  -1.5104614835012692E-002
           9   1.0723203115110675E-004
          10  0.10509932589278949     
          11  0.71739126835515199     
          12  0.34832146512411011     
          13 -0.22738147958967031     
          14  0.22716728903177194     
Sym=    10a
Ene=  -0.12764428237196865     
Spin= Alpha
Occup=     0.00000000
           1   1.4411652855945243E-004
           2   3.2463041574131470E-003
           3  0.37719674447727558     
           4 -0.77784072549624117     
           5   9.6253461004216587E-005
           6  -1.9979063687936330E-003
           7 -0.21844029704454637     
           8  0.45049631133770951     
           9   7.3928678822314807E-006
          10  -2.6553991391990057E-003
          11 -0.30600237532490654     
          12  0.63103296607601544     
          13  -7.0481462911953458E-005
          14  -7.0879955955080662E-005
Sym=    11a
Ene=   0.12895157558864154     
Spin= Alpha
Occup=     0.00000000
           1 -0.38067202643064024     
           2  0.13708322424168909     
           3  -1.5498602676529052E-002
           4  -6.9399665455818450E-003
           5   1.1172516996077702     
           6 -0.25972722590532149     
           7   2.6801106645129340E-002
           8   1.1599098037874289E-002
           9  0.11022763487039323     
          10 -0.23491341261638363     
          11   2.7732310883551197E-002
          12   1.2444716137532509E-002
          13 -0.71982311759070849     
          14 -0.71244431885822179     
Sym=    12a
Ene=   0.32049047634947070     
Spin= Alpha
Occup=     0.00000000
           1  -2.2484433007810254E-002
           2  -3.2520543296053570E-002
           3 -0.27071720970152602     
           4 -0.13141873969949736     
           5   9.1186620185373900E-003
           6  0.16997832764417153     
           7   1.0217278698042325     
           8  0.49617246888494343     
           9   5.3789822198450337E-003
          10   5.6075153552319007E-003
          11  0.10909047740020091     
          12   5.2925064619315350E-002
          13  0.84130622820964773     
          14 -0.83562910343182728     
Sym=    13a
Ene=   0.33162481664167975     
Spin= Alpha
Occup=     0.00000000
           1   1.0499908970450071     
           2 -0.31555442181584881     
           3   3.3780738245632644E-002
           4   1.5316127112004276E-002
           5 -0.13628569570457397     
           6 -0.99626842616863831     
           7  0.14176408748699593     
           8   6.4505956843479151E-002
           9 -0.24967495856339114     
          10  0.46739424392031714     
          11  -5.4339227502015086E-002
          12  -2.4442393971026537E-002
          13 -0.32054806625144727     
          14 -0.35455286239118455     
Sym=    14a
Ene=    1.2005984689685143     
Spin= Alpha
Occup=     0.00000000
           1 -0.47729027851497308     
           2  -1.4084779254948414     
           3  0.16935686271261355     
           4   7.6163698234142790E-002
           5 -0.48590509197703941     
           6 -0.53529651805372269     
           7   6.5470970259474154E-002
           8   2.9614337904746917E-002
           9  0.95627143658110103     
          10 -0.94197084617927973     
          11  0.11263110898900965     
          12   5.0511966568154043E-002
          13  -4.4741977866907291E-002
          14  -4.5222227325033865E-002
