5
 energy: -7.044838205322 gnorm: 0.210588220627 xtb: 6.2.2 (9d81278992624c895f80dd42a50cac0aa55982e2)
C         0.78364800000000   -0.41252800000000    0.61100000000000
C        -0.66407900000000   -0.05759600000000    0.31977400000000
C         1.67866600000000    0.01400400000000   -0.53765800000000
H        -1.01882100000000   -0.58421500000000   -0.59145200000000
H        -0.77941300000000    1.04033500000000    0.19833700000000
5
 energy: -7.100917580526 gnorm: 0.129490876755 xtb: 6.2.2 (9d81278992624c895f80dd42a50cac0aa55982e2)
C         0.76566730314303   -0.34779465919094    0.48329774258649
C        -0.62830875468069   -0.05316001758161    0.29980622486284
C         1.70462163372661   -0.03030904629904   -0.45437658157851
H        -1.04047488427436   -0.59515934046816   -0.55853631538172
H        -0.80150429791459    1.02642306353975    0.22980992951089
5
 energy: -7.139479914003 gnorm: 0.114501222805 xtb: 6.2.2 (9d81278992624c895f80dd42a50cac0aa55982e2)
C         0.71621023460157   -0.22930182995391    0.25455683468613
C        -0.59835598403526   -0.05471449436367    0.29392392021782
C         1.83863491857216   -0.10967617477388   -0.33174645711156
H        -1.09683090882204   -0.60784854147386   -0.49957596849650
H        -0.85965726031642    1.00154104056532    0.28284267070411
5
 energy: -7.160422370331 gnorm: 0.066595914642 xtb: 6.2.2 (9d81278992624c895f80dd42a50cac0aa55982e2)
C         0.77158462083544   -0.17357121855510    0.12313793279257
C        -0.56609700548521   -0.02901397650277    0.23128039382477
C         1.94211945996966   -0.17432892238265   -0.23012954575687
H        -1.19562335803524   -0.63817928859061   -0.46402064616083
H        -0.95198271728466    1.01509340603113    0.33973286530036
5
 energy: -7.167535720262 gnorm: 0.050431684973 xtb: 6.2.2 (9d81278992624c895f80dd42a50cac0aa55982e2)
C         0.77037306461343   -0.11479749109029    0.00261205693301
C        -0.59999904617742   -0.00610751546344    0.19443966679724
C         1.99053825393492   -0.21474748221793   -0.16166885674004
H        -1.20323396640346   -0.66531133673028   -0.42272862762925
H        -0.95767730596747    1.00096382550194    0.38734676063904
5
 energy: -7.150642026375 gnorm: 0.331313303399 xtb: 6.2.2 (9d81278992624c895f80dd42a50cac0aa55982e2)
C         0.77344774224611   -0.07939161896325   -0.07114854042776
C        -0.58101493883996    0.02538274707564    0.12391159812855
C         1.88440952527698   -0.23478616162280   -0.08827841912043
H        -1.16215985077680   -0.69525664160221   -0.39044738184877
H        -0.91468147790633    0.98405167511262    0.42596374326841
5
 energy: -7.170509216605 gnorm: 0.047370032242 xtb: 6.2.2 (9d81278992624c895f80dd42a50cac0aa55982e2)
C         0.76293492790065   -0.06094461641757   -0.10590641916857
C        -0.55664026278560    0.04444885189284    0.07730523261860
C         1.96606871549498   -0.25543618543394   -0.07055570013858
H        -1.21294439650557   -0.72420835349989   -0.36860265578228
H        -0.95941798410446    0.99614030345856    0.46776054247083
5
 energy: -7.170000141151 gnorm: 0.045539658624 xtb: 6.2.2 (9d81278992624c895f80dd42a50cac0aa55982e2)
C         0.77068290619487   -0.09152305401767   -0.04535533512941
C        -0.59079497740888    0.01459802586698    0.14905998149980
C         1.98970403992479   -0.23285700860841   -0.12416756814942
H        -1.20461740777645   -0.65819080740990   -0.38505582323468
H        -0.96497356093434    0.96797284416900    0.40551974501371
5
 energy: -7.172345500614 gnorm: 0.012875764246 xtb: 6.2.2 (9d81278992624c895f80dd42a50cac0aa55982e2)
C         0.77678496175096   -0.08394314430440   -0.06279870137672
C        -0.56831120780751    0.03405887718411    0.10221491518922
C         1.98373143311958   -0.24309073431779   -0.10130346650016
H        -1.21884943566980   -0.68643706994681   -0.37398964396892
H        -0.97335475139323    0.97941207138490    0.43587789665659
5
 energy: -7.172680185298 gnorm: 0.013263268281 xtb: 6.2.2 (9d81278992624c895f80dd42a50cac0aa55982e2)
C         0.77735688784246   -0.08251963382770   -0.06589546062065
C        -0.56502202860743    0.04332806348644    0.08215161349843
C         1.98312520170678   -0.24532298476124   -0.09653527778911
H        -1.22069706276568   -0.69217830048591   -0.36552994143353
H        -0.97476199817613    0.97669285558842    0.44581006634487
5
 energy: -7.173162371421 gnorm: 0.009578308860 xtb: 6.2.2 (9d81278992624c895f80dd42a50cac0aa55982e2)
C         0.77864560668670   -0.08762289993286   -0.05583087865052
C        -0.56406236555284    0.06045428299292    0.04663446922902
C         1.98517239743613   -0.24413606155089   -0.09953395123842
H        -1.22276620895437   -0.69810243443466   -0.35095884630357
H        -0.97698842961563    0.96940711292550    0.45969020696349
5
 energy: -7.173293114751 gnorm: 0.001941373407 xtb: 6.2.2 (9d81278992624c895f80dd42a50cac0aa55982e2)
C         0.77798785546729   -0.09303234146742   -0.04419895269128
C        -0.56706606776189    0.06767931538908    0.03267288761513
C         1.98599164650045   -0.24093192123813   -0.10682708937072
H        -1.22083200493032   -0.69817099318579   -0.34506588727777
H        -0.97608042927553    0.96445594050226    0.46342004172465
5
 energy: -7.173294907754 gnorm: 0.001583826830 xtb: 6.2.2 (9d81278992624c895f80dd42a50cac0aa55982e2)
C         0.77757659361686   -0.09549330443010   -0.04177746113634
C        -0.56832312147204    0.06913472515328    0.03016898893965
C         1.98619029275914   -0.23837782586267   -0.10808259840958
H        -1.22134601171245   -0.69821036973410   -0.34309174652266
H        -0.97409675319150    0.96294677487359    0.46278381712893
5
 energy: -7.173281054317 gnorm: 0.004817672800 xtb: 6.2.2 (9d81278992624c895f80dd42a50cac0aa55982e2)
C         0.77827592235720   -0.09109171659474   -0.03918752225951
C        -0.56856424413439    0.06921249376883    0.02958947869939
C         1.98518218106169   -0.24496436292144   -0.11156396017450
H        -1.21514520383190   -0.69616845725076   -0.34593212038606
H        -0.97974765545259    0.96301204299811    0.46709512412068
5
 energy: -7.173295239035 gnorm: 0.001573711640 xtb: 6.2.2 (9d81278992624c895f80dd42a50cac0aa55982e2)
C         0.77805716009894   -0.09285189663987   -0.04164804085435
C        -0.56799614241801    0.06871639319213    0.03069918503954
C         1.98570018165452   -0.24193722960015   -0.10897087142791
H        -1.21870184373283   -0.69745474504413   -0.34488954659542
H        -0.97705835560263    0.96352747809202    0.46481027383814
5
 energy: -7.173296501629 gnorm: 0.000750137863 xtb: 6.2.2 (9d81278992624c895f80dd42a50cac0aa55982e2)
C         0.77774674042105   -0.09458689763106   -0.04265734810069
C        -0.56788476361149    0.06862153742569    0.03102883624727
C         1.98609925647969   -0.23929978632211   -0.10760856684836
H        -1.22117922454930   -0.69822149346059   -0.34380041990413
H        -0.97478100873995    0.96348663998807    0.46303849860592
