      -----------------------------------------------------------      
     |                   =====================                   |     
     |                           x T B                           |     
     |                   =====================                   |     
     |                         S. Grimme                         |     
     |          Mulliken Center for Theoretical Chemistry        |     
     |                    University of Bonn                     |     
      -----------------------------------------------------------      

   * xtb version 6.2.2 (9d81278992624c895f80dd42a50cac0aa55982e2) compiled by '@Darwin' on 04/03/2020

   xtb is free software: you can redistribute it and/or modify it under
   the terms of the GNU Lesser General Public License as published by
   the Free Software Foundation, either version 3 of the License, or
   (at your option) any later version.
   
   xtb is distributed in the hope that it will be useful,
   but WITHOUT ANY WARRANTY; without even the implied warranty of
   MERCHANTABILITY or FITNESS FOR A PARTICULAR PURPOSE.  See the
   GNU Lesser General Public License for more details.
   
   Cite this work as:
   * S. Grimme, C. Bannwarth, P. Shushkov, J. Chem. Theory Comput., 2017,
     13, 1989-2009. DOI: 10.1021/acs.jctc.7b00118
   * C. Bannwarth, S. Ehlert and S. Grimme., J. Chem. Theory Comput., 2019,
     15, 1652-1671. DOI: 10.1021/acs.jctc.8b01176
   * P. Pracht, E. Caldeweyher, S. Ehlert, S. Grimme, ChemRxiv, 2019, preprint.
     DOI: 10.26434/chemrxiv.8326202.v1
   
   for DFT-D4:
   * E. Caldeweyher, C. Bannwarth and S. Grimme, J. Chem. Phys., 2017,
     147, 034112. DOI: 10.1063/1.4993215
   * E. Caldeweyher, S. Ehlert, A. Hansen, H. Neugebauer, S. Spicher,
     C. Bannwarth and S. Grimme, J. Chem. Phys., 2019, 150, 154122.
     DOI: 10.1063/1.5090222
   
   for sTDA-xTB:
   * S. Grimme and C. Bannwarth, J. Chem. Phys., 2016, 145, 054103.
     DOI: 10.1063/1.4959605
   
   in the mass-spec context:
   * V. Asgeirsson, C. Bauer and S. Grimme, Chem. Sci., 2017, 8, 4879.
     DOI: 10.1039/c7sc00601b
   
   for metadynamics refer to:
   * S. Grimme, J. Chem. Theory Comput., 2019, 155, 2847-2862
     DOI: 10.1021/acs.jctc.9b00143
   
   with help from (in alphabetical order)
   C. Bannwarth, F. Bohle, G. Brandenburg, E. Caldeweyher, M. Checinski,
   S. Dohm, S. Ehlert, S. Ehrlich, F. März, H. Neugebauer, J. Pisarek,
   P. Pracht, P. Shushkov, and S. Spicher.
   
 * started run on 2020/05/13 at 16:22:22.349     

           -------------------------------------------------
          |                Calculation Setup                |
           -------------------------------------------------

          program call               : xtb --input N2_0_S_2.input N2_0_S_2.xyz --ohess --molden --namespace N2_0_S_2 output.out
          calculation namespace      : N2_0_S_2
          coordinate file            : N2_0_S_2.xyz
          number of atoms            :                     2
          number of electrons        :                    10
          charge                     :                     0
          spin                       :                   1.0
          first test random number   :      0.85831406207185

   ID    Z sym.   atoms
    1    7 N      1, 2

           -------------------------------------------------
          |                 G F N 2 - x T B                 |
           -------------------------------------------------

        Reference                      10.1021/acs.jctc.8b01176
      * Hamiltonian:
        H0-scaling (s, p, d)           1.850000    2.230000    2.230000
        zeta-weighting                 0.500000
      * Dispersion:
        s8                             2.700000
        a1                             0.520000
        a2                             5.000000
        s9                             5.000000
      * Repulsion:
        kExp                           1.500000    1.000000
        rExp                           1.000000
      * Coulomb:
        alpha                          2.000000
        third order                    shell-resolved
        anisotropic                    true
        a3                             3.000000
        a5                             4.000000
        cn-shift                       1.200000
        cn-exp                         4.000000
        max-rad                        5.000000


          ...................................................
          :                      SETUP                      :
          :.................................................:
          :  # basis functions                   8          :
          :  # atomic orbitals                   8          :
          :  # shells                            4          :
          :  # electrons                        10          :
          :  max. iterations                   250          :
          :  Hamiltonian                  GFN2-xTB          :
          :  restarted?                      false          :
          :  GBSA solvation                  false          :
          :  PC potential                    false          :
          :  electronic temp.          300.0000000     K    :
          :  accuracy                    1.0000000          :
          :  -> integral cutoff          0.2500000E+02      :
          :  -> integral neglect         0.1000000E-07      :
          :  -> SCF convergence          0.1000000E-05 Eh   :
          :  -> wf. convergence          0.1000000E-03 e    :
          :  Broyden damping             0.4000000          :
          ...................................................

 iter      E             dE          RMSdq      gap      omega  full diag
   1     -5.5379109 -0.553791E+01  0.501E+00    0.00       0.0  T
   2     -5.5392028 -0.129189E-02  0.289E+00    0.00       1.0  T
   3     -5.5397162 -0.513405E-03  0.729E-01    0.00       1.0  T
   4     -5.5397404 -0.242150E-04  0.156E-01    0.00       1.0  T
   5     -5.5397460 -0.560028E-05  0.934E-02    0.00       1.0  T
   6     -5.5397493 -0.324393E-05  0.307E-03    0.00      23.0  T
   7     -5.5397493 -0.347262E-08  0.109E-04    0.00     647.3  T
   8     -5.5397493 -0.349853E-11  0.605E-06    0.00   11680.4  T

   *** convergence criteria satisfied after 8 iterations ***

         #    Occupation            Energy/Eh            Energy/eV
      -------------------------------------------------------------
         1        2.0000           -0.6571726             -17.8826
         2        2.0000           -0.5878546             -15.9963
         3        1.9837           -0.5156709             -14.0321
         4        1.9837           -0.5156709             -14.0321
         5        1.0326           -0.5085545             -13.8385
         6        0.5000           -0.3888425             -10.5809 (HOMO)
         7        0.5000           -0.3888425             -10.5809 (LUMO)
         8                         -0.0226055              -0.6151
      -------------------------------------------------------------
                  HL-Gap            0.0000000 Eh            0.0000 eV
             Fermi-level           -0.4503090 Eh          -12.2535 eV

 transition dipole moment (au) for excitation:           5           6
     X       Y       Z   
  -0.0000   0.0000  -0.0000  total (au/Debye):    0.000   0.000
 dE (eV)             :    3.258
 oscillator strength :  0.17589E-25

 SCC (total)                   0 d,  0 h,  0 min,  0.001 sec
 SCC setup                      ...        0 min,  0.000 sec (  5.853%)
 Dispersion                     ...        0 min,  0.000 sec (  0.501%)
 integral evaluation            ...        0 min,  0.000 sec ( 26.934%)
 zeroth order Hamiltonian       ...        0 min,  0.000 sec (  1.243%)
 iterations                     ...        0 min,  0.000 sec ( 34.824%)
 molecular gradient             ...        0 min,  0.000 sec ( 13.829%)
 printout                       ...        0 min,  0.000 sec ( 14.986%)

         :::::::::::::::::::::::::::::::::::::::::::::::::::::
         ::                     SUMMARY                     ::
         :::::::::::::::::::::::::::::::::::::::::::::::::::::
         :: total energy              -5.532304188965 Eh    ::
         :: gradient norm              0.327895311063 Eh/a0 ::
         :: HOMO-LUMO gap              0.000000000004 eV    ::
         ::.................................................::
         :: SCC energy                -5.539749292829 Eh    ::
         :: -> isotropic ES            0.000171072205 Eh    ::
         :: -> anisotropic ES          0.001190657886 Eh    ::
         :: -> anisotropic XC          0.006559893878 Eh    ::
         :: -> dispersion             -0.000255654277 Eh    ::
         :: repulsion energy           0.007445103883 Eh    ::
         :: add. restraining           0.000000000000 Eh    ::
         :::::::::::::::::::::::::::::::::::::::::::::::::::::

      ----------------------------------------------------------- 
     |                   =====================                   |
     |                        A N C O P T                        |
     |                   =====================                   |
     |               Approximate Normal Coordinate               |
     |                Rational Function Optimizer                |
      ----------------------------------------------------------- 

          ...................................................
          :                      SETUP                      :
          :.................................................:
          :   optimization level            normal          :
          :   max. optcycles                   200          :
          :   ANC micro-cycles                  20          :
          :   degrees of freedom                 1          :
          :.................................................:
          :   RF solver                   davidson          :
          :   write xtbopt.log                true          :
          :   linear (good luck)              true          :
          :   energy convergence         0.5000000E-05 Eh   :
          :   grad. convergence          0.1000000E-02 Eh/α :
          :   maximium RF displ.         1.0000000          :
          :   Hlow (freq-cutoff)         0.1000000E-01      :
          :   Hmax (freq-cutoff)         5.0000000          :
          :   S6 in model hess.         20.0000000          :
          ...................................................

generating ANC from model Hessian ...
Using Lindh-Hessian (1995)
 Shifting diagonal of input Hessian by    9.9869923180113482E-003
 Lowest  eigenvalues of input Hessian
   -0.000000    0.000000    0.000000    0.010000    0.010000    1.141392
 Highest eigenvalues
   -0.000000    0.000000    0.000000    0.010000    0.010000    1.141392


........................................................................
.............................. CYCLE    1 ..............................
........................................................................
   1     -5.5397493 -0.553975E+01  0.245E-08    0.00       0.0  T
   2     -5.5397493  0.888178E-14  0.678E-09    0.00  100000.0  T
   3     -5.5397493 -0.159872E-13  0.148E-09    0.00  100000.0  T
     SCC iter.                  ...        0 min,  0.000 sec
     gradient                   ...        0 min,  0.000 sec
 * total energy  :    -5.5323042 Eh     change       -0.1598721E-13 Eh
   gradient norm :     0.3278953 Eh/α   predicted     0.0000000E+00 (-100.00%)
   displ. norm   :     0.2668241 α      lambda       -0.8749036E-01
   maximum displ.:     0.2668241 α      in ANC's #1, #1, #1, ...

........................................................................
.............................. CYCLE    2 ..............................
........................................................................
   1     -5.6403137 -0.564031E+01  0.240E+00    0.00       0.0  T
   2     -5.6404768 -0.163108E-03  0.140E+00    0.00       1.0  T
   3     -5.6405469 -0.701760E-04  0.834E-02    0.00       1.0  T
   4     -5.6405471 -0.168610E-06  0.966E-03    0.00       7.3  T
   5     -5.6405471 -0.379282E-08  0.111E-03    0.00      64.0  T
   6     -5.6405471 -0.120538E-09  0.858E-06    0.00    8243.5  T
   7     -5.6405471 -0.888178E-14  0.283E-06    0.00   24952.7  T
     SCC iter.                  ...        0 min,  0.000 sec
     gradient                   ...        0 min,  0.000 sec
 * total energy  :    -5.6019189 Eh     change       -0.6961473E-01 Eh
   gradient norm :     0.1229551 Eh/α   predicted    -0.4685962E-01 ( -32.69%)
   displ. norm   :     0.1561781 α      lambda       -0.1920289E-01
   maximum displ.:     0.1561781 α      in ANC's #1, #1, #1, ...

........................................................................
.............................. CYCLE    3 ..............................
........................................................................
   1     -5.6892930 -0.568929E+01  0.157E+00    0.00       0.0  T
   2     -5.6893386 -0.455608E-04  0.926E-01    0.00       1.0  T
   3     -5.6893604 -0.217587E-04  0.431E-02    0.00       1.6  T
   4     -5.6893604 -0.276507E-07  0.443E-03    0.00      16.0  T
   5     -5.6893604 -0.340135E-09  0.111E-03    0.00      63.6  T
   6     -5.6893604  0.110749E-09  0.999E-04    0.00      70.8  T
   7     -5.6893604 -0.407440E-09  0.103E-06    0.00   68578.3  T
     SCC iter.                  ...        0 min,  0.000 sec
     gradient                   ...        0 min,  0.000 sec
 * total energy  :    -5.5923076 Eh     change        0.9611362E-02 Eh
   gradient norm :     0.3066136 Eh/α   predicted    -0.9835640E-02 (-202.33%)
   displ. norm   :     0.1101235 α      lambda       -0.3376535E-01
   maximum displ.:     0.1101235 α      in ANC's #1, #1, #1, ...

........................................................................
.............................. CYCLE    4 ..............................
........................................................................
   1     -5.6563939 -0.565639E+01  0.110E+00    0.00       0.0  T
   2     -5.6564220 -0.281435E-04  0.644E-01    0.00       1.0  T
   3     -5.6564358 -0.137928E-04  0.358E-02    0.00       2.0  T
   4     -5.6564359 -0.267699E-07  0.135E-03    0.00      52.2  T
   5     -5.6564359 -0.753158E-10  0.548E-04    0.00     129.0  T
   6     -5.6564359 -0.264855E-10  0.983E-06    0.00    7197.0  T
     SCC iter.                  ...        0 min,  0.000 sec
     gradient                   ...        0 min,  0.000 sec
 * total energy  :    -5.6055839 Eh     change       -0.1327630E-01 Eh
   gradient norm :     0.0321786 Eh/α   predicted    -0.1708741E-01 (  28.71%)
   displ. norm   :     0.0104584 α      lambda       -0.3365395E-03
   maximum displ.:     0.0104584 α      in ANC's #1, #1, #1, ...

........................................................................
.............................. CYCLE    5 ..............................
........................................................................
   1     -5.6599025 -0.565990E+01  0.104E-01    0.00       0.0  T
   2     -5.6599027 -0.259025E-06  0.608E-02    0.00       1.2  T
   3     -5.6599028 -0.123131E-06  0.337E-03    0.00      21.0  T
   4     -5.6599028  0.136670E-08  0.180E-03    0.00      39.2  T
   5     -5.6599028 -0.165452E-08  0.171E-04    0.00     414.6  T
   6     -5.6599028 -0.111990E-10  0.439E-05    0.00    1611.6  T
     SCC iter.                  ...        0 min,  0.000 sec
     gradient                   ...        0 min,  0.000 sec
 * total energy  :    -5.6057953 Eh     change       -0.2114424E-03 Eh
   gradient norm :     0.0080193 Eh/α   predicted    -0.1682869E-03 ( -20.41%)
   displ. norm   :     0.0034715 α      lambda       -0.2783727E-04
   maximum displ.:     0.0034715 α      in ANC's #1, #1, #1, ...

........................................................................
.............................. CYCLE    6 ..............................
........................................................................
   1     -5.6610405 -0.566104E+01  0.344E-02    0.00       0.0  T
   2     -5.6610406 -0.281902E-07  0.202E-02    0.00       3.5  T
   3     -5.6610406 -0.134587E-07  0.111E-03    0.00      64.0  T
   4     -5.6610406  0.699085E-11  0.250E-04    0.00     283.2  T
   5     -5.6610406 -0.318581E-10  0.337E-05    0.00    2095.7  T
     SCC iter.                  ...        0 min,  0.000 sec
     gradient                   ...        0 min,  0.000 sec
 * total energy  :    -5.6058087 Eh     change       -0.1341644E-04 Eh
   gradient norm :     0.0003174 Eh/α   predicted    -0.1391946E-04 (   3.75%)
   displ. norm   :     0.0001983 α      lambda       -0.4118388E-07
   maximum displ.:     0.0001983 α      in ANC's #1, #1, #1, ...

........................................................................
.............................. CYCLE    7 ..............................
........................................................................
   1     -5.6609758 -0.566098E+01  0.197E-03    0.00       0.0  T
   2     -5.6609758 -0.852776E-10  0.117E-03    0.00      60.7  T
   3     -5.6609758  0.193795E-09  0.697E-04    0.00     101.4  T
   4     -5.6609758 -0.249419E-09  0.527E-05    0.00    1342.3  T
     SCC iter.                  ...        0 min,  0.000 sec
     gradient                   ...        0 min,  0.000 sec
 * total energy  :    -5.6058087 Eh     change       -0.1523577E-07 Eh
   gradient norm :     0.0001637 Eh/α   predicted    -0.2098059E-07 (  37.71%)
   displ. norm   :     0.0000675 α      lambda       -0.5549303E-08
   maximum displ.:     0.0000675 α      in ANC's #1, #1, #1, ...

   *** GEOMETRY OPTIMIZATION CONVERGED AFTER 7 ITERATIONS ***

------------------------------------------------------------------------
 total energy gain   :        -0.0735045 Eh      -46.1248 kcal/mol
 total RMSD          :         0.2309483 a0        0.1222 Å
 total power (kW/mol):       -27.5694484 (step)********** (real)
------------------------------------------------------------------------

 ANCopt (total)                0 d,  0 h,  0 min,  0.006 sec
 optimizer setup                ...        0 min,  0.000 sec (  0.810%)
 model hessian                  ...        0 min,  0.000 sec (  0.240%)
 ANC generation                 ...        0 min,  0.000 sec (  0.403%)
 coordinate transformation      ...        0 min,  0.000 sec (  0.529%)
 single point calculation       ...        0 min,  0.006 sec ( 89.301%)
 optimization log               ...        0 min,  0.000 sec (  2.283%)
 hessian update                 ...        0 min,  0.000 sec (  0.738%)
 rational function              ...        0 min,  0.000 sec (  2.165%)

================
 final structure:
================
2
 xtb: 6.2.2 (9d81278992624c895f80dd42a50cac0aa55982e2)
N         0.57778739183025    0.00000000000000    0.00000000000000
N        -0.57778739183025   -0.00000000000000    0.00000000000000

 Bond Distances (Angstroems)
 ---------------------------
N1-N2=1.1556         N2-N1=1.1556         
 N  N  Rav=1.1556 sigma=0.0000  Rmin=1.1556  Rmax=1.1556     1

 selected bond angles (degree)
 --------------------


 selected dihedral angles (degree)
 ---------------------------------

           -------------------------------------------------
          |                Final Singlepoint                |
           -------------------------------------------------

          ...................................................
          :                      SETUP                      :
          :.................................................:
          :  # basis functions                   8          :
          :  # atomic orbitals                   8          :
          :  # shells                            4          :
          :  # electrons                        10          :
          :  max. iterations                   250          :
          :  Hamiltonian                  GFN2-xTB          :
          :  restarted?                      false          :
          :  GBSA solvation                  false          :
          :  PC potential                    false          :
          :  electronic temp.          300.0000000     K    :
          :  accuracy                    1.0000000          :
          :  -> integral cutoff          0.2500000E+02      :
          :  -> integral neglect         0.1000000E-07      :
          :  -> SCF convergence          0.1000000E-05 Eh   :
          :  -> wf. convergence          0.1000000E-03 e    :
          :  Broyden damping             0.4000000          :
          ...................................................

 iter      E             dE          RMSdq      gap      omega  full diag
   1     -5.6609758 -0.566098E+01  0.251E-05    0.00       0.0  T
   2     -5.6609758  0.417444E-12  0.374E-05    0.00    1889.0  T
   3     -5.6609758 -0.737188E-12  0.157E-06    0.00   44956.3  T

   *** convergence criteria satisfied after 3 iterations ***

         #    Occupation            Energy/Eh            Energy/eV
      -------------------------------------------------------------
         1        2.0000           -0.6990658             -19.0225
         2        2.0000           -0.5848225             -15.9138
         3        2.0000           -0.5508396             -14.9891
         4        2.0000           -0.5508396             -14.9891
         5        1.0000           -0.4802206             -13.0675
         6        0.5000           -0.3127830              -8.5113 (HOMO)
         7        0.5000           -0.3127830              -8.5113 (LUMO)
         8                          0.5354281              14.5697
      -------------------------------------------------------------
                  HL-Gap            0.0000000 Eh            0.0000 eV
             Fermi-level           -0.4141565 Eh          -11.2698 eV

 transition dipole moment (au) for excitation:           5           6
     X       Y       Z   
  -0.0000   0.0000   0.0000  total (au/Debye):    0.000   0.000
 dE (eV)             :    4.556
 oscillator strength :  0.83202E-19

 SCC (total)                   0 d,  0 h,  0 min,  0.001 sec
 SCC setup                      ...        0 min,  0.000 sec (  9.212%)
 Dispersion                     ...        0 min,  0.000 sec (  0.398%)
 integral evaluation            ...        0 min,  0.000 sec ( 25.738%)
 zeroth order Hamiltonian       ...        0 min,  0.000 sec (  0.375%)
 iterations                     ...        0 min,  0.000 sec ( 11.205%)
 molecular gradient             ...        0 min,  0.000 sec ( 14.698%)
 printout                       ...        0 min,  0.000 sec ( 37.482%)

         :::::::::::::::::::::::::::::::::::::::::::::::::::::
         ::                     SUMMARY                     ::
         :::::::::::::::::::::::::::::::::::::::::::::::::::::
         :: total energy              -5.605808727203 Eh    ::
         :: gradient norm              0.000163374022 Eh/a0 ::
         :: HOMO-LUMO gap              0.000000003408 eV    ::
         ::.................................................::
         :: SCC energy                -5.660975772809 Eh    ::
         :: -> isotropic ES            0.000001896650 Eh    ::
         :: -> anisotropic ES          0.000677601494 Eh    ::
         :: -> anisotropic XC          0.005336922220 Eh    ::
         :: -> dispersion             -0.000255697086 Eh    ::
         :: repulsion energy           0.055167045626 Eh    ::
         :: add. restraining           0.000000000000 Eh    ::
         :::::::::::::::::::::::::::::::::::::::::::::::::::::

           ------------------------------------------------- 
          |                Numerical Hessian                |
           ------------------------------------------------- 
step length          :   0.00500
SCC accuracy         :   0.30000
Hessian scale factor :   1.00000
frozen atoms in %    :   0.00000    0
RMS gradient         :   0.00016

writing file <hessian>.

 vibrational frequencies (cm-1)
eigval :        0.00     0.00     0.00     0.00     0.00  2137.76
           -------------------------------------------------
          |                Property Printout                |
           -------------------------------------------------

    * Orbital Energies and Occupations

         #    Occupation            Energy/Eh            Energy/eV
      -------------------------------------------------------------
         1        2.0000           -0.6990658             -19.0225
Molecule has the following symmetry elements: (i) (Cinf) (C2) 2*(sigma) 
It seems to be the Dinfh point group
         2        2.0000           -0.5848225             -15.9138
         3        2.0000           -0.5508396             -14.9891
         4        2.0000           -0.5508396             -14.9891
         5        1.0000           -0.4802206             -13.0675
         6        0.5000           -0.3127830              -8.5113 (HOMO)
         7        0.5000           -0.3127830              -8.5113 (LUMO)
         8                          0.5354281              14.5697
      -------------------------------------------------------------
                  HL-Gap            0.0000000 Eh            0.0000 eV
             Fermi-level           -0.4141565 Eh          -11.2698 eV

     #   Z        covCN         q      C6AA      α(0)
     1   7 N      0.981    -0.000    20.943     6.584
     2   7 N      0.981     0.000    20.943     6.584

 Mol. C6AA /au·bohr⁶  :         83.773583
 Mol. C8AA /au·bohr⁸  :       1848.112564
 Mol. α(0) /au        :         13.167644


Wiberg/Mayer (AO) data.
largest (>0.10) Wiberg bond orders for each atom
          total WBO             WBO to atom ...
     1  N   2.188        N    2 2.188
     2  N   2.188        N    1 2.188

MOs/occ written to file <molden.input>


molecular dipole:
                 x           y           z       tot (Debye)
 q only:       -0.000       0.000       0.000
   full:       -0.000       0.000       0.000       0.000
molecular quadrupole (traceless):
                xx          xy          yy          xz          yz          zz
 q only:       -0.000       0.000       0.000       0.000      -0.000       0.000
  q+dip:        0.547      -0.000      -0.273      -0.000       0.000      -0.273
   full:        0.019      -0.000      -0.009      -0.000       0.000      -0.009

           -------------------------------------------------
          |                Geometry Summary                 |
           -------------------------------------------------

      molecular mass/u    :       28.0134064
   center of mass at/Å    :        0.0000000      -0.0000000       0.0000000
  moments of inertia/u·Å² :       -0.1397148E-14   0.9351947E+01   0.9351947E+01
rotational constants/cm⁻¹ :       -0.1206575E+17   0.1802580E+01   0.1802580E+01

 * 1 selected distances

     #   Z        #   Z                                     value/Å
     0 *** --     0 *** --                                0.0000000 (max)

 * 0 distinct bonds (by element types)

   Z      Z             #   av. dist./Å        max./Å        min./Å

           -------------------------------------------------
          |               Frequency Printout                |
           -------------------------------------------------
 vibrational frequencies (cm-1)
eigval :        0.00     0.00     0.00     0.00     0.00  2137.76
 reduced masses (amu)
   1: 14.01   2: 14.01   3: 14.01   4: 14.01   5: 14.01   6: 14.01
 IR intensities (amu)
   1:  0.00   2:  0.00   3:  0.00   4:  0.00   5:  0.00   6:  0.00
 Raman intensities (amu)
   1:  0.00   2:  0.00   3:  0.00   4:  0.00   5:  0.00   6:  0.00
 output can be read by thermo (or use thermo option).
 writing <g98.out> molden fake output.
 recommended (thermochemical) frequency scaling factor: 1.0
           -------------------------------------------------
          |             Thermodynamic Functions             |
           -------------------------------------------------

din symmetry found (for desy threshold:  0.10E+00) used in thermo

          ...................................................
          :                      SETUP                      :
          :.................................................:
          :  # frequencies                           1      :
          :  # imaginary freq.                       0      :
          :  linear?                              true      :
          :  only rotor calc.                    false      :
          :  symmetry                              din      :
          :  rotational number                       2      :
          :  scaling factor                  1.0000000      :
          :  rotor cutoff                   50.0000000 cm⁻¹ :
          :  imag. cutoff                  -20.0000000 cm⁻¹ :
          :.................................................:

    mode    ω/cm⁻¹     T·S(HO)/kcal·mol⁻¹    T·S(FR)/kcal·mol⁻¹   T·S(vib)
   ------------------------------------------------------------------------
   ------------------------------------------------------------------------

   temp. (K)  partition function   enthalpy   heat capacity  entropy
                                   cal/mol     cal/K/mol   cal/K/mol   J/K/mol
 298.15  VIB   1.00                    0.202      0.007      0.001
         ROT   57.5                  592.502      1.987     10.039
         INT   57.5                  592.704      1.994     10.039
         TR   0.143E+27             1481.254      4.968     35.909
         TOT                        2073.9578     6.9624    45.9480   192.2462

   temp. (K)  partition function   enthalpy   heat capacity  entropy
                                   cal/mol     cal/K/mol   cal/K/mol   J/K/mol
 120.00  VIB   1.00                    0.000      0.000     -0.000
         ROT   23.1                  238.471      1.987      8.230
         INT   23.1                  238.471      1.987      8.230
         TR   0.366E+26              596.178      4.968     31.389
         TOT                         834.6492     6.9554    39.6193   165.7670

   temp. (K)  partition function   enthalpy   heat capacity  entropy
                                   cal/mol     cal/K/mol   cal/K/mol   J/K/mol
 100.00  VIB   1.00                    0.000      0.000     -0.000
         ROT   19.3                  198.726      1.987      7.868
         INT   19.3                  198.726      1.987      7.868
         TR   0.279E+26              496.815      4.968     30.484
         TOT                         695.5410     6.9554    38.3516   160.4630

   temp. (K)  partition function   enthalpy   heat capacity  entropy
                                   cal/mol     cal/K/mol   cal/K/mol   J/K/mol
  80.00  VIB   1.00                    0.000      0.000     -0.000
         ROT   15.4                  158.981      1.987      7.424
         INT   15.4                  158.981      1.987      7.424
         TR   0.199E+26              397.452      4.968     29.376
         TOT                         556.4328     6.9554    36.8001   153.9715

   temp. (K)  partition function   enthalpy   heat capacity  entropy
                                   cal/mol     cal/K/mol   cal/K/mol   J/K/mol
  60.00  VIB   1.00                    0.000      0.000     -0.000
         ROT   11.6                  119.236      1.987      6.852
         INT   11.6                  119.236      1.987      6.852
         TR   0.130E+26              298.089      4.968     27.947
         TOT                         417.3246     6.9554    34.7998   145.6025

   temp. (K)  partition function   enthalpy   heat capacity  entropy
                                   cal/mol     cal/K/mol   cal/K/mol   J/K/mol
  40.00  VIB   1.00                    0.000      0.000     -0.000
         ROT   7.71                   79.490      1.987      6.047
         INT   7.71                   79.490      1.987      6.047
         TR   0.705E+25              198.726      4.968     25.934
         TOT                         278.2164     6.9554    31.9806   133.8070

   temp. (K)  partition function   enthalpy   heat capacity  entropy
                                   cal/mol     cal/K/mol   cal/K/mol   J/K/mol
  20.00  VIB   1.00                    0.000      0.000     -0.000
         ROT   3.86                   39.745      1.987      4.669
         INT   3.86                   39.745      1.987      4.669
         TR   0.249E+25               99.363      4.968     22.492
         TOT                         139.1082     6.9554    27.1612   113.6424

   temp. (K)  partition function   enthalpy   heat capacity  entropy
                                   cal/mol     cal/K/mol   cal/K/mol   J/K/mol
  10.00  VIB   1.00                    0.000      0.000     -0.000
         ROT   1.93                   19.873      1.987      3.292
         INT   1.93                   19.873      1.987      3.292
         TR   0.881E+24               49.681      4.968     19.050
         TOT                          69.5541     6.9554    22.3418    93.4779

       T/K    H(0)-H(T)+PV         H(T)/Eh          T*S/Eh         G(T)/Eh
   ------------------------------------------------------------------------
    298.15    0.330506E-02    0.817524E-02    0.218314E-01   -0.136561E-01
    120.00    0.133010E-02    0.620028E-02    0.757648E-02   -0.137620E-02
    100.00    0.110842E-02    0.597860E-02    0.611171E-02   -0.133119E-03
     80.00    0.886732E-03    0.575691E-02    0.469157E-02    0.106534E-02
     60.00    0.665049E-03    0.553523E-02    0.332742E-02    0.220781E-02
     40.00    0.443366E-03    0.531355E-02    0.203858E-02    0.327497E-02
     20.00    0.221683E-03    0.509186E-02    0.865682E-03    0.422618E-02
     10.00    0.110842E-03    0.498102E-02    0.356038E-03    0.462498E-02 (used)
   ------------------------------------------------------------------------

         :::::::::::::::::::::::::::::::::::::::::::::::::::::
         ::                  THERMODYNAMIC                  ::
         :::::::::::::::::::::::::::::::::::::::::::::::::::::
         :: total free energy          -5.601183743690 Eh   ::
         ::.................................................::
         :: total energy               -5.605808727203 Eh   ::
         :: zero point energy           0.004870180484 Eh   ::
         :: G(RRHO) w/o ZPVE           -0.000245196971 Eh   ::
         :: G(RRHO) contrib.            0.004624983513 Eh   ::
         :::::::::::::::::::::::::::::::::::::::::::::::::::::

optimized geometry written to: xtbopt.xyz


           -------------------------------------------------
          | TOTAL ENERGY               -5.605808727203 Eh   |
          | TOTAL ENTHALPY             -5.600827705206 Eh   |
          | TOTAL FREE ENERGY          -5.601183743690 Eh   |
          | GRADIENT NORM               0.000163384800 Eh/α |
          | HOMO-LUMO GAP               0.000000002678 eV   |
           -------------------------------------------------

------------------------------------------------------------------------
 * finished run on 2020/05/13 at 16:22:22.384     
------------------------------------------------------------------------
 total:
 * wall-time:     0 d,  0 h,  0 min,  0.034 sec
 *  cpu-time:     0 d,  0 h,  0 min,  0.034 sec
 * ratio c/w:     0.996 speedup
 SCF:
 * wall-time:     0 d,  0 h,  0 min,  0.001 sec
 *  cpu-time:     0 d,  0 h,  0 min,  0.001 sec
 * ratio c/w:     0.987 speedup
 ANC optimizer:
 * wall-time:     0 d,  0 h,  0 min,  0.008 sec
 *  cpu-time:     0 d,  0 h,  0 min,  0.008 sec
 * ratio c/w:     0.998 speedup
 numerical hessian:
 * wall-time:     0 d,  0 h,  0 min,  0.010 sec
 *  cpu-time:     0 d,  0 h,  0 min,  0.010 sec
 * ratio c/w:     0.995 speedup

