$hessian                                                                        
        1.2112007629  -0.0000047543  -0.0000031695  -1.2112007629   0.0000047543
        0.0000031695
       -0.0000047543   0.0000667752  -0.0000000063   0.0000047543  -0.0000667752
        0.0000000063
       -0.0000031695  -0.0000000063   0.0000667768   0.0000031695   0.0000000063
       -0.0000667768
       -1.2112007629   0.0000047543   0.0000031695   1.2112007629  -0.0000047543
       -0.0000031695
        0.0000047543  -0.0000667752   0.0000000063  -0.0000047543   0.0000667752
       -0.0000000063
        0.0000031695   0.0000000063  -0.0000667768  -0.0000031695  -0.0000000063
        0.0000667768
