4
 energy: -8.828844066614 gnorm: 0.266898334676 xtb: 6.2.2 (9d81278992624c895f80dd42a50cac0aa55982e2)
N         1.44323700000000   -0.02441900000000   -0.26817500000000
C         0.25384300000000   -0.01990500000000    0.56304600000000
C        -0.83215500000000    0.77815200000000   -0.12809800000000
C        -0.86492500000000   -0.73382800000000   -0.16677400000000
4
 energy: -8.893034692888 gnorm: 0.166370289398 xtb: 6.2.2 (9d81278992624c895f80dd42a50cac0aa55982e2)
N         1.46204732836360   -0.02681792194313   -0.19033838427393
C         0.29795877232056   -0.01739628361633    0.42760137773849
C        -0.86457971078891    0.73373318391446   -0.10042881279029
C        -0.89542638989526   -0.68951897835499   -0.13683518067428
4
 energy: -8.907718592175 gnorm: 0.243580434735 xtb: 6.2.2 (9d81278992624c895f80dd42a50cac0aa55982e2)
N         1.44826883030994   -0.02905670834734   -0.09117728805397
C         0.37021502363206   -0.01491893760755    0.26953036194977
C        -0.89504817211963    0.67694378145023   -0.07242354512059
C        -0.92343568182237   -0.63296813549534   -0.10593052877521
4
 energy: -8.923792573103 gnorm: 0.066518571888 xtb: 6.2.2 (9d81278992624c895f80dd42a50cac0aa55982e2)
N         1.57521274331018   -0.03232729122370   -0.07087274521956
C         0.35016319636189   -0.01271838899324    0.20049172109173
C        -0.94813853603058    0.69388784651684   -0.04763682731074
C        -0.97723740364149   -0.64884216629990   -0.08198314856143
4
 energy: -8.926887321515 gnorm: 0.033454966263 xtb: 6.2.2 (9d81278992624c895f80dd42a50cac0aa55982e2)
N         1.54711718030526   -0.03180269942304   -0.06754392853602
C         0.34080728295382   -0.01226360019731    0.19061871010812
C        -0.92917188135705    0.70447403809649   -0.04408173499656
C        -0.95875258190204   -0.66040773847614   -0.07899404657555
4
 energy: -8.928869495268 gnorm: 0.013120916310 xtb: 6.2.2 (9d81278992624c895f80dd42a50cac0aa55982e2)
N         1.54685009715222   -0.03248749549149   -0.04051070030576
C         0.34093051424414   -0.01083152453883    0.13452724931562
C        -0.92910764494270    0.70368339044231   -0.02956343056640
C        -0.95867296645366   -0.66036437041200   -0.06445411844345
4
 energy: -8.929626093045 gnorm: 0.007435139689 xtb: 6.2.2 (9d81278992624c895f80dd42a50cac0aa55982e2)
N         1.56012727440761   -0.03337217272899   -0.01724726873845
C         0.34025300718559   -0.00952973592409    0.08427328295515
C        -0.93541217215325    0.70333310215753   -0.01607092043076
C        -0.96496810943994   -0.66043119350446   -0.05095609378594
4
 energy: -8.929943380035 gnorm: 0.009572902006 xtb: 6.2.2 (9d81278992624c895f80dd42a50cac0aa55982e2)
N         1.56643369908742   -0.03406711278057    0.00464229323767
C         0.33772256187032   -0.00825212983209    0.03644492625660
C        -0.93730416847930    0.70276307215525   -0.00310913836932
C        -0.96685209247844   -0.66044382954259   -0.03797908112495
4
 energy: -8.930019113803 gnorm: 0.005953591468 xtb: 6.2.2 (9d81278992624c895f80dd42a50cac0aa55982e2)
N         1.56409994764588   -0.03421564770899    0.01233495000035
C         0.33722088386629   -0.00782856970462    0.02038459973125
C        -0.93589184664920    0.70247731626222    0.00107195456854
C        -0.96542898486297   -0.66043309884861   -0.03379250430014
4
 energy: -8.930045453076 gnorm: 0.001754299490 xtb: 6.2.2 (9d81278992624c895f80dd42a50cac0aa55982e2)
N         1.56313688176112   -0.03436744313182    0.01914034636180
C         0.33847103216109   -0.00751817624385    0.00714792000808
C        -0.93603215413270    0.70248555737790    0.00428919485427
C        -0.96557575978951   -0.66059993800222   -0.03057846122415
4
 energy: -8.930046532789 gnorm: 0.001053099079 xtb: 6.2.2 (9d81278992624c895f80dd42a50cac0aa55982e2)
N         1.56218401003387   -0.03439174934455    0.02085254514393
C         0.33910648383488   -0.00745333702786    0.00410223270591
C        -0.93587585550732    0.70241142916159    0.00495498119932
C        -0.96541463836143   -0.66056634278917   -0.02991075904916
4
 energy: -8.930046927741 gnorm: 0.000186964430 xtb: 6.2.2 (9d81278992624c895f80dd42a50cac0aa55982e2)
N         1.56274363129035   -0.03440647615072    0.02098464030700
C         0.33900757866108   -0.00744164162751    0.00370261486447
C        -0.93610503205538    0.70243543694670    0.00508894080575
C        -0.96564617789606   -0.66058731916847   -0.02977719597722
