 Entering Gaussian System
 *********************************************
 Gaussian 98:
 frequency output generated by the xtb code
 *********************************************
                         Standard orientation:
 --------------------------------------------------------------------
  Center     Atomic     Atomic              Coordinates (Angstroms)
  Number     Number      Type              X           Y           Z
 --------------------------------------------------------------------
    1          7             0        1.562744   -0.034415    0.020979
    2          6             0        0.339008   -0.007443    0.003701
    3          6             0       -0.936101    0.702440    0.005091
    4          6             0       -0.965650   -0.660582   -0.029773
 --------------------------------------------------------------------
     1 basis functions        1 primitive gaussians
     1 alpha electrons        1 beta electrons

 Harmonic frequencies (cm**-1), IR intensities (KM/Mole),
 Raman scattering activities (A**4/amu), Raman depolarization ratios,
 reduced masses (AMU), force constants (mDyne/A) and normal coordinates:
                      1                      2                      3
                        a                      a                      a 
 Frequencies --   232.1453               384.7242               671.4739
 Red. masses --    12.3460                12.5220                12.0149
 Frc consts  --     0.0000                 0.0000                 0.0000
 IR Inten    --     0.8135                 0.4095                 0.6746
 Raman Activ --     0.0000                 0.0000                 0.0000
 Depolar     --     0.0000                 0.0000                 0.0000
 Atom AN      X      Y      Z        X      Y      Z        X      Y      Z
   1   7    -0.01  -0.01   0.41    -0.01  -0.51  -0.01     0.00   0.05   0.00
   2   6     0.01   0.02  -0.86     0.02   0.71   0.02     0.01   0.49   0.01
   3   6    -0.00  -0.01   0.21    -0.34  -0.08  -0.01     0.55  -0.28   0.00
   4   6    -0.00  -0.01   0.21     0.33  -0.09   0.00    -0.56  -0.26  -0.01
                      4                      5                      6
                        a                      a                      a 
 Frequencies --   912.9426              1488.2467              1744.0754
 Red. masses --    12.6863                12.2005                12.5827
 Frc consts  --     0.0000                 0.0000                 0.0000
 IR Inten    --     0.2137                 0.1565                 0.7893
 Raman Activ --     0.0000                 0.0000                 0.0000
 Depolar     --     0.0000                 0.0000                 0.0000
 Atom AN      X      Y      Z        X      Y      Z        X      Y      Z
   1   7    -0.58   0.01  -0.01    -0.31   0.01  -0.00     0.54  -0.01   0.01
   2   6    -0.35   0.01  -0.00     0.13  -0.00   0.00    -0.79   0.02  -0.01
   3   6     0.49   0.16   0.01     0.09  -0.66  -0.02     0.10  -0.19  -0.00
   4   6     0.49  -0.19   0.00     0.11   0.66   0.02     0.11   0.19   0.01
