      -----------------------------------------------------------      
     |                   =====================                   |     
     |                           x T B                           |     
     |                   =====================                   |     
     |                         S. Grimme                         |     
     |          Mulliken Center for Theoretical Chemistry        |     
     |                    University of Bonn                     |     
      -----------------------------------------------------------      

   * xtb version 6.2.2 (9d81278992624c895f80dd42a50cac0aa55982e2) compiled by '@Darwin' on 04/03/2020

   xtb is free software: you can redistribute it and/or modify it under
   the terms of the GNU Lesser General Public License as published by
   the Free Software Foundation, either version 3 of the License, or
   (at your option) any later version.
   
   xtb is distributed in the hope that it will be useful,
   but WITHOUT ANY WARRANTY; without even the implied warranty of
   MERCHANTABILITY or FITNESS FOR A PARTICULAR PURPOSE.  See the
   GNU Lesser General Public License for more details.
   
   Cite this work as:
   * S. Grimme, C. Bannwarth, P. Shushkov, J. Chem. Theory Comput., 2017,
     13, 1989-2009. DOI: 10.1021/acs.jctc.7b00118
   * C. Bannwarth, S. Ehlert and S. Grimme., J. Chem. Theory Comput., 2019,
     15, 1652-1671. DOI: 10.1021/acs.jctc.8b01176
   * P. Pracht, E. Caldeweyher, S. Ehlert, S. Grimme, ChemRxiv, 2019, preprint.
     DOI: 10.26434/chemrxiv.8326202.v1
   
   for DFT-D4:
   * E. Caldeweyher, C. Bannwarth and S. Grimme, J. Chem. Phys., 2017,
     147, 034112. DOI: 10.1063/1.4993215
   * E. Caldeweyher, S. Ehlert, A. Hansen, H. Neugebauer, S. Spicher,
     C. Bannwarth and S. Grimme, J. Chem. Phys., 2019, 150, 154122.
     DOI: 10.1063/1.5090222
   
   for sTDA-xTB:
   * S. Grimme and C. Bannwarth, J. Chem. Phys., 2016, 145, 054103.
     DOI: 10.1063/1.4959605
   
   in the mass-spec context:
   * V. Asgeirsson, C. Bauer and S. Grimme, Chem. Sci., 2017, 8, 4879.
     DOI: 10.1039/c7sc00601b
   
   for metadynamics refer to:
   * S. Grimme, J. Chem. Theory Comput., 2019, 155, 2847-2862
     DOI: 10.1021/acs.jctc.9b00143
   
   with help from (in alphabetical order)
   C. Bannwarth, F. Bohle, G. Brandenburg, E. Caldeweyher, M. Checinski,
   S. Dohm, S. Ehlert, S. Ehrlich, F. März, H. Neugebauer, J. Pisarek,
   P. Pracht, P. Shushkov, and S. Spicher.
   
 * started run on 2020/05/12 at 11:45:05.759     

           -------------------------------------------------
          |                Calculation Setup                |
           -------------------------------------------------

          program call               : xtb --input C3N1_6_S_3.input C3N1_6_S_3.xyz --ohess --molden --namespace C3N1_6_S_3 output.out
          calculation namespace      : C3N1_6_S_3
          coordinate file            : C3N1_6_S_3.xyz
          number of atoms            :                     4
          number of electrons        :                    17
          charge                     :                     0
          spin                       :                   1.5
          first test random number   :      0.73008047659306

   ID    Z sym.   atoms
    1    7 N      1
    2    6 C      2-4

           -------------------------------------------------
          |                 G F N 2 - x T B                 |
           -------------------------------------------------

        Reference                      10.1021/acs.jctc.8b01176
      * Hamiltonian:
        H0-scaling (s, p, d)           1.850000    2.230000    2.230000
        zeta-weighting                 0.500000
      * Dispersion:
        s8                             2.700000
        a1                             0.520000
        a2                             5.000000
        s9                             5.000000
      * Repulsion:
        kExp                           1.500000    1.000000
        rExp                           1.000000
      * Coulomb:
        alpha                          2.000000
        third order                    shell-resolved
        anisotropic                    true
        a3                             3.000000
        a5                             4.000000
        cn-shift                       1.200000
        cn-exp                         4.000000
        max-rad                        5.000000


          ...................................................
          :                      SETUP                      :
          :.................................................:
          :  # basis functions                  16          :
          :  # atomic orbitals                  16          :
          :  # shells                            8          :
          :  # electrons                        17          :
          :  max. iterations                   250          :
          :  Hamiltonian                  GFN2-xTB          :
          :  restarted?                      false          :
          :  GBSA solvation                  false          :
          :  PC potential                    false          :
          :  electronic temp.          300.0000000     K    :
          :  accuracy                    1.0000000          :
          :  -> integral cutoff          0.2500000E+02      :
          :  -> integral neglect         0.1000000E-07      :
          :  -> SCF convergence          0.1000000E-05 Eh   :
          :  -> wf. convergence          0.1000000E-03 e    :
          :  Broyden damping             0.4000000          :
          ...................................................

 iter      E             dE          RMSdq      gap      omega  full diag
   1     -8.7204570 -0.872046E+01  0.932E+00    0.53       0.0  T
   2     -8.2370794  0.483378E+00  0.120E+01    1.22       1.0  T
   3     -8.8724133 -0.635334E+00  0.432E+00    0.77       1.0  T
   4     -8.8338848  0.385285E-01  0.330E+00    0.55       1.0  T
   5     -8.8734952 -0.396104E-01  0.139E+00    0.74       1.0  T
   6     -8.8842928 -0.107976E-01  0.473E-01    0.77       1.0  T
   7     -8.8847618 -0.469029E-03  0.205E-01    0.74       1.0  T
   8     -8.8848882 -0.126389E-03  0.316E-02    0.75       1.6  T
   9     -8.8848882  0.415374E-07  0.116E-02    0.75       4.3  T
  10     -8.8848850  0.315008E-05  0.216E-02    0.75       2.3  T
  11     -8.8848884 -0.339921E-05  0.246E-03    0.75      20.4  T
  12     -8.8848884 -0.590885E-08  0.842E-04    0.75      59.4  T
  13     -8.8848884 -0.847914E-09  0.335E-04    0.75     149.3  T

   *** convergence criteria satisfied after 13 iterations ***

         #    Occupation            Energy/Eh            Energy/eV
      -------------------------------------------------------------
         1        2.0000           -0.7294573             -19.8495
       ...           ...                  ...                  ...
         4        2.0000           -0.5728342             -15.5876
         5        2.0000           -0.5277410             -14.3606
         6        2.0000           -0.5014057             -13.6439
         7        2.0000           -0.4896529             -13.3241
         8        1.0000           -0.4628376             -12.5945
         9        1.0000           -0.4339967             -11.8097
        10        1.0000           -0.4087876             -11.1237 (HOMO)
        11        0.0000           -0.3810909             -10.3700 (LUMO)
        12                         -0.3449006              -9.3852
        13                         -0.1375192              -3.7421
        14                          0.0520379               1.4160
        15                          0.1088366               2.9616
        16                          0.1165995               3.1728
      -------------------------------------------------------------
                  HL-Gap            0.0276966 Eh            0.7537 eV
             Fermi-level           -0.4355922 Eh          -11.8531 eV

 SCC (total)                   0 d,  0 h,  0 min,  0.003 sec
 SCC setup                      ...        0 min,  0.000 sec (  2.515%)
 Dispersion                     ...        0 min,  0.000 sec (  0.435%)
 integral evaluation            ...        0 min,  0.001 sec ( 28.732%)
 zeroth order Hamiltonian       ...        0 min,  0.000 sec (  0.487%)
 iterations                     ...        0 min,  0.001 sec ( 37.979%)
 molecular gradient             ...        0 min,  0.001 sec ( 27.891%)
 printout                       ...        0 min,  0.000 sec (  1.608%)

         :::::::::::::::::::::::::::::::::::::::::::::::::::::
         ::                     SUMMARY                     ::
         :::::::::::::::::::::::::::::::::::::::::::::::::::::
         :: total energy              -8.828844066079 Eh    ::
         :: gradient norm              0.266899714444 Eh/a0 ::
         :: HOMO-LUMO gap              0.753663929942 eV    ::
         ::.................................................::
         :: SCC energy                -8.884888433696 Eh    ::
         :: -> isotropic ES           -0.000870526312 Eh    ::
         :: -> anisotropic ES         -0.000492268263 Eh    ::
         :: -> anisotropic XC          0.008514085852 Eh    ::
         :: -> dispersion             -0.001742425222 Eh    ::
         :: repulsion energy           0.056044349687 Eh    ::
         :: add. restraining           0.000000000000 Eh    ::
         :::::::::::::::::::::::::::::::::::::::::::::::::::::

      ----------------------------------------------------------- 
     |                   =====================                   |
     |                        A N C O P T                        |
     |                   =====================                   |
     |               Approximate Normal Coordinate               |
     |                Rational Function Optimizer                |
      ----------------------------------------------------------- 

          ...................................................
          :                      SETUP                      :
          :.................................................:
          :   optimization level            normal          :
          :   max. optcycles                   200          :
          :   ANC micro-cycles                  20          :
          :   degrees of freedom                 6          :
          :.................................................:
          :   RF solver                   davidson          :
          :   write xtbopt.log                true          :
          :   linear?                        false          :
          :   energy convergence         0.5000000E-05 Eh   :
          :   grad. convergence          0.1000000E-02 Eh/α :
          :   maximium RF displ.         1.0000000          :
          :   Hlow (freq-cutoff)         0.1000000E-01      :
          :   Hmax (freq-cutoff)         5.0000000          :
          :   S6 in model hess.         20.0000000          :
          ...................................................

generating ANC from model Hessian ...
Using Lindh-Hessian (1995)
 Shifting diagonal of input Hessian by    0.0000000000000000     
 Lowest  eigenvalues of input Hessian
   -0.000000   -0.000000   -0.000000   -0.000000    0.000000    0.000000
    0.064285    0.122163    0.654744    0.696284    0.972529    1.312174
 Highest eigenvalues
    0.064285    0.122163    0.654744    0.696284    0.972529    1.312174


........................................................................
.............................. CYCLE    1 ..............................
........................................................................
   1     -8.8848884 -0.888489E+01  0.743E-05    0.75       0.0  T
   2     -8.8848884  0.108718E-09  0.151E-04    0.75     331.4  T
   3     -8.8848884 -0.130482E-09  0.202E-05    0.75    2476.2  T
     SCC iter.                  ...        0 min,  0.000 sec
     gradient                   ...        0 min,  0.001 sec
 * total energy  :    -8.8288441 Eh     change       -0.5351133E-09 Eh
   gradient norm :     0.2668983 Eh/α   predicted     0.0000000E+00 (-100.00%)
   displ. norm   :     0.3499607 α      lambda       -0.7781663E-01
   maximum displ.:     0.2461950 α      in ANC's #5, #2, #3, ...

........................................................................
.............................. CYCLE    2 ..............................
........................................................................
   1     -8.9863774 -0.898638E+01  0.214E+00    1.44       0.0  T
   2     -8.9865775 -0.200095E-03  0.133E+00    1.36       1.0  T
   3     -8.9835484  0.302914E-02  0.804E-01    1.49       1.0  T
   4     -8.9867277 -0.317935E-02  0.239E-01    1.40       1.0  T
   5     -8.9869804 -0.252615E-03  0.107E-01    1.39       1.0  T
   6     -8.9870215 -0.411942E-04  0.190E-02    1.40       2.6  T
   7     -8.9870214  0.154111E-06  0.931E-03    1.40       5.4  T
   8     -8.9870217 -0.287193E-06  0.206E-03    1.40      24.3  T
   9     -8.9870217 -0.116101E-08  0.690E-04    1.40      72.4  T
  10     -8.9870217 -0.280722E-08  0.265E-04    1.40     188.6  T
     SCC iter.                  ...        0 min,  0.001 sec
     gradient                   ...        0 min,  0.001 sec
 * total energy  :    -8.8930347 Eh     change       -0.6419063E-01 Eh
   gradient norm :     0.1663084 Eh/α   predicted    -0.4367351E-01 ( -31.96%)
   displ. norm   :     0.4230480 α      lambda       -0.6442144E-01
   maximum displ.:     0.3465528 α      in ANC's #5, #2, #3, ...

........................................................................
.............................. CYCLE    3 ..............................
........................................................................
   1     -9.1047260 -0.910473E+01  0.250E+00    1.64       0.0  T
   2     -9.0977670  0.695896E-02  0.206E+00    2.00       1.0  T
   3     -9.0926990  0.506801E-02  0.182E+00    1.54       1.0  T
   4     -9.1079238 -0.152248E-01  0.291E-01    1.79       1.0  T
   5     -9.1081692 -0.245355E-03  0.101E-01    1.78       1.0  T
   6     -9.1081852 -0.160263E-04  0.614E-02    1.79       1.0  T
   7     -9.1081908 -0.555251E-05  0.766E-03    1.79       6.5  T
   8     -9.1081909 -0.957830E-07  0.134E-03    1.79      37.3  T
   9     -9.1081909  0.132609E-08  0.118E-03    1.79      42.2  T
  10     -9.1081909 -0.616725E-08  0.432E-04    1.79     115.8  T
  11     -9.1081909 -0.302492E-09  0.191E-04    1.79     261.2  T
     SCC iter.                  ...        0 min,  0.001 sec
     gradient                   ...        0 min,  0.001 sec
 * total energy  :    -8.9077186 Eh     change       -0.1468390E-01 Eh
   gradient norm :     0.2408924 Eh/α   predicted    -0.3797544E-01 ( 158.62%)
   displ. norm   :     0.3226462 α      lambda       -0.4674620E-01
   maximum displ.:     0.3072452 α      in ANC's #2, #5, #6, ...

........................................................................
.............................. CYCLE    4 ..............................
........................................................................
   1     -9.0444505 -0.904445E+01  0.204E+00    2.11       0.0  T
   2     -9.0330942  0.113564E-01  0.180E+00    1.68       1.0  T
   3     -9.0410167 -0.792252E-02  0.137E+00    2.16       1.0  T
   4     -9.0486658 -0.764911E-02  0.567E-01    1.92       1.0  T
   5     -9.0492478 -0.582045E-03  0.106E-01    1.94       1.0  T
   6     -9.0492461  0.173814E-05  0.384E-02    1.95       1.3  T
   7     -9.0492505 -0.437437E-05  0.222E-02    1.94       2.3  T
   8     -9.0492513 -0.868823E-06  0.399E-03    1.94      12.5  T
   9     -9.0492513  0.214665E-07  0.362E-03    1.94      13.8  T
  10     -9.0492513 -0.563213E-08  0.248E-03    1.94      20.2  T
  11     -9.0492513 -0.304843E-07  0.308E-04    1.94     162.1  T
  12     -9.0492513  0.162915E-09  0.341E-04    1.94     146.7  T
     SCC iter.                  ...        0 min,  0.001 sec
     gradient                   ...        0 min,  0.001 sec
 * total energy  :    -8.9237926 Eh     change       -0.1607398E-01 Eh
   gradient norm :     0.0663915 Eh/α   predicted    -0.2580625E-01 (  60.55%)
   displ. norm   :     0.0835498 α      lambda       -0.4607237E-02
   maximum displ.:     0.0642151 α      in ANC's #3, #2, #5, ...

........................................................................
.............................. CYCLE    5 ..............................
........................................................................
   1     -9.0589633 -0.905896E+01  0.542E-01    1.78       0.0  T
   2     -9.0588525  0.110759E-03  0.340E-01    1.74       1.0  T
   3     -9.0583002  0.552343E-03  0.419E-01    1.83       1.0  T
   4     -9.0589912 -0.691022E-03  0.140E-01    1.76       1.0  T
   5     -9.0590827 -0.914840E-04  0.185E-02    1.77       2.7  T
   6     -9.0590837 -0.106361E-05  0.806E-03    1.78       6.2  T
   7     -9.0590838 -0.577633E-07  0.232E-03    1.78      21.6  T
   8     -9.0590838 -0.136972E-07  0.745E-04    1.78      67.1  T
   9     -9.0590838 -0.624931E-09  0.289E-04    1.78     173.0  T
     SCC iter.                  ...        0 min,  0.001 sec
     gradient                   ...        0 min,  0.001 sec
 * total energy  :    -8.9268873 Eh     change       -0.3094748E-02 Eh
   gradient norm :     0.0334342 Eh/α   predicted    -0.2319698E-02 ( -25.04%)
   displ. norm   :     0.1239534 α      lambda       -0.3061084E-02
   maximum displ.:     0.0755687 α      in ANC's #3, #5, #2, ...

........................................................................
.............................. CYCLE    6 ..............................
........................................................................
   1     -9.0694538 -0.906945E+01  0.984E-01    1.74       0.0  T
   2     -9.0666574  0.279636E-02  0.898E-01    1.62       1.0  T
   3     -9.0678877 -0.123026E-02  0.777E-01    1.83       1.0  T
   4     -9.0701493 -0.226160E-02  0.151E-01    1.72       1.0  T
   5     -9.0701442  0.506485E-05  0.658E-02    1.72       1.0  T
   6     -9.0701625 -0.182837E-04  0.165E-02    1.73       3.0  T
   7     -9.0701628 -0.340145E-06  0.703E-03    1.73       7.1  T
   8     -9.0701629 -0.186965E-07  0.444E-03    1.73      11.3  T
   9     -9.0701629 -0.290198E-07  0.173E-03    1.73      28.9  T
  10     -9.0701629 -0.807459E-08  0.624E-04    1.73      80.2  T
  11     -9.0701629 -0.443846E-09  0.148E-04    1.73     338.0  T
     SCC iter.                  ...        0 min,  0.001 sec
     gradient                   ...        0 min,  0.001 sec
 * total energy  :    -8.9288695 Eh     change       -0.1982174E-02 Eh
   gradient norm :     0.0128457 Eh/α   predicted    -0.1554056E-02 ( -21.60%)
   displ. norm   :     0.1147861 α      lambda       -0.1050702E-02
   maximum displ.:     0.0858223 α      in ANC's #2, #3, #5, ...

........................................................................
.............................. CYCLE    7 ..............................
........................................................................
   1     -9.0672969 -0.906730E+01  0.148E+00    1.75       0.0  T
   2     -9.0621963  0.510057E-02  0.157E+00    1.64       1.0  T
   3     -9.0653352 -0.313887E-02  0.890E-01    1.88       1.0  T
   4     -9.0690508 -0.371558E-02  0.322E-01    1.74       1.0  T
   5     -9.0689888  0.620359E-04  0.283E-01    1.75       1.0  T
   6     -9.0690664 -0.776595E-04  0.123E-01    1.73       1.0  T
   7     -9.0690937 -0.272429E-04  0.958E-03    1.74       5.2  T
   8     -9.0690924  0.123451E-05  0.305E-02    1.74       1.6  T
   9     -9.0690938 -0.135822E-05  0.868E-03    1.74       5.8  T
  10     -9.0690939 -0.142538E-06  0.311E-04    1.74     160.9  T
  11     -9.0690939  0.163807E-09  0.303E-04    1.74     165.0  T
     SCC iter.                  ...        0 min,  0.001 sec
     gradient                   ...        0 min,  0.001 sec
 * total energy  :    -8.9296261 Eh     change       -0.7565978E-03 Eh
   gradient norm :     0.0074027 Eh/α   predicted    -0.5322723E-03 ( -29.65%)
   displ. norm   :     0.1062096 α      lambda       -0.5246316E-03
   maximum displ.:     0.0678724 α      in ANC's #2, #3, #5, ...

........................................................................
.............................. CYCLE    8 ..............................
........................................................................
   1     -9.0664629 -0.906646E+01  0.160E+00    1.76       0.0  T
   2     -9.0674904 -0.102754E-02  0.103E+00    1.76       1.0  T
   3     -9.0682556 -0.765193E-03  0.403E-01    1.79       1.0  T
   4     -9.0686864 -0.430803E-03  0.192E-01    1.75       1.0  T
   5     -9.0685397  0.146687E-03  0.185E-01    1.78       1.0  T
   6     -9.0686640 -0.124246E-03  0.122E-01    1.75       1.0  T
   7     -9.0686935 -0.295653E-04  0.135E-02    1.75       3.7  T
   8     -9.0686915  0.203683E-05  0.378E-02    1.76       1.3  T
   9     -9.0686938 -0.231186E-05  0.747E-03    1.76       6.7  T
  10     -9.0686939 -0.117430E-06  0.115E-03    1.76      43.6  T
  11     -9.0686939 -0.587548E-08  0.538E-04    1.76      92.9  T
  12     -9.0686939  0.195946E-09  0.702E-04    1.76      71.2  T
     SCC iter.                  ...        0 min,  0.001 sec
     gradient                   ...        0 min,  0.001 sec
 * total energy  :    -8.9299434 Eh     change       -0.3172870E-03 Eh
   gradient norm :     0.0093191 Eh/α   predicted    -0.2652751E-03 ( -16.39%)
   displ. norm   :     0.0359605 α      lambda       -0.1100603E-03
   maximum displ.:     0.0239929 α      in ANC's #3, #5, #2, ...

........................................................................
.............................. CYCLE    9 ..............................
........................................................................
   1     -9.0700535 -0.907005E+01  0.616E-01    1.75       0.0  T
   2     -9.0700924 -0.389343E-04  0.533E-01    1.76       1.0  T
   3     -9.0703912 -0.298764E-03  0.104E-01    1.76       1.0  T
   4     -9.0703955 -0.424728E-05  0.729E-02    1.74       1.0  T
   5     -9.0704051 -0.961881E-05  0.435E-02    1.76       1.2  T
   6     -9.0704142 -0.908067E-05  0.130E-02    1.75       3.8  T
   7     -9.0704145 -0.348120E-06  0.410E-03    1.75      12.2  T
   8     -9.0704145 -0.262816E-07  0.325E-03    1.75      15.4  T
   9     -9.0704146 -0.227396E-07  0.184E-04    1.75     272.4  T
  10     -9.0704146  0.444036E-10  0.148E-04    1.75     337.3  T
     SCC iter.                  ...        0 min,  0.001 sec
     gradient                   ...        0 min,  0.001 sec
 * total energy  :    -8.9300191 Eh     change       -0.7573377E-04 Eh
   gradient norm :     0.0056927 Eh/α   predicted    -0.5509992E-04 ( -27.25%)
   displ. norm   :     0.0295718 α      lambda       -0.4439930E-04
   maximum displ.:     0.0179934 α      in ANC's #5, #3, #2, ...

........................................................................
.............................. CYCLE   10 ..............................
........................................................................
   1     -9.0707469 -0.907075E+01  0.528E-01    1.74       0.0  T
   2     -9.0707543 -0.739838E-05  0.462E-01    1.76       1.0  T
   3     -9.0709992 -0.244890E-03  0.693E-02    1.74       1.0  T
   4     -9.0709747  0.245127E-04  0.104E-01    1.76       1.0  T
   5     -9.0710110 -0.363216E-04  0.329E-02    1.75       1.5  T
   6     -9.0710158 -0.473003E-05  0.899E-03    1.75       5.6  T
   7     -9.0710159 -0.167651E-06  0.151E-03    1.75      33.1  T
   8     -9.0710159  0.174777E-07  0.321E-03    1.75      15.6  T
   9     -9.0710159 -0.135383E-07  0.213E-03    1.75      23.5  T
  10     -9.0710159 -0.100896E-07  0.396E-04    1.75     126.2  T
  11     -9.0710159 -0.234580E-09  0.121E-04    1.75     414.4  T
     SCC iter.                  ...        0 min,  0.001 sec
     gradient                   ...        0 min,  0.001 sec
 * total energy  :    -8.9300455 Eh     change       -0.2633927E-04 Eh
   gradient norm :     0.0016728 Eh/α   predicted    -0.2221884E-04 ( -15.64%)
   displ. norm   :     0.0071885 α      lambda       -0.3036511E-05
   maximum displ.:     0.0052553 α      in ANC's #5, #3, #2, ...

........................................................................
.............................. CYCLE   11 ..............................
........................................................................
   1     -9.0715633 -0.907156E+01  0.128E-01    1.74       0.0  T
   2     -9.0715563  0.698052E-05  0.122E-01    1.75       1.0  T
   3     -9.0715708 -0.145162E-04  0.446E-02    1.74       1.1  T
   4     -9.0715792 -0.840007E-05  0.138E-02    1.74       3.6  T
   5     -9.0715790  0.239640E-06  0.895E-03    1.74       5.6  T
   6     -9.0715794 -0.364307E-06  0.725E-04    1.74      69.0  T
   7     -9.0715794 -0.169406E-09  0.437E-04    1.74     114.4  T
     SCC iter.                  ...        0 min,  0.000 sec
     gradient                   ...        0 min,  0.001 sec
 * total energy  :    -8.9300465 Eh     change       -0.1079712E-05 Eh
   gradient norm :     0.0010121 Eh/α   predicted    -0.1517940E-05 (  40.59%)
   displ. norm   :     0.0015158 α      lambda       -0.6863097E-06
   maximum displ.:     0.0014624 α      in ANC's #2, #6, #3, ...

........................................................................
.............................. CYCLE   12 ..............................
........................................................................
   1     -9.0712577 -0.907126E+01  0.188E-02    1.74       0.0  T
   2     -9.0712569  0.880204E-06  0.202E-02    1.74       2.5  T
   3     -9.0712573 -0.415027E-06  0.139E-02    1.75       3.6  T
   4     -9.0712581 -0.818681E-06  0.365E-03    1.74      13.7  T
   5     -9.0712581  0.968426E-08  0.188E-03    1.74      26.5  T
   6     -9.0712581 -0.142077E-07  0.635E-04    1.74      78.8  T
   7     -9.0712581 -0.162021E-08  0.124E-04    1.74     402.2  T
     SCC iter.                  ...        0 min,  0.000 sec
     gradient                   ...        0 min,  0.001 sec
 * total energy  :    -8.9300469 Eh     change       -0.3949518E-06 Eh
   gradient norm :     0.0001868 Eh/α   predicted    -0.3442838E-06 ( -12.83%)
   displ. norm   :     0.0027620 α      lambda       -0.1267174E-06
   maximum displ.:     0.0018582 α      in ANC's #2, #5, #3, ...

   *** GEOMETRY OPTIMIZATION CONVERGED AFTER 12 ITERATIONS ***

------------------------------------------------------------------------
 total energy gain   :        -0.1012029 Eh      -63.5058 kcal/mol
 total RMSD          :         0.6592562 a0        0.3489 Å
 total power (kW/mol):       -22.1423397 (step)-8578.9099 (real)
------------------------------------------------------------------------

 ANCopt (total)                0 d,  0 h,  0 min,  0.031 sec
 optimizer setup                ...        0 min,  0.000 sec (  0.207%)
 model hessian                  ...        0 min,  0.000 sec (  0.223%)
 ANC generation                 ...        0 min,  0.000 sec (  0.132%)
 coordinate transformation      ...        0 min,  0.000 sec (  0.082%)
 single point calculation       ...        0 min,  0.030 sec ( 96.509%)
 optimization log               ...        0 min,  0.000 sec (  0.843%)
 hessian update                 ...        0 min,  0.000 sec (  0.079%)
 rational function              ...        0 min,  0.000 sec (  0.808%)

================
 final structure:
================
4
 xtb: 6.2.2 (9d81278992624c895f80dd42a50cac0aa55982e2)
N         1.56274363129035   -0.03440647615072    0.02098464030700
C         0.33900757866108   -0.00744164162751    0.00370261486447
C        -0.93610503205538    0.70243543694670    0.00508894080575
C        -0.96564617789606   -0.66058731916847   -0.02977719597722

 Bond Distances (Angstroems)
 ---------------------------
N1-C2=1.2242         C2-N1=1.2242         C2-C3=1.4594         C2-C4=1.4594         C3-C2=1.4594         C3-C4=1.3638         
C4-C2=1.4594         C4-C3=1.3638         
 C  C  Rav=1.4275 sigma=0.0451  Rmin=1.3638  Rmax=1.4594     3
 N  C  Rav=1.2242 sigma=0.0000  Rmin=1.2242  Rmax=1.2242     1

 selected bond angles (degree)
 --------------------
C3-C2-N1=152.14                C4-C2-N1=152.14                C4-C2-C3= 55.71                C4-C3-C2= 62.14                
C3-C4-C2= 62.14                

 selected dihedral angles (degree)
 ---------------------------------
C4-C3-C2-N1=180.21            C3-C4-C2-N1=179.79            
           -------------------------------------------------
          |                Final Singlepoint                |
           -------------------------------------------------

          ...................................................
          :                      SETUP                      :
          :.................................................:
          :  # basis functions                  16          :
          :  # atomic orbitals                  16          :
          :  # shells                            8          :
          :  # electrons                        17          :
          :  max. iterations                   250          :
          :  Hamiltonian                  GFN2-xTB          :
          :  restarted?                      false          :
          :  GBSA solvation                  false          :
          :  PC potential                    false          :
          :  electronic temp.          300.0000000     K    :
          :  accuracy                    1.0000000          :
          :  -> integral cutoff          0.2500000E+02      :
          :  -> integral neglect         0.1000000E-07      :
          :  -> SCF convergence          0.1000000E-05 Eh   :
          :  -> wf. convergence          0.1000000E-03 e    :
          :  Broyden damping             0.4000000          :
          ...................................................

 iter      E             dE          RMSdq      gap      omega  full diag
   1     -9.0712581 -0.907126E+01  0.220E-04    1.74       0.0  T
   2     -9.0712581  0.336096E-09  0.274E-04    1.74     182.2  T
   3     -9.0712581 -0.198881E-09  0.213E-04    1.74     234.6  T

   *** convergence criteria satisfied after 3 iterations ***

         #    Occupation            Energy/Eh            Energy/eV
      -------------------------------------------------------------
         1        2.0000           -0.7343021             -19.9814
       ...           ...                  ...                  ...
         4        2.0000           -0.5711360             -15.5414
         5        2.0000           -0.5662103             -15.4074
         6        2.0000           -0.4941398             -13.4462
         7        1.9107           -0.4780558             -13.0086
         8        1.0893           -0.4736430             -12.8885
         9        1.0000           -0.4424465             -12.0396
        10        1.0000           -0.3733636             -10.1597 (HOMO)
        11                         -0.3092704              -8.4157 (LUMO)
        12                         -0.2482431              -6.7550
        13                         -0.0358587              -0.9758
        14                          0.0780834               2.1248
        15                          0.3859933              10.5034
        16                          0.7492278              20.3875
      -------------------------------------------------------------
                  HL-Gap            0.0640933 Eh            1.7441 eV
             Fermi-level           -0.4085832 Eh          -11.1181 eV

 SCC (total)                   0 d,  0 h,  0 min,  0.002 sec
 SCC setup                      ...        0 min,  0.000 sec (  1.921%)
 Dispersion                     ...        0 min,  0.000 sec (  0.301%)
 integral evaluation            ...        0 min,  0.001 sec ( 39.429%)
 zeroth order Hamiltonian       ...        0 min,  0.000 sec (  0.478%)
 iterations                     ...        0 min,  0.000 sec ( 17.819%)
 molecular gradient             ...        0 min,  0.001 sec ( 37.871%)
 printout                       ...        0 min,  0.000 sec (  1.869%)

         :::::::::::::::::::::::::::::::::::::::::::::::::::::
         ::                     SUMMARY                     ::
         :::::::::::::::::::::::::::::::::::::::::::::::::::::
         :: total energy              -8.930046927633 Eh    ::
         :: gradient norm              0.000188997607 Eh/a0 ::
         :: HOMO-LUMO gap              1.744066436245 eV    ::
         ::.................................................::
         :: SCC energy                -9.071258094983 Eh    ::
         :: -> isotropic ES            0.003104444375 Eh    ::
         :: -> anisotropic ES          0.000996761459 Eh    ::
         :: -> anisotropic XC          0.013515171509 Eh    ::
         :: -> dispersion             -0.001734378654 Eh    ::
         :: repulsion energy           0.141211158675 Eh    ::
         :: add. restraining           0.000000000000 Eh    ::
         :::::::::::::::::::::::::::::::::::::::::::::::::::::

           ------------------------------------------------- 
          |                Numerical Hessian                |
           ------------------------------------------------- 
step length          :   0.00500
SCC accuracy         :   0.30000
Hessian scale factor :   1.00000
frozen atoms in %    :   0.00000    0
RMS gradient         :   0.00019
estimated CPU  time      0.00 min
estimated wall time      0.00 min

writing file <hessian>.

 projected vibrational frequencies (cm-1)
eigval :       -0.00    -0.00    -0.00     0.00     0.00     0.00
eigval :      232.15   384.72   671.47   912.94  1488.25  1744.08
           -------------------------------------------------
          |                Property Printout                |
           -------------------------------------------------

    * Orbital Energies and Occupations

         #    Occupation            Energy/Eh            Energy/eV
      -------------------------------------------------------------
         1        2.0000           -0.7343018             -19.9814
         2        2.0000           -0.6882353             -18.7278
         3        2.0000           -0.5982650             -16.2796
         4        2.0000           -0.5711357             -15.5414
         5        2.0000           -0.5662102             -15.4074
         6        2.0000           -0.4941398             -13.4462
         7        1.9107           -0.4780564             -13.0086
         8        1.0893           -0.4736429             -12.8885
         9        1.0000           -0.4424459             -12.0396
        10        1.0000           -0.3733637             -10.1597 (HOMO)
        11                         -0.3092698              -8.4157 (LUMO)
        12                         -0.2482432              -6.7550
        13                         -0.0358585              -0.9758
        14                          0.0780835               2.1248
        15                          0.3859939              10.5034
        16                          0.7492276              20.3875
      -------------------------------------------------------------
                  HL-Gap            0.0640940 Eh            1.7441 eV
             Fermi-level           -0.4085832 Eh          -11.1181 eV

     #   Z        covCN         q      C6AA      α(0)
     1   7 N      0.911    -0.184    24.996     7.231
     2   6 C      2.868     0.195    23.856     8.006
     3   6 C      1.959    -0.005    31.213     9.022
     4   6 C      1.959    -0.005    31.213     9.022

 Mol. C6AA /au·bohr⁶  :        442.473245
 Mol. C8AA /au·bohr⁸  :      12040.943723
 Mol. α(0) /au        :         33.281592


Wiberg/Mayer (AO) data.
largest (>0.10) Wiberg bond orders for each atom
          total WBO             WBO to atom ...
     1  N   1.932        C    2 1.841
     2  C   3.792        N    1 1.841    C    3 0.976    C    4 0.976
     3  C   2.447        C    4 1.426    C    2 0.976
     4  C   2.447        C    3 1.426    C    2 0.976

MOs/occ written to file <molden.input>


molecular dipole:
                 x           y           z       tot (Debye)
 q only:       -0.401       0.009      -0.006
   full:       -0.451       0.010      -0.007       1.146
molecular quadrupole (traceless):
                xx          xy          yy          xz          yz          zz
 q only:       -1.552       0.051       0.762      -0.032       0.000       0.789
  q+dip:       -3.468       0.119       1.950      -0.069       0.013       1.517
   full:       -5.052       0.138       1.149      -0.123      -0.068       3.902

           -------------------------------------------------
          |                Geometry Summary                 |
           -------------------------------------------------
Molecule has the following symmetry elements: (C2) 2*(sigma) 
It seems to be the C2v point group

      molecular mass/u    :       50.0389109
   center of mass at/Å    :        0.0623352      -0.0013727       0.0008366
  moments of inertia/u·Å² :        0.1116951E+02   0.5714962E+02   0.6831911E+02
rotational constants/cm⁻¹ :        0.1509254E+01   0.2949737E+00   0.2467484E+00

 * 1 selected distances

     #   Z        #   Z                                     value/Å
     1   7 N      2   6 C                                 1.2241551 (max)

 * 1 distinct bonds (by element types)

   Z      Z             #   av. dist./Å        max./Å        min./Å
   6 C    7 N           1     1.2241551     1.2241551     1.2241551

           -------------------------------------------------
          |               Frequency Printout                |
           -------------------------------------------------
 projected vibrational frequencies (cm-1)
eigval :       -0.00    -0.00    -0.00     0.00     0.00     0.00
eigval :      232.15   384.72   671.47   912.94  1488.25  1744.08
 reduced masses (amu)
   1: 12.47   2: 13.57   3: 13.51   4: 12.04   5: 12.15   6: 12.03   7: 12.35   8: 12.52
   9: 12.01  10: 12.69  11: 12.20  12: 12.58
 IR intensities (amu)
   1:  0.04   2:  0.10   3:  0.11   4:  0.06   5:  0.05   6:  0.06   7:  0.81   8:  0.41
   9:  0.67  10:  0.21  11:  0.16  12:  0.79
 Raman intensities (amu)
   1:  0.00   2:  0.00   3:  0.00   4:  0.00   5:  0.00   6:  0.00   7:  0.00   8:  0.00
   9:  0.00  10:  0.00  11:  0.00  12:  0.00
 output can be read by thermo (or use thermo option).
 writing <g98.out> molden fake output.
 recommended (thermochemical) frequency scaling factor: 1.0
           -------------------------------------------------
          |             Thermodynamic Functions             |
           -------------------------------------------------

c2v symmetry found (for desy threshold:  0.10E+00) used in thermo

          ...................................................
          :                      SETUP                      :
          :.................................................:
          :  # frequencies                           6      :
          :  # imaginary freq.                       0      :
          :  linear?                             false      :
          :  only rotor calc.                    false      :
          :  symmetry                              c2v      :
          :  rotational number                       2      :
          :  scaling factor                  1.0000000      :
          :  rotor cutoff                   50.0000000 cm⁻¹ :
          :  imag. cutoff                  -20.0000000 cm⁻¹ :
          :.................................................:

    mode    ω/cm⁻¹     T·S(HO)/kcal·mol⁻¹    T·S(FR)/kcal·mol⁻¹   T·S(vib)
   ------------------------------------------------------------------------
       1    232.15    -0.00000 ( 99.79%)     0.01357 (  0.21%)     0.00003
   ------------------------------------------------------------------------

   temp. (K)  partition function   enthalpy   heat capacity  entropy
                                   cal/mol     cal/K/mol   cal/K/mol   J/K/mol
 298.15  VIB   1.85                  639.807      4.771      3.374
         ROT  0.798E+04              888.752      2.981     20.835
         INT  0.148E+05             1528.559      7.752     24.209
         TR   0.342E+27             1481.254      4.968     37.637
         TOT                        3009.8133    12.7204    61.8463   258.7650

   temp. (K)  partition function   enthalpy   heat capacity  entropy
                                   cal/mol     cal/K/mol   cal/K/mol   J/K/mol
 120.00  VIB   1.08                   55.429      1.555      0.611
         ROT  0.204E+04              357.707      2.981     18.122
         INT  0.219E+04              413.136      4.536     18.733
         TR   0.874E+26              596.178      4.968     33.118
         TOT                        1009.3136     9.5039    51.8505   216.9424

   temp. (K)  partition function   enthalpy   heat capacity  entropy
                                   cal/mol     cal/K/mol   cal/K/mol   J/K/mol
 100.00  VIB   1.04                   28.868      1.099      0.370
         ROT  0.155E+04              298.089      2.981     17.579
         INT  0.161E+04              326.957      4.080     17.948
         TR   0.665E+26              496.815      4.968     32.212
         TOT                         823.7724     9.0480    50.1607   209.8725

   temp. (K)  partition function   enthalpy   heat capacity  entropy
                                   cal/mol     cal/K/mol   cal/K/mol   J/K/mol
  80.00  VIB   1.02                   11.464      0.645      0.177
         ROT  0.111E+04              238.471      2.981     16.913
         INT  0.113E+04              249.935      3.626     17.091
         TR   0.476E+26              397.452      4.968     31.104
         TOT                         647.3869     8.5943    48.1950   201.6478

   temp. (K)  partition function   enthalpy   heat capacity  entropy
                                   cal/mol     cal/K/mol   cal/K/mol   J/K/mol
  60.00  VIB   1.00                    2.656      0.254      0.053
         ROT   720.                  178.853      2.981     16.056
         INT   723.                  181.509      3.235     16.109
         TR   0.309E+26              298.089      4.968     29.676
         TOT                         479.5981     8.2030    45.7844   191.5620

   temp. (K)  partition function   enthalpy   heat capacity  entropy
                                   cal/mol     cal/K/mol   cal/K/mol   J/K/mol
  40.00  VIB   1.00                    0.158      0.033      0.004
         ROT   392.                  119.236      2.981     14.847
         INT   392.                  119.394      3.014     14.851
         TR   0.168E+26              198.726      4.968     27.662
         TOT                         318.1196     7.9822    42.5138   177.8777

   temp. (K)  partition function   enthalpy   heat capacity  entropy
                                   cal/mol     cal/K/mol   cal/K/mol   J/K/mol
  20.00  VIB   1.00                    0.000      0.000     -0.002
         ROT   139.                   59.618      2.981     12.781
         INT   139.                   59.618      2.981     12.779
         TR   0.595E+25               99.363      4.968     24.220
         TOT                         158.9808     7.9491    36.9995   154.8060

   temp. (K)  partition function   enthalpy   heat capacity  entropy
                                   cal/mol     cal/K/mol   cal/K/mol   J/K/mol
  10.00  VIB   1.00                    0.000      0.000     -0.004
         ROT   49.0                   29.809      2.981     10.715
         INT   49.0                   29.809      2.981     10.711
         TR   0.210E+25               49.681      4.968     20.778
         TOT                          79.4904     7.9490    31.4896   131.7526

       T/K    H(0)-H(T)+PV         H(T)/Eh          T*S/Eh         G(T)/Eh
   ------------------------------------------------------------------------
    298.15    0.479644E-02    0.171751E-01    0.293852E-01   -0.122101E-01
    120.00    0.160844E-02    0.139871E-01    0.991548E-02    0.407163E-02
    100.00    0.131276E-02    0.136914E-01    0.799362E-02    0.569781E-02
     80.00    0.103168E-02    0.134103E-01    0.614429E-02    0.726606E-02
     60.00    0.764288E-03    0.131430E-01    0.437773E-02    0.876523E-02
     40.00    0.506956E-03    0.128856E-01    0.271000E-02    0.101756E-01
     20.00    0.253352E-03    0.126320E-01    0.117925E-02    0.114528E-01
     10.00    0.126676E-03    0.125053E-01    0.501819E-03    0.120035E-01 (used)
   ------------------------------------------------------------------------

         :::::::::::::::::::::::::::::::::::::::::::::::::::::
         ::                  THERMODYNAMIC                  ::
         :::::::::::::::::::::::::::::::::::::::::::::::::::::
         :: total free energy          -8.918043400826 Eh   ::
         ::.................................................::
         :: total energy               -8.930046927787 Eh   ::
         :: zero point energy           0.012378670246 Eh   ::
         :: G(RRHO) w/o ZPVE           -0.000375143284 Eh   ::
         :: G(RRHO) contrib.            0.012003526961 Eh   ::
         :::::::::::::::::::::::::::::::::::::::::::::::::::::

optimized geometry written to: xtbopt.xyz


           -------------------------------------------------
          | TOTAL ENERGY               -8.930046927787 Eh   |
          | TOTAL ENTHALPY             -8.917541581526 Eh   |
          | TOTAL FREE ENERGY          -8.918043400826 Eh   |
          | GRADIENT NORM               0.000187768728 Eh/α |
          | HOMO-LUMO GAP               1.744085366342 eV   |
           -------------------------------------------------

------------------------------------------------------------------------
 * finished run on 2020/05/12 at 11:45:05.872     
------------------------------------------------------------------------
 total:
 * wall-time:     0 d,  0 h,  0 min,  0.112 sec
 *  cpu-time:     0 d,  0 h,  0 min,  0.112 sec
 * ratio c/w:     0.999 speedup
 SCF:
 * wall-time:     0 d,  0 h,  0 min,  0.003 sec
 *  cpu-time:     0 d,  0 h,  0 min,  0.003 sec
 * ratio c/w:     1.000 speedup
 ANC optimizer:
 * wall-time:     0 d,  0 h,  0 min,  0.034 sec
 *  cpu-time:     0 d,  0 h,  0 min,  0.034 sec
 * ratio c/w:     1.000 speedup
 numerical hessian:
 * wall-time:     0 d,  0 h,  0 min,  0.059 sec
 *  cpu-time:     0 d,  0 h,  0 min,  0.059 sec
 * ratio c/w:     0.999 speedup

