      -----------------------------------------------------------      
     |                   =====================                   |     
     |                           x T B                           |     
     |                   =====================                   |     
     |                         S. Grimme                         |     
     |          Mulliken Center for Theoretical Chemistry        |     
     |                    University of Bonn                     |     
      -----------------------------------------------------------      

   * xtb version 6.2.2 (9d81278992624c895f80dd42a50cac0aa55982e2) compiled by '@Darwin' on 04/03/2020

   xtb is free software: you can redistribute it and/or modify it under
   the terms of the GNU Lesser General Public License as published by
   the Free Software Foundation, either version 3 of the License, or
   (at your option) any later version.
   
   xtb is distributed in the hope that it will be useful,
   but WITHOUT ANY WARRANTY; without even the implied warranty of
   MERCHANTABILITY or FITNESS FOR A PARTICULAR PURPOSE.  See the
   GNU Lesser General Public License for more details.
   
   Cite this work as:
   * S. Grimme, C. Bannwarth, P. Shushkov, J. Chem. Theory Comput., 2017,
     13, 1989-2009. DOI: 10.1021/acs.jctc.7b00118
   * C. Bannwarth, S. Ehlert and S. Grimme., J. Chem. Theory Comput., 2019,
     15, 1652-1671. DOI: 10.1021/acs.jctc.8b01176
   * P. Pracht, E. Caldeweyher, S. Ehlert, S. Grimme, ChemRxiv, 2019, preprint.
     DOI: 10.26434/chemrxiv.8326202.v1
   
   for DFT-D4:
   * E. Caldeweyher, C. Bannwarth and S. Grimme, J. Chem. Phys., 2017,
     147, 034112. DOI: 10.1063/1.4993215
   * E. Caldeweyher, S. Ehlert, A. Hansen, H. Neugebauer, S. Spicher,
     C. Bannwarth and S. Grimme, J. Chem. Phys., 2019, 150, 154122.
     DOI: 10.1063/1.5090222
   
   for sTDA-xTB:
   * S. Grimme and C. Bannwarth, J. Chem. Phys., 2016, 145, 054103.
     DOI: 10.1063/1.4959605
   
   in the mass-spec context:
   * V. Asgeirsson, C. Bauer and S. Grimme, Chem. Sci., 2017, 8, 4879.
     DOI: 10.1039/c7sc00601b
   
   for metadynamics refer to:
   * S. Grimme, J. Chem. Theory Comput., 2019, 155, 2847-2862
     DOI: 10.1021/acs.jctc.9b00143
   
   with help from (in alphabetical order)
   C. Bannwarth, F. Bohle, G. Brandenburg, E. Caldeweyher, M. Checinski,
   S. Dohm, S. Ehlert, S. Ehrlich, F. März, H. Neugebauer, J. Pisarek,
   P. Pracht, P. Shushkov, and S. Spicher.
   
 * started run on 2020/05/12 at 11:45:22.602     

           -------------------------------------------------
          |                Calculation Setup                |
           -------------------------------------------------

          program call               : xtb --input H2C1N2_8_S_0.input H2C1N2_8_S_0.xyz --ohess --molden --namespace H2C1N2_8_S_0 output.out
          calculation namespace      : H2C1N2_8_S_0
          coordinate file            : H2C1N2_8_S_0.xyz
          number of atoms            :                     5
          number of electrons        :                    16
          charge                     :                     0
          spin                       :                   0.0
          first test random number   :      0.55585455002745

   ID    Z sym.   atoms
    1    6 C      1
    2    7 N      2, 3
    3    1 H      4, 5

           -------------------------------------------------
          |                 G F N 2 - x T B                 |
           -------------------------------------------------

        Reference                      10.1021/acs.jctc.8b01176
      * Hamiltonian:
        H0-scaling (s, p, d)           1.850000    2.230000    2.230000
        zeta-weighting                 0.500000
      * Dispersion:
        s8                             2.700000
        a1                             0.520000
        a2                             5.000000
        s9                             5.000000
      * Repulsion:
        kExp                           1.500000    1.000000
        rExp                           1.000000
      * Coulomb:
        alpha                          2.000000
        third order                    shell-resolved
        anisotropic                    true
        a3                             3.000000
        a5                             4.000000
        cn-shift                       1.200000
        cn-exp                         4.000000
        max-rad                        5.000000


          ...................................................
          :                      SETUP                      :
          :.................................................:
          :  # basis functions                  14          :
          :  # atomic orbitals                  14          :
          :  # shells                            8          :
          :  # electrons                        16          :
          :  max. iterations                   250          :
          :  Hamiltonian                  GFN2-xTB          :
          :  restarted?                      false          :
          :  GBSA solvation                  false          :
          :  PC potential                    false          :
          :  electronic temp.          300.0000000     K    :
          :  accuracy                    1.0000000          :
          :  -> integral cutoff          0.2500000E+02      :
          :  -> integral neglect         0.1000000E-07      :
          :  -> SCF convergence          0.1000000E-05 Eh   :
          :  -> wf. convergence          0.1000000E-03 e    :
          :  Broyden damping             0.4000000          :
          ...................................................

 iter      E             dE          RMSdq      gap      omega  full diag
   1     -8.7247937 -0.872479E+01  0.686E+00    1.32       0.0  T
   2     -8.2444520  0.480342E+00  0.977E+00    2.50       1.0  T
   3     -8.7769076 -0.532456E+00  0.437E+00    1.37       1.0  T
   4     -8.8270841 -0.501765E-01  0.160E+00    1.20       1.0  T
   5     -8.8322613 -0.517714E-02  0.484E-01    1.12       1.0  T
   6     -8.8322619 -0.646076E-06  0.213E-01    1.12       1.0  T
   7     -8.8324173 -0.155376E-03  0.524E-02    1.12       1.0  T
   8     -8.8324177 -0.428164E-06  0.277E-02    1.12       1.6  T
   9     -8.8324189 -0.120214E-05  0.211E-02    1.12       2.1  T
  10     -8.8324210 -0.208805E-05  0.295E-03    1.12      15.2  T
  11     -8.8324211 -0.393613E-07  0.617E-04    1.12      72.4  T
  12     -8.8324211 -0.689607E-09  0.434E-04    1.12     103.1  T

   *** convergence criteria satisfied after 12 iterations ***

         #    Occupation            Energy/Eh            Energy/eV
      -------------------------------------------------------------
         1        2.0000           -0.6638361             -18.0639
         2        2.0000           -0.6109705             -16.6254
         3        2.0000           -0.5691907             -15.4885
         4        2.0000           -0.5504322             -14.9780
         5        2.0000           -0.5003201             -13.6144
         6        2.0000           -0.4631499             -12.6030
         7        2.0000           -0.4183699             -11.3844
         8        2.0000           -0.3975254             -10.8172 (HOMO)
         9                         -0.3563628              -9.6971 (LUMO)
        10                         -0.2896610              -7.8821
        11                         -0.0019381              -0.0527
        12                          0.0778534               2.1185
        13                          0.0954396               2.5970
        14                          0.1285120               3.4970
      -------------------------------------------------------------
                  HL-Gap            0.0411626 Eh            1.1201 eV
             Fermi-level           -0.3769441 Eh          -10.2572 eV

 SCC (total)                   0 d,  0 h,  0 min,  0.003 sec
 SCC setup                      ...        0 min,  0.000 sec (  3.251%)
 Dispersion                     ...        0 min,  0.000 sec (  0.481%)
 integral evaluation            ...        0 min,  0.001 sec ( 26.825%)
 zeroth order Hamiltonian       ...        0 min,  0.000 sec (  0.619%)
 iterations                     ...        0 min,  0.001 sec ( 40.059%)
 molecular gradient             ...        0 min,  0.001 sec ( 26.426%)
 printout                       ...        0 min,  0.000 sec (  2.013%)

         :::::::::::::::::::::::::::::::::::::::::::::::::::::
         ::                     SUMMARY                     ::
         :::::::::::::::::::::::::::::::::::::::::::::::::::::
         :: total energy              -8.782037289618 Eh    ::
         :: gradient norm              0.367863161997 Eh/a0 ::
         :: HOMO-LUMO gap              1.120090200302 eV    ::
         ::.................................................::
         :: SCC energy                -8.832421051682 Eh    ::
         :: -> isotropic ES            0.013914392941 Eh    ::
         :: -> anisotropic ES          0.005320956643 Eh    ::
         :: -> anisotropic XC          0.016572507748 Eh    ::
         :: -> dispersion             -0.001385559001 Eh    ::
         :: repulsion energy           0.050383750437 Eh    ::
         :: add. restraining           0.000000000000 Eh    ::
         :::::::::::::::::::::::::::::::::::::::::::::::::::::

      ----------------------------------------------------------- 
     |                   =====================                   |
     |                        A N C O P T                        |
     |                   =====================                   |
     |               Approximate Normal Coordinate               |
     |                Rational Function Optimizer                |
      ----------------------------------------------------------- 

          ...................................................
          :                      SETUP                      :
          :.................................................:
          :   optimization level            normal          :
          :   max. optcycles                   200          :
          :   ANC micro-cycles                  20          :
          :   degrees of freedom                 9          :
          :.................................................:
          :   RF solver                   davidson          :
          :   write xtbopt.log                true          :
          :   linear?                        false          :
          :   energy convergence         0.5000000E-05 Eh   :
          :   grad. convergence          0.1000000E-02 Eh/α :
          :   maximium RF displ.         1.0000000          :
          :   Hlow (freq-cutoff)         0.1000000E-01      :
          :   Hmax (freq-cutoff)         5.0000000          :
          :   S6 in model hess.         20.0000000          :
          ...................................................

generating ANC from model Hessian ...
Using Lindh-Hessian (1995)
 Shifting diagonal of input Hessian by    0.0000000000000000     
 Lowest  eigenvalues of input Hessian
   -0.000000   -0.000000   -0.000000    0.000000    0.000000    0.000000
    0.016805    0.062703    0.121747    0.144061    0.182544    0.759849
    0.986837    1.182485    1.265934
 Highest eigenvalues
    0.144061    0.182544    0.759849    0.986837    1.182485    1.265934


........................................................................
.............................. CYCLE    1 ..............................
........................................................................
   1     -8.8324211 -0.883242E+01  0.305E-05    1.12       0.0  T
   2     -8.8324211  0.362395E-10  0.805E-05    1.12     555.5  T
   3     -8.8324211 -0.370513E-10  0.207E-05    1.12    2157.4  T
     SCC iter.                  ...        0 min,  0.001 sec
     gradient                   ...        0 min,  0.001 sec
 * total energy  :    -8.7820373 Eh     change       -0.9540475E-09 Eh
   gradient norm :     0.3678638 Eh/α   predicted     0.0000000E+00 (-100.00%)
   displ. norm   :     0.4126313 α      lambda       -0.1356547E+00
   maximum displ.:     0.2588182 α      in ANC's #7, #6, #2, ...

........................................................................
.............................. CYCLE    2 ..............................
........................................................................
   1     -8.9914713 -0.899147E+01  0.250E+00    3.15       0.0  T
   2     -8.9858698  0.560154E-02  0.196E+00    2.95       1.0  T
   3     -8.9895665 -0.369674E-02  0.148E+00    3.18       1.0  T
   4     -8.9966942 -0.712769E-02  0.142E-01    3.09       1.0  T
   5     -8.9967031 -0.885107E-05  0.638E-02    3.08       1.0  T
   6     -8.9967061 -0.304381E-05  0.683E-03    3.08       6.6  T
   7     -8.9967061 -0.665947E-09  0.419E-03    3.08      10.7  T
   8     -8.9967061 -0.275786E-07  0.356E-04    3.08     125.7  T
   9     -8.9967061 -0.272822E-09  0.637E-05    3.08     701.8  T
     SCC iter.                  ...        0 min,  0.001 sec
     gradient                   ...        0 min,  0.001 sec
 * total energy  :    -8.8981093 Eh     change       -0.1160720E+00 Eh
   gradient norm :     0.2304730 Eh/α   predicted    -0.7937597E-01 ( -31.61%)
   displ. norm   :     0.4867690 α      lambda       -0.1093031E+00
   maximum displ.:     0.3642486 α      in ANC's #7, #6, #5, ...

........................................................................
.............................. CYCLE    3 ..............................
........................................................................
   1     -9.2022338 -0.920223E+01  0.275E+00    7.54       0.0  T
   2     -9.2067337 -0.449982E-02  0.147E+00    7.23       1.0  T
   3     -9.2068026 -0.689318E-04  0.504E-01    7.19       1.0  T
   4     -9.2069051 -0.102481E-03  0.125E-01    7.17       1.0  T
   5     -9.2069565 -0.513968E-04  0.339E-02    7.19       1.3  T
   6     -9.2069567 -0.275028E-06  0.480E-03    7.19       9.3  T
   7     -9.2069567 -0.772178E-08  0.160E-03    7.19      28.0  T
   8     -9.2069568 -0.642825E-08  0.284E-04    7.19     157.5  T
   9     -9.2069568 -0.178773E-10  0.533E-05    7.19     839.5  T
     SCC iter.                  ...        0 min,  0.001 sec
     gradient                   ...        0 min,  0.001 sec
 * total energy  :    -8.8428480 Eh     change        0.5526125E-01 Eh
   gradient norm :     1.0325431 Eh/α   predicted    -0.6760091E-01 (-222.33%)
   displ. norm   :     0.3529601 α      lambda       -0.2748811E+00
   maximum displ.:     0.2530066 α      in ANC's #2, #7, #5, ...

........................................................................
.............................. CYCLE    4 ..............................
........................................................................
   1     -9.0856223 -0.908562E+01  0.211E+00    4.95       0.0  T
   2     -9.0928235 -0.720126E-02  0.134E+00    5.29       1.0  T
   3     -9.0931517 -0.328137E-03  0.708E-01    5.38       1.0  T
   4     -9.0931752 -0.235249E-04  0.547E-01    5.31       1.0  T
   5     -9.0940452 -0.870051E-03  0.545E-02    5.37       1.0  T
   6     -9.0940481 -0.289906E-05  0.136E-02    5.37       3.3  T
   7     -9.0940483 -0.138777E-06  0.345E-03    5.37      12.9  T
   8     -9.0940483 -0.286482E-07  0.933E-04    5.37      47.9  T
   9     -9.0940483 -0.106041E-08  0.187E-04    5.37     239.1  T
     SCC iter.                  ...        0 min,  0.001 sec
     gradient                   ...        0 min,  0.001 sec
 * total energy  :    -8.9449802 Eh     change       -0.1021322E+00 Eh
   gradient norm :     0.1026095 Eh/α   predicted    -0.1545630E+00 (  51.34%)
   displ. norm   :     0.3314854 α      lambda       -0.1101185E-01
   maximum displ.:     0.2953584 α      in ANC's #2, #7, #4, ...

........................................................................
.............................. CYCLE    5 ..............................
........................................................................
   1     -9.0863807 -0.908638E+01  0.115E+00    5.39       0.0  T
   2     -9.0865352 -0.154493E-03  0.650E-01    5.34       1.0  T
   3     -9.0858317  0.703535E-03  0.514E-01    5.30       1.0  T
   4     -9.0868151 -0.983485E-03  0.549E-02    5.32       1.0  T
   5     -9.0868226 -0.744196E-05  0.185E-02    5.32       2.4  T
   6     -9.0868228 -0.174831E-06  0.196E-03    5.32      22.8  T
   7     -9.0868228 -0.225263E-08  0.382E-04    5.32     117.1  T
   8     -9.0868228 -0.217021E-09  0.121E-04    5.32     368.6  T
     SCC iter.                  ...        0 min,  0.001 sec
     gradient                   ...        0 min,  0.001 sec
 * total energy  :    -8.9497208 Eh     change       -0.4740624E-02 Eh
   gradient norm :     0.1129243 Eh/α   predicted    -0.6110932E-02 (  28.91%)
   displ. norm   :     0.2713827 α      lambda       -0.7841024E-02
   maximum displ.:     0.2320355 α      in ANC's #1, #3, #4, ...

........................................................................
.............................. CYCLE    6 ..............................
........................................................................
   1     -9.1036803 -0.910368E+01  0.775E-01    5.58       0.0  T
   2     -9.1037159 -0.355589E-04  0.461E-01    5.57       1.0  T
   3     -9.1035185  0.197403E-03  0.349E-01    5.59       1.0  T
   4     -9.1039164 -0.397938E-03  0.188E-02    5.57       2.4  T
   5     -9.1039165 -0.644088E-07  0.841E-03    5.58       5.3  T
   6     -9.1039165 -0.617255E-08  0.119E-03    5.58      37.5  T
   7     -9.1039165 -0.551887E-09  0.108E-04    5.58     414.9  T
   8     -9.1039165 -0.365041E-11  0.522E-05    5.58     857.1  T
     SCC iter.                  ...        0 min,  0.001 sec
     gradient                   ...        0 min,  0.001 sec
 * total energy  :    -8.9540206 Eh     change       -0.4299753E-02 Eh
   gradient norm :     0.0607076 Eh/α   predicted    -0.4209254E-02 (  -2.10%)
   displ. norm   :     0.1975353 α      lambda       -0.4314193E-02
   maximum displ.:     0.1664840 α      in ANC's #1, #3, #6, ...

........................................................................
.............................. CYCLE    7 ..............................
........................................................................
   1     -9.1351260 -0.913513E+01  0.740E-01    5.96       0.0  T
   2     -9.1352504 -0.124463E-03  0.402E-01    5.89       1.0  T
   3     -9.1351502  0.100284E-03  0.206E-01    5.89       1.0  T
   4     -9.1352893 -0.139182E-03  0.324E-02    5.88       1.4  T
   5     -9.1352922 -0.289809E-05  0.884E-03    5.88       5.1  T
   6     -9.1352922 -0.120276E-07  0.616E-04    5.88      72.6  T
   7     -9.1352923 -0.295142E-09  0.119E-04    5.88     375.1  T
     SCC iter.                  ...        0 min,  0.000 sec
     gradient                   ...        0 min,  0.001 sec
 * total energy  :    -8.9534782 Eh     change        0.5423528E-03 Eh
   gradient norm :     0.0606909 Eh/α   predicted    -0.2241263E-02 (-513.25%)
   displ. norm   :     0.2176585 α      lambda       -0.5362741E-02
   maximum displ.:     0.1659820 α      in ANC's #1, #2, #4, ...

........................................................................
.............................. CYCLE    8 ..............................
........................................................................
   1     -9.1249587 -0.912496E+01  0.772E-01    5.76       0.0  T
   2     -9.1250552 -0.964692E-04  0.433E-01    5.81       1.0  T
   3     -9.1250620 -0.684237E-05  0.602E-02    5.81       1.0  T
   4     -9.1250689 -0.688817E-05  0.420E-02    5.81       1.1  T
   5     -9.1250752 -0.629669E-05  0.102E-02    5.81       4.4  T
   6     -9.1250752 -0.102506E-07  0.190E-03    5.81      23.5  T
   7     -9.1250752 -0.264142E-08  0.270E-04    5.81     165.5  T
   8     -9.1250752 -0.215312E-10  0.109E-04    5.81     411.3  T
     SCC iter.                  ...        0 min,  0.001 sec
     gradient                   ...        0 min,  0.001 sec
 * total energy  :    -8.9563423 Eh     change       -0.2864103E-02 Eh
   gradient norm :     0.0348327 Eh/α   predicted    -0.2808403E-02 (  -1.94%)
   displ. norm   :     0.0782690 α      lambda       -0.8200456E-03
   maximum displ.:     0.0573501 α      in ANC's #1, #4, #2, ...

........................................................................
.............................. CYCLE    9 ..............................
........................................................................
   1     -9.1208673 -0.912087E+01  0.260E-01    5.82       0.0  T
   2     -9.1209059 -0.386143E-04  0.180E-01    5.80       1.0  T
   3     -9.1209467 -0.408140E-04  0.967E-02    5.79       1.0  T
   4     -9.1209597 -0.129483E-04  0.252E-02    5.80       1.8  T
   5     -9.1209609 -0.125302E-05  0.562E-03    5.79       8.0  T
   6     -9.1209609 -0.296861E-07  0.715E-04    5.79      62.5  T
   7     -9.1209609 -0.177776E-09  0.104E-04    5.79     428.8  T
     SCC iter.                  ...        0 min,  0.001 sec
     gradient                   ...        0 min,  0.001 sec
 * total energy  :    -8.9566958 Eh     change       -0.3534575E-03 Eh
   gradient norm :     0.0158771 Eh/α   predicted    -0.4125358E-03 (  16.71%)
   displ. norm   :     0.0291488 α      lambda       -0.2075585E-03
   maximum displ.:     0.0233392 α      in ANC's #3, #6, #7, ...

........................................................................
.............................. CYCLE   10 ..............................
........................................................................
   1     -9.1248762 -0.912488E+01  0.851E-02    5.85       0.0  T
   2     -9.1248771 -0.830730E-06  0.519E-02    5.85       1.0  T
   3     -9.1248774 -0.324194E-06  0.352E-02    5.85       1.3  T
   4     -9.1248805 -0.307999E-05  0.332E-03    5.85      13.5  T
   5     -9.1248805 -0.110069E-07  0.775E-04    5.85      57.7  T
   6     -9.1248805 -0.167379E-09  0.205E-04    5.85     218.3  T
     SCC iter.                  ...        0 min,  0.001 sec
     gradient                   ...        0 min,  0.001 sec
 * total energy  :    -8.9568372 Eh     change       -0.1414199E-03 Eh
   gradient norm :     0.0053609 Eh/α   predicted    -0.1038686E-03 ( -26.55%)
   displ. norm   :     0.0456664 α      lambda       -0.9057516E-04
   maximum displ.:     0.0257716 α      in ANC's #1, #3, #2, ...

........................................................................
.............................. CYCLE   11 ..............................
........................................................................
   1     -9.1259892 -0.912599E+01  0.137E-01    5.86       0.0  T
   2     -9.1259912 -0.196578E-05  0.771E-02    5.86       1.0  T
   3     -9.1259857  0.545817E-05  0.419E-02    5.86       1.1  T
   4     -9.1259929 -0.715046E-05  0.433E-03    5.86      10.3  T
   5     -9.1259929 -0.297302E-07  0.170E-03    5.86      26.3  T
   6     -9.1259929 -0.117410E-08  0.230E-04    5.86     194.4  T
   7     -9.1259929 -0.197620E-10  0.291E-05    5.86    1537.6  T
     SCC iter.                  ...        0 min,  0.000 sec
     gradient                   ...        0 min,  0.001 sec
 * total energy  :    -8.9568817 Eh     change       -0.4443006E-04 Eh
   gradient norm :     0.0054356 Eh/α   predicted    -0.4538338E-04 (   2.15%)
   displ. norm   :     0.0062504 α      lambda       -0.1845762E-04
   maximum displ.:     0.0031716 α      in ANC's #4, #1, #3, ...

........................................................................
.............................. CYCLE   12 ..............................
........................................................................
   1     -9.1270508 -0.912705E+01  0.334E-02    5.89       0.0  T
   2     -9.1270516 -0.793376E-06  0.225E-02    5.89       2.0  T
   3     -9.1270519 -0.319385E-06  0.126E-02    5.88       3.5  T
   4     -9.1270521 -0.254307E-06  0.343E-03    5.88      13.0  T
   5     -9.1270522 -0.265817E-07  0.706E-04    5.88      63.4  T
   6     -9.1270522 -0.193465E-09  0.163E-04    5.88     273.9  T
     SCC iter.                  ...        0 min,  0.000 sec
     gradient                   ...        0 min,  0.001 sec
 * total energy  :    -8.9568916 Eh     change       -0.9977293E-05 Eh
   gradient norm :     0.0022608 Eh/α   predicted    -0.9227548E-05 (  -7.51%)
   displ. norm   :     0.0086337 α      lambda       -0.1015156E-04
   maximum displ.:     0.0047070 α      in ANC's #4, #3, #2, ...

........................................................................
.............................. CYCLE   13 ..............................
........................................................................
   1     -9.1267971 -0.912680E+01  0.423E-02    5.89       0.0  T
   2     -9.1267973 -0.185357E-06  0.245E-02    5.89       1.8  T
   3     -9.1267966  0.656456E-06  0.165E-02    5.89       2.7  T
   4     -9.1267976 -0.969258E-06  0.135E-03    5.89      33.1  T
   5     -9.1267976 -0.954563E-09  0.337E-04    5.89     132.8  T
   6     -9.1267976 -0.551488E-10  0.326E-05    5.89    1370.4  T
     SCC iter.                  ...        0 min,  0.000 sec
     gradient                   ...        0 min,  0.001 sec
 * total energy  :    -8.9569006 Eh     change       -0.8961102E-05 Eh
   gradient norm :     0.0021795 Eh/α   predicted    -0.5075872E-05 ( -43.36%)
   displ. norm   :     0.0379148 α      lambda       -0.3651710E-04
   maximum displ.:     0.0256968 α      in ANC's #4, #3, #6, ...

........................................................................
.............................. CYCLE   14 ..............................
........................................................................
   1     -9.1256553 -0.912566E+01  0.194E-01    5.90       0.0  T
   2     -9.1256590 -0.370868E-05  0.110E-01    5.90       1.0  T
   3     -9.1256451  0.139838E-04  0.713E-02    5.90       1.0  T
   4     -9.1256640 -0.189324E-04  0.586E-03    5.90       7.6  T
   5     -9.1256640 -0.181971E-07  0.196E-03    5.90      22.8  T
   6     -9.1256640  0.658726E-10  0.731E-04    5.90      61.2  T
   7     -9.1256640 -0.443327E-09  0.490E-05    5.90     912.6  T
     SCC iter.                  ...        0 min,  0.000 sec
     gradient                   ...        0 min,  0.001 sec
 * total energy  :    -8.9569176 Eh     change       -0.1703931E-04 Eh
   gradient norm :     0.0010246 Eh/α   predicted    -0.1828384E-04 (   7.30%)
   displ. norm   :     0.0068366 α      lambda       -0.1627149E-05
   maximum displ.:     0.0035707 α      in ANC's #3, #1, #4, ...

........................................................................
.............................. CYCLE   15 ..............................
........................................................................
   1     -9.1258500 -0.912585E+01  0.291E-02    5.90       0.0  T
   2     -9.1258501 -0.117581E-06  0.178E-02    5.90       2.5  T
   3     -9.1258500  0.139979E-06  0.120E-02    5.90       3.7  T
   4     -9.1258504 -0.421414E-06  0.110E-03    5.90      40.6  T
   5     -9.1258504 -0.105310E-08  0.362E-04    5.90     123.7  T
   6     -9.1258504 -0.434319E-11  0.130E-04    5.90     344.9  T
     SCC iter.                  ...        0 min,  0.000 sec
     gradient                   ...        0 min,  0.001 sec
 * total energy  :    -8.9569187 Eh     change       -0.1024187E-05 Eh
   gradient norm :     0.0002927 Eh/α   predicted    -0.8145616E-06 ( -20.47%)
   displ. norm   :     0.0037329 α      lambda       -0.2599839E-06
   maximum displ.:     0.0024930 α      in ANC's #4, #1, #6, ...

   *** GEOMETRY OPTIMIZATION CONVERGED AFTER 15 ITERATIONS ***

------------------------------------------------------------------------
 total energy gain   :        -0.1748814 Eh     -109.7397 kcal/mol
 total RMSD          :         0.6791046 a0        0.3594 Å
 total power (kW/mol):       -30.6100648 (step)********** (real)
------------------------------------------------------------------------

 ANCopt (total)                0 d,  0 h,  0 min,  0.035 sec
 optimizer setup                ...        0 min,  0.000 sec (  0.258%)
 model hessian                  ...        0 min,  0.000 sec (  0.396%)
 ANC generation                 ...        0 min,  0.000 sec (  0.205%)
 coordinate transformation      ...        0 min,  0.000 sec (  0.123%)
 single point calculation       ...        0 min,  0.033 sec ( 94.874%)
 optimization log               ...        0 min,  0.000 sec (  1.270%)
 hessian update                 ...        0 min,  0.000 sec (  0.112%)
 rational function              ...        0 min,  0.000 sec (  1.309%)

================
 final structure:
================
5
 xtb: 6.2.2 (9d81278992624c895f80dd42a50cac0aa55982e2)
C         0.75001462959814   -0.02952463495123    0.00700097569313
N        -0.55551642339730   -0.01807381888003   -0.18556615499215
N         1.89090455679074   -0.05312313541127    0.11258678137096
H        -1.00865837547040    0.88229965304524   -0.15158427340176
H        -1.07674438752118   -0.78157906380271    0.21756267132982

 Bond Distances (Angstroems)
 ---------------------------
C1-N2=1.3197         C1-N3=1.1460         N2-C1=1.3197         N2-H4=1.0085         N2-H5=1.0085         N3-C1=1.1460         
H4-N2=1.0085         H5-N2=1.0085         
 N  H  Rav=1.0085 sigma=0.0000  Rmin=1.0085  Rmax=1.0085     2
 N  C  Rav=1.2329 sigma=0.0868  Rmin=1.1460  Rmax=1.3197     2

 selected bond angles (degree)
 --------------------
N3-C1-N2=176.82                H4-N2-C1=116.57                H5-N2-C1=116.51                H5-N2-H4=115.48                

 selected dihedral angles (degree)
 ---------------------------------
H4-N2-C1-N3=251.22            H5-N2-C1-N3=109.32            
           -------------------------------------------------
          |                Final Singlepoint                |
           -------------------------------------------------

          ...................................................
          :                      SETUP                      :
          :.................................................:
          :  # basis functions                  14          :
          :  # atomic orbitals                  14          :
          :  # shells                            8          :
          :  # electrons                        16          :
          :  max. iterations                   250          :
          :  Hamiltonian                  GFN2-xTB          :
          :  restarted?                      false          :
          :  GBSA solvation                  false          :
          :  PC potential                    false          :
          :  electronic temp.          300.0000000     K    :
          :  accuracy                    1.0000000          :
          :  -> integral cutoff          0.2500000E+02      :
          :  -> integral neglect         0.1000000E-07      :
          :  -> SCF convergence          0.1000000E-05 Eh   :
          :  -> wf. convergence          0.1000000E-03 e    :
          :  Broyden damping             0.4000000          :
          ...................................................

 iter      E             dE          RMSdq      gap      omega  full diag
   1     -9.1258504 -0.912585E+01  0.227E-05    5.90       0.0  T
   2     -9.1258504 -0.355271E-13  0.116E-05    5.90    3863.8  T
   3     -9.1258504  0.166978E-12  0.926E-06    5.90    4831.2  T

   *** convergence criteria satisfied after 3 iterations ***

         #    Occupation            Energy/Eh            Energy/eV
      -------------------------------------------------------------
         1        2.0000           -0.6646672             -18.0865
         2        2.0000           -0.6359910             -17.3062
         3        2.0000           -0.5826619             -15.8550
         4        2.0000           -0.5752426             -15.6531
         5        2.0000           -0.5090990             -13.8533
         6        2.0000           -0.4622992             -12.5798
         7        2.0000           -0.4222786             -11.4908
         8        2.0000           -0.4113385             -11.1931 (HOMO)
         9                         -0.1946200              -5.2959 (LUMO)
        10                         -0.1626614              -4.4262
        11                          0.0087834               0.2390
        12                          0.2249431               6.1210
        13                          0.2327712               6.3340
        14                          1.2042999              32.7707
      -------------------------------------------------------------
                  HL-Gap            0.2167185 Eh            5.8972 eV
             Fermi-level           -0.3029793 Eh           -8.2445 eV

 SCC (total)                   0 d,  0 h,  0 min,  0.002 sec
 SCC setup                      ...        0 min,  0.000 sec (  2.811%)
 Dispersion                     ...        0 min,  0.000 sec (  0.572%)
 integral evaluation            ...        0 min,  0.001 sec ( 39.759%)
 zeroth order Hamiltonian       ...        0 min,  0.000 sec (  0.572%)
 iterations                     ...        0 min,  0.000 sec ( 12.635%)
 molecular gradient             ...        0 min,  0.001 sec ( 39.112%)
 printout                       ...        0 min,  0.000 sec (  4.129%)

         :::::::::::::::::::::::::::::::::::::::::::::::::::::
         ::                     SUMMARY                     ::
         :::::::::::::::::::::::::::::::::::::::::::::::::::::
         :: total energy              -8.956918658285 Eh    ::
         :: gradient norm              0.000297972424 Eh/a0 ::
         :: HOMO-LUMO gap              5.897211566063 eV    ::
         ::.................................................::
         :: SCC energy                -9.125850385974 Eh    ::
         :: -> isotropic ES            0.018834244305 Eh    ::
         :: -> anisotropic ES          0.004592299399 Eh    ::
         :: -> anisotropic XC          0.015840739604 Eh    ::
         :: -> dispersion             -0.001384921573 Eh    ::
         :: repulsion energy           0.168931716923 Eh    ::
         :: add. restraining           0.000000000000 Eh    ::
         :::::::::::::::::::::::::::::::::::::::::::::::::::::

           ------------------------------------------------- 
          |                Numerical Hessian                |
           ------------------------------------------------- 
step length          :   0.00500
SCC accuracy         :   0.30000
Hessian scale factor :   1.00000
frozen atoms in %    :   0.00000    0
RMS gradient         :   0.00030
estimated CPU  time      0.00 min
estimated wall time      0.00 min

writing file <hessian>.

 projected vibrational frequencies (cm-1)
eigval :       -0.00    -0.00    -0.00     0.00     0.00     0.00
eigval :      407.33   452.83   506.29  1017.40  1146.98  1441.53
eigval :     2441.08  3437.23  3480.10
           -------------------------------------------------
          |                Property Printout                |
           -------------------------------------------------

    * Orbital Energies and Occupations

         #    Occupation            Energy/Eh            Energy/eV
      -------------------------------------------------------------
         1        2.0000           -0.6646672             -18.0865
         2        2.0000           -0.6359910             -17.3062
         3        2.0000           -0.5826619             -15.8550
         4        2.0000           -0.5752426             -15.6531
         5        2.0000           -0.5090990             -13.8533
         6        2.0000           -0.4622992             -12.5798
         7        2.0000           -0.4222786             -11.4908
         8        2.0000           -0.4113385             -11.1931 (HOMO)
         9                         -0.1946200              -5.2959 (LUMO)
        10                         -0.1626614              -4.4262
        11                          0.0087834               0.2390
        12                          0.2249431               6.1210
        13                          0.2327712               6.3340
        14                          1.2042999              32.7707
      -------------------------------------------------------------
                  HL-Gap            0.2167185 Eh            5.8972 eV
             Fermi-level           -0.3029793 Eh           -8.2445 eV

     #   Z        covCN         q      C6AA      α(0)
     1   6 C      1.821     0.167    27.159     8.420
     2   7 N      2.631    -0.242    26.325     7.620
     3   7 N      0.911    -0.292    27.529     7.588
     4   1 H      0.860     0.184     1.192     1.710
Molecule has the following symmetry elements: (sigma) 
It seems to be the Cs point group
     5   1 H      0.860     0.184     1.192     1.710

 Mol. C6AA /au·bohr⁶  :        314.895619
 Mol. C8AA /au·bohr⁸  :       7095.305345
 Mol. α(0) /au        :         27.048938


Wiberg/Mayer (AO) data.
largest (>0.10) Wiberg bond orders for each atom
          total WBO             WBO to atom ...
     1  C   3.953        N    3 2.717    N    2 1.227
     2  N   3.286        C    1 1.227    H    4 0.931    H    5 0.931    N    3 0.196
     3  N   2.974        C    1 2.717    N    2 0.196
     4  H   0.966        N    2 0.931
     5  H   0.966        N    2 0.931

MOs/occ written to file <molden.input>


molecular dipole:
                 x           y           z       tot (Debye)
 q only:       -1.279       0.063       0.048
   full:       -1.873       0.119       0.187       4.793
molecular quadrupole (traceless):
                xx          xy          yy          xz          yz          zz
 q only:       -2.691       0.077       2.025      -0.542      -0.294       0.666
  q+dip:       -4.057       0.058       3.295      -1.127      -0.543       0.762
   full:       -5.457       0.102       4.132      -1.350      -0.597       1.325

           -------------------------------------------------
          |                Geometry Summary                 |
           -------------------------------------------------

      molecular mass/u    :       42.0400238
   center of mass at/Å    :        0.6091966      -0.0297446      -0.0207350
  moments of inertia/u·Å² :        0.1602699E+01   0.4841686E+02   0.4974667E+02
rotational constants/cm⁻¹ :        0.1051828E+02   0.3481769E+00   0.3388696E+00

 * 4 selected distances

     #   Z        #   Z                                     value/Å
     1   6 C      2   7 N                                 1.3197062 (max)
     1   6 C      3   7 N                                 1.1460083
     2   7 N      4   1 H                                 1.0085459
     2   7 N      5   1 H                                 1.0085295 (min)

 * 2 distinct bonds (by element types)

   Z      Z             #   av. dist./Å        max./Å        min./Å
   1 H    7 N           2     1.0085377     1.0085459     1.0085295
   6 C    7 N           2     1.2328573     1.3197062     1.1460083

           -------------------------------------------------
          |               Frequency Printout                |
           -------------------------------------------------
 projected vibrational frequencies (cm-1)
eigval :       -0.00    -0.00    -0.00     0.00     0.00     0.00
eigval :      407.33   452.83   506.29  1017.40  1146.98  1441.53
eigval :     2441.08  3437.23  3480.10
 reduced masses (amu)
   1:  6.95   2: 13.27   3: 13.37   4: 11.74   5: 12.03   6:  7.05   7: 10.05   8:  7.77
   9:  8.02  10:  4.58  11: 11.84  12:  3.13  13: 12.73  14:  1.45  15:  2.16
 IR intensities (amu)
   1:  0.11   2:  0.29   3:  0.28   4:  0.22   5:  0.25   6:  0.15   7:  0.39   8:  0.36
   9:  1.05  10:  0.30  11:  0.87  12:  0.60  13:  2.34  14:  0.21  15:  0.15
 Raman intensities (amu)
   1:  0.00   2:  0.00   3:  0.00   4:  0.00   5:  0.00   6:  0.00   7:  0.00   8:  0.00
   9:  0.00  10:  0.00  11:  0.00  12:  0.00  13:  0.00  14:  0.00  15:  0.00
 output can be read by thermo (or use thermo option).
 writing <g98.out> molden fake output.
 recommended (thermochemical) frequency scaling factor: 1.0
           -------------------------------------------------
          |             Thermodynamic Functions             |
           -------------------------------------------------

cs  symmetry found (for desy threshold:  0.10E+00) used in thermo

          ...................................................
          :                      SETUP                      :
          :.................................................:
          :  # frequencies                           9      :
          :  # imaginary freq.                       0      :
          :  linear?                             false      :
          :  only rotor calc.                    false      :
          :  symmetry                               cs      :
          :  rotational number                       1      :
          :  scaling factor                  1.0000000      :
          :  rotor cutoff                   50.0000000 cm⁻¹ :
          :  imag. cutoff                  -20.0000000 cm⁻¹ :
          :.................................................:

    mode    ω/cm⁻¹     T·S(HO)/kcal·mol⁻¹    T·S(FR)/kcal·mol⁻¹   T·S(vib)
   ------------------------------------------------------------------------
   ------------------------------------------------------------------------

   temp. (K)  partition function   enthalpy   heat capacity  entropy
                                   cal/mol     cal/K/mol   cal/K/mol   J/K/mol
 298.15  VIB   1.45                  530.070      4.740      2.520
         ROT  0.475E+04              888.752      2.981     19.803
         INT  0.689E+04             1418.822      7.721     22.323
         TR   0.264E+27             1481.254      4.968     37.118
         TOT                        2900.0758    12.6888    59.4416   248.7036

   temp. (K)  partition function   enthalpy   heat capacity  entropy
                                   cal/mol     cal/K/mol   cal/K/mol   J/K/mol
 120.00  VIB   1.01                   17.955      0.795      0.178
         ROT  0.121E+04              357.707      2.981     17.090
         INT  0.123E+04              375.662      3.776     17.269
         TR   0.673E+26              596.178      4.968     32.599
         TOT                         971.8402     8.7443    49.8674   208.6453

   temp. (K)  partition function   enthalpy   heat capacity  entropy
                                   cal/mol     cal/K/mol   cal/K/mol   J/K/mol
 100.00  VIB   1.01                    6.244      0.394      0.073
         ROT   922.                  298.089      2.981     16.547
         INT   927.                  304.333      3.374     16.619
         TR   0.512E+26              496.815      4.968     31.693
         TOT                         801.1476     8.3426    48.3129   202.1410

   temp. (K)  partition function   enthalpy   heat capacity  entropy
                                   cal/mol     cal/K/mol   cal/K/mol   J/K/mol
  80.00  VIB   1.00                    1.304      0.127      0.018
         ROT   660.                  238.471      2.981     15.882
         INT   660.                  239.775      3.108     15.900
         TR   0.367E+26              397.452      4.968     30.585
         TOT                         637.2275     8.0760    46.4855   194.4954

   temp. (K)  partition function   enthalpy   heat capacity  entropy
                                   cal/mol     cal/K/mol   cal/K/mol   J/K/mol
  60.00  VIB   1.00                    0.099      0.017      0.002
         ROT   428.                  178.853      2.981     15.024
         INT   429.                  178.953      2.998     15.026
         TR   0.238E+26              298.089      4.968     29.157
         TOT                         477.0417     7.9660    44.1827   184.8604

   temp. (K)  partition function   enthalpy   heat capacity  entropy
                                   cal/mol     cal/K/mol   cal/K/mol   J/K/mol
  40.00  VIB   1.00                    0.001      0.000     -0.000
         ROT   233.                  119.236      2.981     13.815
         INT   233.                  119.236      2.981     13.815
         TR   0.130E+26              198.726      4.968     27.143
         TOT                         317.9622     7.9493    40.9586   171.3709

   temp. (K)  partition function   enthalpy   heat capacity  entropy
                                   cal/mol     cal/K/mol   cal/K/mol   J/K/mol
  20.00  VIB   1.00                    0.000      0.000     -0.001
         ROT   82.5                   59.618      2.981     11.749
         INT   82.5                   59.618      2.981     11.749
         TR   0.458E+25               99.363      4.968     23.701
         TOT                         158.9808     7.9490    35.4501   148.3232

   temp. (K)  partition function   enthalpy   heat capacity  entropy
                                   cal/mol     cal/K/mol   cal/K/mol   J/K/mol
  10.00  VIB   1.00                    0.000      0.000     -0.001
         ROT   29.2                   29.809      2.981      9.683
         INT   29.2                   29.809      2.981      9.682
         TR   0.162E+25               49.681      4.968     20.259
         TOT                          79.4904     7.9490    29.9416   125.2757

       T/K    H(0)-H(T)+PV         H(T)/Eh          T*S/Eh         G(T)/Eh
   ------------------------------------------------------------------------
    298.15    0.462156E-02    0.372694E-01    0.282426E-01    0.902684E-02
    120.00    0.154873E-02    0.341966E-01    0.953625E-02    0.246604E-01
    100.00    0.127671E-02    0.339246E-01    0.769914E-02    0.262254E-01
     80.00    0.101549E-02    0.336634E-01    0.592635E-02    0.277370E-01
     60.00    0.760214E-03    0.334081E-01    0.422458E-02    0.291835E-01
     40.00    0.506705E-03    0.331546E-01    0.261087E-02    0.305437E-01
     20.00    0.253352E-03    0.329012E-01    0.112987E-02    0.317714E-01
     10.00    0.126676E-03    0.327746E-01    0.477150E-03    0.322974E-01 (used)
   ------------------------------------------------------------------------

         :::::::::::::::::::::::::::::::::::::::::::::::::::::
         ::                  THERMODYNAMIC                  ::
         :::::::::::::::::::::::::::::::::::::::::::::::::::::
         :: total free energy          -8.924621248277 Eh   ::
         ::.................................................::
         :: total energy               -8.956918658263 Eh   ::
         :: zero point energy           0.032647883725 Eh   ::
         :: G(RRHO) w/o ZPVE           -0.000350473738 Eh   ::
         :: G(RRHO) contrib.            0.032297409986 Eh   ::
         :::::::::::::::::::::::::::::::::::::::::::::::::::::

optimized geometry written to: xtbopt.xyz


           -------------------------------------------------
          | TOTAL ENERGY               -8.956918658263 Eh   |
          | TOTAL ENTHALPY             -8.924144098523 Eh   |
          | TOTAL FREE ENERGY          -8.924621248277 Eh   |
          | GRADIENT NORM               0.000297941464 Eh/α |
          | HOMO-LUMO GAP               5.897211647730 eV   |
           -------------------------------------------------

------------------------------------------------------------------------
 * finished run on 2020/05/12 at 11:45:22.721     
------------------------------------------------------------------------
 total:
 * wall-time:     0 d,  0 h,  0 min,  0.118 sec
 *  cpu-time:     0 d,  0 h,  0 min,  0.117 sec
 * ratio c/w:     0.992 speedup
 SCF:
 * wall-time:     0 d,  0 h,  0 min,  0.003 sec
 *  cpu-time:     0 d,  0 h,  0 min,  0.003 sec
 * ratio c/w:     1.000 speedup
 ANC optimizer:
 * wall-time:     0 d,  0 h,  0 min,  0.038 sec
 *  cpu-time:     0 d,  0 h,  0 min,  0.038 sec
 * ratio c/w:     0.993 speedup
 numerical hessian:
 * wall-time:     0 d,  0 h,  0 min,  0.059 sec
 *  cpu-time:     0 d,  0 h,  0 min,  0.058 sec
 * ratio c/w:     0.988 speedup

