$hessian                                                                        
        1.3932415789   0.0034994835  -0.0000045255  -0.4885792533  -0.0010641446
        0.0000016025  -0.9046793575  -0.0025839994   0.0000010774
        0.0034994835   0.0203023365  -0.0000000177  -0.0013010628  -0.0095823883
        0.0000000060  -0.0021984613  -0.0107743870   0.0000000064
       -0.0000045255  -0.0000000177   0.0202332494   0.0000016080   0.0000000031
       -0.0095796202   0.0000029176   0.0000000119  -0.0107451453
       -0.4885792533  -0.0013010628   0.0000016080   0.5760893535   0.0015408613
       -0.0000009921  -0.0875094553  -0.0002348355   0.0000000874
       -0.0010641446  -0.0095823883   0.0000000031   0.0015408613   0.0044816007
       -0.0000000045  -0.0004767145   0.0051108138   0.0000000038
        0.0000016025   0.0000000060  -0.0095796202  -0.0000009921  -0.0000000045
        0.0044790607  -0.0000006104  -0.0000000014   0.0051175237
       -0.9046793575  -0.0021984613   0.0000029176  -0.0875094553  -0.0004767145
       -0.0000006104   0.9922051997   0.0028188731  -0.0000011649
       -0.0025839994  -0.0107743870   0.0000000119  -0.0002348355   0.0051108138
       -0.0000000014   0.0028188731   0.0057079857  -0.0000000075
        0.0000010774   0.0000000064  -0.0107451453   0.0000000874   0.0000000038
        0.0051175237  -0.0000011649  -0.0000000075   0.0057021736
