 Entering Gaussian System
 *********************************************
 Gaussian 98:
 frequency output generated by the xtb code
 *********************************************
                         Standard orientation:
 --------------------------------------------------------------------
  Center     Atomic     Atomic              Coordinates (Angstroms)
  Number     Number      Type              X           Y           Z
 --------------------------------------------------------------------
    1          6             0       -0.051573   -0.000169    0.000000
    2          6             0        1.266873    0.003383   -0.000004
    3          8             0       -1.215299   -0.003214    0.000004
 --------------------------------------------------------------------
     1 basis functions        1 primitive gaussians
     1 alpha electrons        1 beta electrons

 Harmonic frequencies (cm**-1), IR intensities (KM/Mole),
 Raman scattering activities (A**4/amu), Raman depolarization ratios,
 reduced masses (AMU), force constants (mDyne/A) and normal coordinates:
                      1                      2                      3
                        a                      a                      a 
 Frequencies --   252.8143               253.0430              1241.4637
 Red. masses --    12.5999                12.5992                13.4196
 Frc consts  --     0.0000                 0.0000                 0.0000
 IR Inten    --     0.8561                 0.8560                 0.4110
 Raman Activ --     0.0000                 0.0000                 0.0000
 Depolar     --     0.0000                 0.0000                 0.0000
 Atom AN      X      Y      Z        X      Y      Z        X      Y      Z
   1   6    -0.00  -0.00  -0.83    -0.00   0.84  -0.00    -0.11  -0.00   0.00
   2   6     0.00   0.00   0.39     0.00  -0.39   0.00     0.80   0.00  -0.00
   3   8     0.00   0.00   0.38     0.00  -0.38   0.00    -0.59  -0.00   0.00
                      4
                        a 
 Frequencies --  2104.8102
 Red. masses --    12.9960
 Frc consts  --     0.0000
 IR Inten    --     1.7123
 Raman Activ --     0.0000
 Depolar     --     0.0000
 Atom AN      X      Y      Z        X      Y      Z        X      Y      Z
   1   6     0.83   0.00  -0.00
   2   6    -0.26  -0.00   0.00
   3   8    -0.50  -0.00   0.00
