3
 energy: -7.994746870788 gnorm: 0.313709133161 xtb: 6.2.2 (9d81278992624c895f80dd42a50cac0aa55982e2)
C        -0.05868500000000    0.55749800000000    0.00000000000000
C         1.21678500000000   -0.25820600000000    0.00000000000000
O        -1.15810000000000   -0.29929200000000    0.00000000000000
3
 energy: -8.080093262566 gnorm: 0.184668439137 xtb: 6.2.2 (9d81278992624c895f80dd42a50cac0aa55982e2)
C        -0.05325518166605    0.39579542290095    0.00000000000000
C         1.20566686711417   -0.18158180419938    0.00000000000000
O        -1.15241168544812   -0.21421361870157    0.00000000000000
3
 energy: -8.101706191551 gnorm: 0.191593277571 xtb: 6.2.2 (9d81278992624c895f80dd42a50cac0aa55982e2)
C        -0.05917949697755    0.23301959324277    0.00000000000000
C         1.16674727381861   -0.10903797818770    0.00000000000000
O        -1.10756777684106   -0.12398161505507    0.00000000000000
3
 energy: -8.113470563700 gnorm: 0.123314760605 xtb: 6.2.2 (9d81278992624c895f80dd42a50cac0aa55982e2)
C        -0.03754380408322    0.09523054794675    0.00000000000000
C         1.29320446748763   -0.03525747563362    0.00000000000000
O        -1.25566066340441   -0.05997307231313    0.00000000000000
3
 energy: -8.119128877369 gnorm: 0.030309379373 xtb: 6.2.2 (9d81278992624c895f80dd42a50cac0aa55982e2)
C        -0.04840932389709    0.13196634971943    0.00000000000000
C         1.25542692613890   -0.05683725246116    0.00000000000000
O        -1.20701760224181   -0.07512909725826    0.00000000000000
3
 energy: -8.120046671008 gnorm: 0.011792974370 xtb: 6.2.2 (9d81278992624c895f80dd42a50cac0aa55982e2)
C        -0.05250443943932    0.10503407716236    0.00000000000000
C         1.25891520516666   -0.04578643955021    0.00000000000000
O        -1.20641076572734   -0.05924763761215    0.00000000000000
3
 energy: -8.120875011018 gnorm: 0.006746893511 xtb: 6.2.2 (9d81278992624c895f80dd42a50cac0aa55982e2)
C        -0.05118934748702    0.05215673162177    0.00000000000000
C         1.26574246925182   -0.02071515843406    0.00000000000000
O        -1.21455312176479   -0.03144157318771    0.00000000000000
3
 energy: -8.121068089146 gnorm: 0.006744448918 xtb: 6.2.2 (9d81278992624c895f80dd42a50cac0aa55982e2)
C        -0.05159836600073    0.01939625453865    0.00000000000000
C         1.26927476947895   -0.00563567246859    0.00000000000000
O        -1.21767640347823   -0.01376058207007    0.00000000000000
3
 energy: -8.121117704421 gnorm: 0.002024267731 xtb: 6.2.2 (9d81278992624c895f80dd42a50cac0aa55982e2)
C        -0.05115409670244    0.00551056967571    0.00000000000000
C         1.26668681090074    0.00090799042436    0.00000000000000
O        -1.21553271419830   -0.00641856010007    0.00000000000000
3
 energy: -8.121119356378 gnorm: 0.001560483134 xtb: 6.2.2 (9d81278992624c895f80dd42a50cac0aa55982e2)
C        -0.05192692990952   -0.00344234462725    0.00000000000000
C         1.26764982151751    0.00479044316169    0.00000000000000
O        -1.21572289160799   -0.00134809853445    0.00000000000000
3
 energy: -8.121121261854 gnorm: 0.000374659346 xtb: 6.2.2 (9d81278992624c895f80dd42a50cac0aa55982e2)
C        -0.05157336396721   -0.00016928438599    0.00000000000000
C         1.26687260853871    0.00338934275730    0.00000000000000
O        -1.21529924457149   -0.00322005837131    0.00000000000000
