[Molden Format]
[Title]
[Atoms] AU
C      1     6 -0.97459525854458E-01 -0.31939080014166E-03  0.34075624962014E-06
C      2     6  0.23940420762981E+01  0.63923937846189E-02 -0.83679619245960E-05
O      3     8 -0.22965825504437E+01 -0.60730029844779E-02  0.80272056758720E-05
[GTO]
           1 0
 s           4   1.0000000000000000     
   51.049363095579913      -0.16312063210127389     
   8.7911227406887544      -0.19911024581000730     
  0.70640422258929825       0.31882047753655751     
  0.26922813413411617       0.12706504184240380     
 p           4   1.0000000000000000     
   5.8263656140800002       0.73716451545209605     
   1.5106896018720002       0.68216371614850257     
  0.53256483288000001       0.35783053929253711     
  0.21202323690600003        5.3983030275847881E-002

           2 0
 s           4   1.0000000000000000     
   51.049363095579913      -0.16312063210127389     
   8.7911227406887544      -0.19911024581000730     
  0.70640422258929825       0.31882047753655751     
  0.26922813413411617       0.12706504184240380     
 p           4   1.0000000000000000     
   5.8263656140800002       0.73716451545209605     
   1.5106896018720002       0.68216371614850257     
  0.53256483288000001       0.35783053929253711     
  0.21202323690600003        5.3983030275847881E-002

           3 0
 s           4   1.0000000000000000     
   69.137961906196551      -0.20478756370077797     
   11.906129132707308      -0.24997023136827334     
  0.95670827744340703       0.40025880240639616     
  0.36462520496073686       0.15952206667693555     
 p           4   1.0000000000000000     
   8.2124193257781641        1.1321556799186829     
   2.1293576997098116        1.0476840782254817     
  0.75066448202360914       0.54956508217158984     
  0.29885246543283073        8.2908486592766617E-002

[MO]
Sym=     1a
Ene=  -0.80009924596804927     
Spin= Alpha
Occup=     2.00000000
           1  0.33029727857355162     
           2 -0.22217700463358137     
           3  -5.8077484479505351E-004
           4   7.7495312957444346E-007
           5   2.2850067685961269E-002
           6  -3.0151710818101821E-002
           7  -8.0287763091735633E-005
           8   1.0515858427012332E-007
           9  0.65343349074587220     
          10  0.23962327389668517     
          11   6.2581841834049743E-004
          12  -8.4939728629220855E-007
Sym=     2a
Ene=  -0.70119497036596456     
Spin= Alpha
Occup=     2.00000000
           1 -0.44215115812785716     
           2 -0.25743006044549788     
           3  -6.9553847648254775E-004
           4   8.9444776683113394E-007
           5 -0.45124755699751812     
           6  0.15542939525636443     
           7   4.1747893549544222E-004
           8  -5.4296798051110151E-007
           9  0.34791848814575915     
          10 -0.28267684594017389     
          11  -7.5520028799055787E-004
          12   9.7485768077702735E-007
Sym=     3a
Ene=  -0.63003171351306198     
Spin= Alpha
Occup=     2.00000000
           1  -6.3509868760636454E-002
           2  0.28510425816606116     
           3   9.3952729966953312E-004
           4  -1.1752546799974033E-006
           5  0.41902938852438382     
           6  -2.5297241910571706E-002
           7  -2.9219606465406556E-005
           8   4.6704668766408361E-008
           9  0.53235285231410967     
          10 -0.62542179993030222     
          11  -1.3735657016192852E-003
          12   1.9122585807906836E-006
Sym=     4a
Ene=  -0.62504775246730415     
Spin= Alpha
Occup=     2.00000000
           1   7.6288194475228169E-007
           2   9.0359582618957149E-004
           3 -0.31473273672813895     
           4  0.38501431841410633     
           5   1.0391487725048647E-004
           6   1.9534196675225738E-004
           7  -7.5122004413921084E-002
           8   9.1897100419137442E-002
           9   1.1933108803064617E-004
          10   1.0725772633792953E-003
          11 -0.46375663331490224     
          12  0.56731525228138058     
Sym=     5a
Ene=  -0.62504774866274382     
Spin= Alpha
Occup=     2.00000000
           1  -9.7088442854894314E-007
           2  -1.1024705373015571E-003
           3  0.38501272066353137     
           4  0.31473404619955275     
           5  -1.2688472251435687E-004
           6  -2.3831594849335396E-004
           7   9.1896785101672582E-002
           8   7.5122259665275956E-002
           9  -1.4565149088777770E-004
          10  -1.3084070992477694E-003
          11  0.56731373903986637     
          12  0.46375788800484374     
Sym=     6a
Ene=  -0.47193299170020664     
Spin= Alpha
Occup=     2.00000000
           1 -0.23031944501628182     
           2 -0.22633245234086979     
           3  -5.6964682654675870E-004
           4   7.8888790121478567E-007
           5  0.64791032585781516     
           6  0.64873100405984396     
           7   1.7842527039604250E-003
           8  -2.2670597465725152E-006
           9  -3.6542851775306029E-002
          10  0.22568606324801505     
          11   5.5309398855728556E-004
          12  -7.8828745593393552E-007
Sym=     7a
Ene=  -0.43261934357053566     
Spin= Alpha
Occup=     1.00000000
           1  -1.2463143999613746E-006
           2  -6.7776565771079716E-004
           3  0.25889349363272485     
           4  0.31298163071589558     
           5  -2.1234596340237591E-005
           6  -1.2819897257169768E-003
           7  0.46430169740485083     
           8  0.56130402333765350     
           9  -3.0496394536745193E-006
          10   8.7931626045261054E-004
          11 -0.34016510521979548     
          12 -0.41123250972068209     
Sym=     8a
Ene=  -0.43261934261675239     
Spin= Alpha
Occup=     1.00000000
           1   1.5078689038150811E-006
           2   8.2159091909061804E-004
           3 -0.31298054041594009     
           4  0.25889436766561447     
           5   2.5669694929343512E-005
           6   1.5538144980690126E-003
           7 -0.56130187826666711     
           8  0.46430347297473756     
           9   3.6765741504637210E-006
          10  -1.0659406204765484E-003
          11  0.41123112887462593     
          12 -0.34016624402642215     
Sym=     9a
Ene=  -0.22240776059698955     
Spin= Alpha
Occup=     0.00000000
           1  -3.8527839722653912E-005
           2  -1.6123781439355417E-003
           3  0.60913003500056029     
           4  0.57752206224058622     
           5   1.1027167478980778E-006
           6   1.3664318094227565E-003
           7 -0.51748957196178669     
           8 -0.49063684538595614     
           9   3.7468613716119502E-006
          10   9.4957381821328412E-004
          11 -0.35621082287688982     
          12 -0.33772693324330744     
Sym=    10a
Ene=  -0.22240774612985689     
Spin= Alpha
Occup=     0.00000000
           1   3.6529667853496588E-005
           2   1.5327487797335852E-003
           3 -0.57752003652947137     
           4  0.60913218047709639     
           5  -1.0461691040347446E-006
           6  -1.2989541589879794E-003
           7  0.49063512282310945     
           8 -0.51749137225379327     
           9  -3.5578227726448742E-006
          10  -9.0266009725655471E-004
          11  0.33772573824234353     
          12 -0.35621209991814423     
Sym=    11a
Ene=   0.21668058291614858     
Spin= Alpha
Occup=     0.00000000
           1  -1.1557887000731286     
           2  -8.0097606179429778E-002
           3  -2.8882599318388348E-004
           4   2.8243052336568293E-007
           5  0.48717350381886609     
           6 -0.79302100720054902     
           7  -2.1105490478427148E-003
           8   2.7714231217822393E-006
           9  0.37616397417185937     
          10  0.58869819943710044     
          11   1.5681349225423241E-003
          12  -2.0570956986391059E-006
Sym=    12a
Ene=    1.0459710086008789     
Spin= Alpha
Occup=     0.00000000
           1 -0.17095188904051636     
           2   1.4596709942231614     
           3   3.8665429024597360E-003
           4  -5.1015676183006692E-006
           5 -0.65947131929349423     
           6  0.66512458829639820     
           7   1.8079001741540962E-003
           8  -2.3250223454832385E-006
           9  0.81951465950534064     
          10  0.77534813519140244     
          11   2.0163487872490089E-003
          12  -2.7085842459916745E-006
