3
 energy: -10.467703822153 gnorm: 0.618525310585 xtb: 6.2.2 (9d81278992624c895f80dd42a50cac0aa55982e2)
N        -0.44382200000000   -0.60358300000000    0.00000000000000
O        -0.29907200000000    0.68487600000000    0.00000000000000
O         0.74289300000000   -0.08129200000000    0.00000000000000
3
 energy: -10.576825602206 gnorm: 0.283152041454 xtb: 6.2.2 (9d81278992624c895f80dd42a50cac0aa55982e2)
N        -0.47177428354843   -0.64159724746870    0.00000000000000
O        -0.35795225642545    0.75745523237633   -0.00000000000000
O         0.82972553997388   -0.11585698490763    0.00000000000000
3
 energy: -10.633463934097 gnorm: 0.156310248943 xtb: 6.2.2 (9d81278992624c895f80dd42a50cac0aa55982e2)
N        -0.45695501015838   -0.62144367122936    0.00000000000000
O        -0.45665241360895    0.81450544415912   -0.00000000000000
O         0.91360642376733   -0.19306077292976    0.00000000000000
3
 energy: -10.652765894630 gnorm: 0.166133794363 xtb: 6.2.2 (9d81278992624c895f80dd42a50cac0aa55982e2)
N        -0.43149506427314   -0.58681902507303    0.00000000000000
O        -0.51543589931491    0.83105680558614   -0.00000000000000
O         0.94692996358806   -0.24423678051311    0.00000000000000
3
 energy: -10.707074207713 gnorm: 0.165831513489 xtb: 6.2.2 (9d81278992624c895f80dd42a50cac0aa55982e2)
N        -0.34731542303512   -0.47233753910347    0.00000000000000
O        -0.66150430062224    0.85027271713049   -0.00000000000000
O         1.00881872365736   -0.37793417802702    0.00000000000000
3
 energy: -10.724932255539 gnorm: 0.075392865693 xtb: 6.2.2 (9d81278992624c895f80dd42a50cac0aa55982e2)
N        -0.24491941960697   -0.33308223892000    0.00000000000000
O        -0.80893124943538    0.85140324261604   -0.00000000000000
O         1.05384966904236   -0.51832000369603    0.00000000000000
3
 energy: -10.728046590785 gnorm: 0.051462956877 xtb: 6.2.2 (9d81278992624c895f80dd42a50cac0aa55982e2)
N        -0.25459383198933   -0.34623882947402    0.00000000000000
O        -0.77941144047838    0.83983196320909   -0.00000000000000
O         1.03400427246770   -0.49359213373507    0.00000000000000
3
 energy: -10.729936728511 gnorm: 0.001609664160 xtb: 6.2.2 (9d81278992624c895f80dd42a50cac0aa55982e2)
N        -0.26121934810769   -0.35524928281295    0.00000000000000
O        -0.74294407955074    0.81995823204530   -0.00000000000000
O         1.00416242765843   -0.46470794923235    0.00000000000000
3
 energy: -10.729941347605 gnorm: 0.001211571832 xtb: 6.2.2 (9d81278992624c895f80dd42a50cac0aa55982e2)
N        -0.25967183564704   -0.35314581047235    0.00000000000000
O        -0.74676020194055    0.82114428005178   -0.00000000000000
O         1.00643103758759   -0.46799746957943    0.00000000000000
3
 energy: -10.729942452851 gnorm: 0.000147698809 xtb: 6.2.2 (9d81278992624c895f80dd42a50cac0aa55982e2)
N        -0.25985252378325   -0.35339094654621    0.00000000000000
O        -0.74586150477019    0.82067207787121   -0.00000000000000
O         1.00571302855344   -0.46728013132499    0.00000000000000
