      -----------------------------------------------------------      
     |                   =====================                   |     
     |                           x T B                           |     
     |                   =====================                   |     
     |                         S. Grimme                         |     
     |          Mulliken Center for Theoretical Chemistry        |     
     |                    University of Bonn                     |     
      -----------------------------------------------------------      

   * xtb version 6.2.2 (9d81278992624c895f80dd42a50cac0aa55982e2) compiled by '@Darwin' on 04/03/2020

   xtb is free software: you can redistribute it and/or modify it under
   the terms of the GNU Lesser General Public License as published by
   the Free Software Foundation, either version 3 of the License, or
   (at your option) any later version.
   
   xtb is distributed in the hope that it will be useful,
   but WITHOUT ANY WARRANTY; without even the implied warranty of
   MERCHANTABILITY or FITNESS FOR A PARTICULAR PURPOSE.  See the
   GNU Lesser General Public License for more details.
   
   Cite this work as:
   * S. Grimme, C. Bannwarth, P. Shushkov, J. Chem. Theory Comput., 2017,
     13, 1989-2009. DOI: 10.1021/acs.jctc.7b00118
   * C. Bannwarth, S. Ehlert and S. Grimme., J. Chem. Theory Comput., 2019,
     15, 1652-1671. DOI: 10.1021/acs.jctc.8b01176
   * P. Pracht, E. Caldeweyher, S. Ehlert, S. Grimme, ChemRxiv, 2019, preprint.
     DOI: 10.26434/chemrxiv.8326202.v1
   
   for DFT-D4:
   * E. Caldeweyher, C. Bannwarth and S. Grimme, J. Chem. Phys., 2017,
     147, 034112. DOI: 10.1063/1.4993215
   * E. Caldeweyher, S. Ehlert, A. Hansen, H. Neugebauer, S. Spicher,
     C. Bannwarth and S. Grimme, J. Chem. Phys., 2019, 150, 154122.
     DOI: 10.1063/1.5090222
   
   for sTDA-xTB:
   * S. Grimme and C. Bannwarth, J. Chem. Phys., 2016, 145, 054103.
     DOI: 10.1063/1.4959605
   
   in the mass-spec context:
   * V. Asgeirsson, C. Bauer and S. Grimme, Chem. Sci., 2017, 8, 4879.
     DOI: 10.1039/c7sc00601b
   
   for metadynamics refer to:
   * S. Grimme, J. Chem. Theory Comput., 2019, 155, 2847-2862
     DOI: 10.1021/acs.jctc.9b00143
   
   with help from (in alphabetical order)
   C. Bannwarth, F. Bohle, G. Brandenburg, E. Caldeweyher, M. Checinski,
   S. Dohm, S. Ehlert, S. Ehrlich, F. März, H. Neugebauer, J. Pisarek,
   P. Pracht, P. Shushkov, and S. Spicher.
   
 * started run on 2020/05/12 at 11:45:16.920     

           -------------------------------------------------
          |                Calculation Setup                |
           -------------------------------------------------

          program call               : xtb --input N1O2_2_S_3.input N1O2_2_S_3.xyz --ohess --molden --namespace N1O2_2_S_3 output.out
          calculation namespace      : N1O2_2_S_3
          coordinate file            : N1O2_2_S_3.xyz
          number of atoms            :                     3
          number of electrons        :                    17
          charge                     :                     0
          spin                       :                   1.5
          first test random number   :      0.94188163446799

   ID    Z sym.   atoms
    1    7 N      1
    2    8 O      2, 3

           -------------------------------------------------
          |                 G F N 2 - x T B                 |
           -------------------------------------------------

        Reference                      10.1021/acs.jctc.8b01176
      * Hamiltonian:
        H0-scaling (s, p, d)           1.850000    2.230000    2.230000
        zeta-weighting                 0.500000
      * Dispersion:
        s8                             2.700000
        a1                             0.520000
        a2                             5.000000
        s9                             5.000000
      * Repulsion:
        kExp                           1.500000    1.000000
        rExp                           1.000000
      * Coulomb:
        alpha                          2.000000
        third order                    shell-resolved
        anisotropic                    true
        a3                             3.000000
        a5                             4.000000
        cn-shift                       1.200000
        cn-exp                         4.000000
        max-rad                        5.000000


          ...................................................
          :                      SETUP                      :
          :.................................................:
          :  # basis functions                  12          :
          :  # atomic orbitals                  12          :
          :  # shells                            6          :
          :  # electrons                        17          :
          :  max. iterations                   250          :
          :  Hamiltonian                  GFN2-xTB          :
          :  restarted?                      false          :
          :  GBSA solvation                  false          :
          :  PC potential                    false          :
          :  electronic temp.          300.0000000     K    :
          :  accuracy                    1.0000000          :
          :  -> integral cutoff          0.2500000E+02      :
          :  -> integral neglect         0.1000000E-07      :
          :  -> SCF convergence          0.1000000E-05 Eh   :
          :  -> wf. convergence          0.1000000E-03 e    :
          :  Broyden damping             0.4000000          :
          ...................................................

 iter      E             dE          RMSdq      gap      omega  full diag
   1    -10.4816202 -0.104816E+02  0.634E+00    4.78       0.0  T
   2    -10.4849263 -0.330618E-02  0.379E+00    4.78       1.0  T
   3    -10.3654396  0.119487E+00  0.750E+00    4.82       1.0  T
   4    -10.3544070  0.110326E-01  0.784E+00    4.81       1.0  T
   5    -10.4873309 -0.132924E+00  0.566E-01    4.87       1.0  T
   6    -10.4866851  0.645768E-03  0.650E-01    4.91       1.0  T
   7    -10.4866185  0.666257E-04  0.675E-01    4.91       1.0  T
   8    -10.4873903 -0.771818E-03  0.275E-01    4.90       1.0  T
   9    -10.4873990 -0.869572E-05  0.268E-01    4.90       1.0  T
  10    -10.4875553 -0.156258E-03  0.514E-02    4.90       1.1  T
  11    -10.4875602 -0.490094E-05  0.221E-02    4.90       2.6  T
  12    -10.4875613 -0.109311E-05  0.232E-03    4.90      24.9  T
  13    -10.4875613 -0.955058E-08  0.113E-03    4.90      51.2  T
  14    -10.4875613 -0.282728E-08  0.893E-05    4.90     646.8  T
  15    -10.4875613 -0.178737E-10  0.362E-06    4.90   15942.7  T

   *** convergence criteria satisfied after 15 iterations ***

         #    Occupation            Energy/Eh            Energy/eV
      -------------------------------------------------------------
         1        2.0000           -0.8951845             -24.3592
       ...           ...                  ...                  ...
         4        2.0000           -0.7200162             -19.5926
         5        2.0000           -0.6786525             -18.4671
         6        2.0000           -0.6262365             -17.0408
         7        1.9111           -0.5108417             -13.9007
         8        1.0889           -0.5064197             -13.7804
         9        1.0000           -0.4042847             -11.0011
        10        1.0000           -0.1938276              -5.2743 (HOMO)
        11                         -0.0136983              -0.3727 (LUMO)
        12                          0.1079585               2.9377
      -------------------------------------------------------------
                  HL-Gap            0.1801293 Eh            4.9016 eV
             Fermi-level           -0.3061968 Eh           -8.3320 eV

 SCC (total)                   0 d,  0 h,  0 min,  0.003 sec
 SCC setup                      ...        0 min,  0.000 sec (  3.662%)
 Dispersion                     ...        0 min,  0.000 sec (  0.385%)
 integral evaluation            ...        0 min,  0.001 sec ( 27.487%)
 zeroth order Hamiltonian       ...        0 min,  0.000 sec (  0.698%)
 iterations                     ...        0 min,  0.001 sec ( 41.804%)
 molecular gradient             ...        0 min,  0.001 sec ( 23.128%)
 printout                       ...        0 min,  0.000 sec (  2.395%)

         :::::::::::::::::::::::::::::::::::::::::::::::::::::
         ::                     SUMMARY                     ::
         :::::::::::::::::::::::::::::::::::::::::::::::::::::
         :: total energy             -10.467703822161 Eh    ::
         :: gradient norm              0.618525407469 Eh/a0 ::
         :: HOMO-LUMO gap              4.901567145140 eV    ::
         ::.................................................::
         :: SCC energy               -10.487561288841 Eh    ::
         :: -> isotropic ES           -0.000574699032 Eh    ::
         :: -> anisotropic ES          0.029503735431 Eh    ::
         :: -> anisotropic XC         -0.014539482524 Eh    ::
         :: -> dispersion             -0.000632959099 Eh    ::
         :: repulsion energy           0.019857466150 Eh    ::
         :: add. restraining           0.000000000000 Eh    ::
         :::::::::::::::::::::::::::::::::::::::::::::::::::::

      ----------------------------------------------------------- 
     |                   =====================                   |
     |                        A N C O P T                        |
     |                   =====================                   |
     |               Approximate Normal Coordinate               |
     |                Rational Function Optimizer                |
      ----------------------------------------------------------- 

          ...................................................
          :                      SETUP                      :
          :.................................................:
          :   optimization level            normal          :
          :   max. optcycles                   200          :
          :   ANC micro-cycles                  20          :
          :   degrees of freedom                 3          :
          :.................................................:
          :   RF solver                   davidson          :
          :   write xtbopt.log                true          :
          :   linear?                        false          :
          :   energy convergence         0.5000000E-05 Eh   :
          :   grad. convergence          0.1000000E-02 Eh/α :
          :   maximium RF displ.         1.0000000          :
          :   Hlow (freq-cutoff)         0.1000000E-01      :
          :   Hmax (freq-cutoff)         5.0000000          :
          :   S6 in model hess.         20.0000000          :
          ...................................................

generating ANC from model Hessian ...
Using Lindh-Hessian (1995)
 Shifting diagonal of input Hessian by    0.0000000000000000     
 Lowest  eigenvalues of input Hessian
   -0.000000   -0.000000   -0.000000    0.000000    0.000000    0.000000
    1.464598    1.470386    2.249237
 Highest eigenvalues
    0.000000    0.000000    0.000000    1.464598    1.470386    2.249237


........................................................................
.............................. CYCLE    1 ..............................
........................................................................
   1    -10.4875613 -0.104876E+02  0.642E-06    4.90       0.0  T
   2    -10.4875613  0.186695E-11  0.281E-05    4.90    2052.0  T
   3    -10.4875613 -0.195044E-11  0.135E-06    4.90   42723.0  T
     SCC iter.                  ...        0 min,  0.000 sec
     gradient                   ...        0 min,  0.001 sec
 * total energy  :   -10.4677038 Eh     change        0.7727152E-11 Eh
   gradient norm :     0.6185253 Eh/α   predicted     0.0000000E+00 (-100.00%)
   displ. norm   :     0.2652065 α      lambda       -0.1630643E+00
   maximum displ.:     0.2487082 α      in ANC's #3, #2, #1, ...

........................................................................
.............................. CYCLE    2 ..............................
........................................................................
   1    -10.3916386 -0.103916E+02  0.829E+00    3.85       0.0  T
   2    -10.4508607 -0.592221E-01  0.753E+00    3.04       1.0  T
   3    -10.5671427 -0.116282E+00  0.311E+00    3.27       1.0  T
   4    -10.5784081 -0.112654E-01  0.207E+00    3.35       1.0  T
   5    -10.5832953 -0.488724E-02  0.305E-01    3.40       1.0  T
   6    -10.5833217 -0.264571E-04  0.865E-02    3.40       1.0  T
   7    -10.5833251 -0.334356E-05  0.147E-02    3.40       3.9  T
   8    -10.5833250  0.102747E-06  0.698E-03    3.40       8.3  T
   9    -10.5833251 -0.108229E-06  0.896E-04    3.40      64.5  T
  10    -10.5833251 -0.250305E-09  0.515E-04    3.40     112.1  T
     SCC iter.                  ...        0 min,  0.001 sec
     gradient                   ...        0 min,  0.001 sec
 * total energy  :   -10.5768256 Eh     change       -0.1091218E+00 Eh
   gradient norm :     0.2831520 Eh/α   predicted    -0.8726669E-01 ( -20.03%)
   displ. norm   :     0.3083130 α      lambda       -0.8729839E-01
   maximum displ.:     0.2539558 α      in ANC's #2, #3, #1, ...

........................................................................
.............................. CYCLE    3 ..............................
........................................................................
   1    -10.5054205 -0.105054E+02  0.729E+00    5.78       0.0  T
   2    -10.5348115 -0.293911E-01  0.690E+00    4.25       1.0  T
   3    -10.6228018 -0.879903E-01  0.289E+00    4.99       1.0  T
   4    -10.6334490 -0.106471E-01  0.177E+00    5.23       1.0  T
   5    -10.6284925  0.495653E-02  0.199E+00    5.40       1.0  T
   6    -10.6364211 -0.792864E-02  0.910E-01    5.28       1.0  T
   7    -10.6369373 -0.516249E-03  0.695E-01    5.30       1.0  T
   8    -10.6379000 -0.962648E-03  0.338E-02    5.34       1.7  T
   9    -10.6378986  0.140209E-05  0.441E-02    5.34       1.3  T
  10    -10.6379028 -0.419318E-05  0.106E-02    5.34       5.5  T
  11    -10.6379029 -0.153593E-06  0.579E-03    5.34      10.0  T
  12    -10.6379030 -0.661837E-07  0.164E-03    5.34      35.1  T
  13    -10.6379030 -0.536890E-08  0.260E-04    5.34     221.7  T
  14    -10.6379030 -0.914291E-10  0.155E-04    5.34     373.6  T
     SCC iter.                  ...        0 min,  0.001 sec
     gradient                   ...        0 min,  0.001 sec
 * total energy  :   -10.6334639 Eh     change       -0.5663833E-01 Eh
   gradient norm :     0.1563102 Eh/α   predicted    -0.4779834E-01 ( -15.61%)
   displ. norm   :     0.1822970 α      lambda       -0.2318835E-01
   maximum displ.:     0.1781133 α      in ANC's #2, #3, #1, ...

........................................................................
.............................. CYCLE    4 ..............................
........................................................................
   1    -10.5991683 -0.105992E+02  0.568E+00    6.30       0.0  T
   2    -10.5916476  0.752073E-02  0.568E+00    6.11       1.0  T
   3    -10.6418652 -0.502176E-01  0.277E+00    6.33       1.0  T
   4    -10.6447396 -0.287445E-02  0.285E+00    6.29       1.0  T
   5    -10.6561436 -0.114040E-01  0.104E+00    6.28       1.0  T
   6    -10.6559929  0.150740E-03  0.104E+00    6.28       1.0  T
   7    -10.6578373 -0.184442E-02  0.151E-01    6.28       1.0  T
   8    -10.6578008  0.365617E-04  0.224E-01    6.28       1.0  T
   9    -10.6578839 -0.831303E-04  0.285E-02    6.28       2.0  T
  10    -10.6578851 -0.121178E-05  0.744E-03    6.28       7.8  T
  11    -10.6578849  0.179005E-06  0.125E-02    6.28       4.6  T
  12    -10.6578852 -0.245838E-06  0.211E-03    6.28      27.4  T
  13    -10.6578852 -0.606180E-08  0.951E-04    6.28      60.7  T
  14    -10.6578852 -0.152074E-08  0.128E-04    6.28     450.3  T
     SCC iter.                  ...        0 min,  0.001 sec
     gradient                   ...        0 min,  0.001 sec
 * total energy  :   -10.6527659 Eh     change       -0.1930196E-01 Eh
   gradient norm :     0.1661338 Eh/α   predicted    -0.1197948E-01 ( -37.94%)
   displ. norm   :     0.4765807 α      lambda       -0.5540130E-01
   maximum displ.:     0.4763633 α      in ANC's #2, #3, #1, ...

........................................................................
.............................. CYCLE    5 ..............................
........................................................................
   1    -10.7095967 -0.107096E+02  0.396E+00    9.26       0.0  T
   2    -10.7151065 -0.550982E-02  0.244E+00    9.23       1.0  T
   3    -10.7156510 -0.544456E-03  0.109E+00    9.19       1.0  T
   4    -10.7161820 -0.531060E-03  0.114E-01    9.18       1.0  T
   5    -10.7161837 -0.164480E-05  0.169E-02    9.18       3.4  T
   6    -10.7161838 -0.760691E-07  0.948E-03    9.18       6.1  T
   7    -10.7161838 -0.222858E-07  0.517E-04    9.18     111.8  T
   8    -10.7161838 -0.202363E-10  0.102E-04    9.18     568.5  T
     SCC iter.                  ...        0 min,  0.000 sec
     gradient                   ...        0 min,  0.001 sec
 * total energy  :   -10.7070742 Eh     change       -0.5430831E-01 Eh
   gradient norm :     0.1658315 Eh/α   predicted    -0.3399229E-01 ( -37.41%)
   displ. norm   :     0.5117946 α      lambda       -0.4533505E-01
   maximum displ.:     0.5089483 α      in ANC's #2, #3, #1, ...

........................................................................
.............................. CYCLE    6 ..............................
........................................................................
   1    -10.7378243 -0.107378E+02  0.272E+00    8.88       0.0  T
   2    -10.7389200 -0.109568E-02  0.148E+00    8.91       1.0  T
   3    -10.7390988 -0.178748E-03  0.330E-01    9.00       1.0  T
   4    -10.7391298 -0.310647E-04  0.103E-01    9.01       1.0  T
   5    -10.7391319 -0.212039E-05  0.150E-02    9.01       3.9  T
   6    -10.7391320 -0.700892E-07  0.580E-03    9.01      10.0  T
   7    -10.7391320 -0.232827E-07  0.343E-04    9.01     168.3  T
   8    -10.7391320 -0.326725E-10  0.232E-04    9.01     248.7  T
     SCC iter.                  ...        0 min,  0.000 sec
     gradient                   ...        0 min,  0.001 sec
 * total energy  :   -10.7249323 Eh     change       -0.1785805E-01 Eh
   gradient norm :     0.0753929 Eh/α   predicted    -0.2860490E-01 (  60.18%)
   displ. norm   :     0.0901800 α      lambda       -0.3885838E-02
   maximum displ.:     0.0844203 α      in ANC's #2, #3, #1, ...

........................................................................
.............................. CYCLE    7 ..............................
........................................................................
   1    -10.7442539 -0.107443E+02  0.424E-01   10.00       0.0  T
   2    -10.7443435 -0.896736E-04  0.221E-01   10.00       1.0  T
   3    -10.7443488 -0.529984E-05  0.952E-02    9.98       1.0  T
   4    -10.7443503 -0.144880E-05  0.170E-02    9.98       3.4  T
   5    -10.7443503 -0.405681E-07  0.164E-03    9.98      35.2  T
   6    -10.7443503 -0.321313E-09  0.744E-04    9.98      77.6  T
   7    -10.7443503 -0.938467E-10  0.153E-04    9.98     377.6  T
     SCC iter.                  ...        0 min,  0.000 sec
     gradient                   ...        0 min,  0.001 sec
 * total energy  :   -10.7280466 Eh     change       -0.3114335E-02 Eh
   gradient norm :     0.0514630 Eh/α   predicted    -0.1958720E-02 ( -37.11%)
   displ. norm   :     0.1129852 α      lambda       -0.3871402E-02
   maximum displ.:     0.0956881 α      in ANC's #2, #3, #1, ...

........................................................................
.............................. CYCLE    8 ..............................
........................................................................
   1    -10.7506500 -0.107506E+02  0.528E-01   11.58       0.0  T
   2    -10.7508095 -0.159532E-03  0.281E-01   11.58       1.0  T
   3    -10.7508178 -0.827618E-05  0.127E-01   11.56       1.0  T
   4    -10.7508200 -0.220522E-05  0.247E-02   11.56       2.3  T
   5    -10.7508200 -0.524537E-07  0.236E-03   11.56      24.5  T
   6    -10.7508200 -0.497540E-10  0.990E-04   11.56      58.3  T
   7    -10.7508200 -0.236327E-10  0.290E-04   11.56     199.4  T
     SCC iter.                  ...        0 min,  0.001 sec
     gradient                   ...        0 min,  0.001 sec
 * total energy  :   -10.7299367 Eh     change       -0.1890138E-02 Eh
   gradient norm :     0.0016097 Eh/α   predicted    -0.1960410E-02 (   3.72%)
   displ. norm   :     0.0117644 α      lambda       -0.1056162E-04
   maximum displ.:     0.0113921 α      in ANC's #2, #3, #1, ...

........................................................................
.............................. CYCLE    9 ..............................
........................................................................
   1    -10.7505954 -0.107506E+02  0.598E-02   11.43       0.0  T
   2    -10.7505968 -0.141159E-05  0.308E-02   11.43       1.9  T
   3    -10.7505969 -0.831134E-07  0.114E-02   11.43       5.1  T
   4    -10.7505969 -0.167452E-07  0.195E-03   11.43      29.7  T
   5    -10.7505969 -0.608580E-09  0.156E-04   11.43     369.2  T
   6    -10.7505969  0.863309E-12  0.860E-05   11.43     671.4  T
     SCC iter.                  ...        0 min,  0.000 sec
     gradient                   ...        0 min,  0.001 sec
 * total energy  :   -10.7299413 Eh     change       -0.4619094E-05 Eh
   gradient norm :     0.0012116 Eh/α   predicted    -0.5281950E-05 (  14.35%)
   displ. norm   :     0.0027731 α      lambda       -0.1548821E-05
   maximum displ.:     0.0023859 α      in ANC's #2, #3, #1, ...

........................................................................
.............................. CYCLE   10 ..............................
........................................................................
   1    -10.7507162 -0.107507E+02  0.131E-02   11.47       0.0  T
   2    -10.7507163 -0.994404E-07  0.691E-03   11.47       8.4  T
   3    -10.7507163 -0.494075E-08  0.314E-03   11.47      18.4  T
   4    -10.7507163 -0.132519E-08  0.591E-04   11.47      97.6  T
   5    -10.7507163 -0.319247E-10  0.558E-05   11.47    1034.3  T
     SCC iter.                  ...        0 min,  0.000 sec
     gradient                   ...        0 min,  0.001 sec
 * total energy  :   -10.7299425 Eh     change       -0.1105246E-05 Eh
   gradient norm :     0.0001477 Eh/α   predicted    -0.7742238E-06 ( -29.95%)
   displ. norm   :     0.0003306 α      lambda       -0.1950699E-07
   maximum displ.:     0.0002998 α      in ANC's #2, #3, #1, ...

   *** GEOMETRY OPTIMIZATION CONVERGED AFTER 10 ITERATIONS ***

------------------------------------------------------------------------
 total energy gain   :        -0.2622386 Eh     -164.5572 kcal/mol
 total RMSD          :         0.7962031 a0        0.4213 Å
 total power (kW/mol):       -68.8507431 (step)********** (real)
------------------------------------------------------------------------

 ANCopt (total)                0 d,  0 h,  0 min,  0.019 sec
 optimizer setup                ...        0 min,  0.000 sec (  0.392%)
 model hessian                  ...        0 min,  0.000 sec (  0.255%)
 ANC generation                 ...        0 min,  0.000 sec (  0.224%)
 coordinate transformation      ...        0 min,  0.000 sec (  0.141%)
 single point calculation       ...        0 min,  0.018 sec ( 94.345%)
 optimization log               ...        0 min,  0.000 sec (  1.160%)
 hessian update                 ...        0 min,  0.000 sec (  0.133%)
 rational function              ...        0 min,  0.000 sec (  1.107%)

================
 final structure:
================
3
 xtb: 6.2.2 (9d81278992624c895f80dd42a50cac0aa55982e2)
N        -0.25985252378325   -0.35339094654621    0.00000000000000
O        -0.74586150477019    0.82067207787121   -0.00000000000000
O         1.00571302855344   -0.46728013132499    0.00000000000000

 Bond Distances (Angstroems)
 ---------------------------
N1-O2=1.2707         N1-O3=1.2707         O2-N1=1.2707         O3-N1=1.2707         
 O  N  Rav=1.2707 sigma=0.0000  Rmin=1.2707  Rmax=1.2707     2

 selected bond angles (degree)
 --------------------
O3-N1-O2=117.63                

 selected dihedral angles (degree)
 ---------------------------------

           -------------------------------------------------
          |                Final Singlepoint                |
           -------------------------------------------------

          ...................................................
          :                      SETUP                      :
          :.................................................:
          :  # basis functions                  12          :
          :  # atomic orbitals                  12          :
          :  # shells                            6          :
          :  # electrons                        17          :
          :  max. iterations                   250          :
          :  Hamiltonian                  GFN2-xTB          :
          :  restarted?                      false          :
          :  GBSA solvation                  false          :
          :  PC potential                    false          :
          :  electronic temp.          300.0000000     K    :
          :  accuracy                    1.0000000          :
          :  -> integral cutoff          0.2500000E+02      :
          :  -> integral neglect         0.1000000E-07      :
          :  -> SCF convergence          0.1000000E-05 Eh   :
          :  -> wf. convergence          0.1000000E-03 e    :
          :  Broyden damping             0.4000000          :
          ...................................................

 iter      E             dE          RMSdq      gap      omega  full diag
   1    -10.7507163 -0.107507E+02  0.139E-05   11.47       0.0  T
   2    -10.7507163 -0.291323E-12  0.877E-06   11.47    6586.7  T
   3    -10.7507163 -0.190070E-12  0.297E-06   11.47   19443.6  T

   *** convergence criteria satisfied after 3 iterations ***

         #    Occupation            Energy/Eh            Energy/eV
      -------------------------------------------------------------
         1        2.0000           -0.8117783             -22.0896
       ...           ...                  ...                  ...
         4        2.0000           -0.6540413             -17.7974
         5        2.0000           -0.6454893             -17.5647
         6        2.0000           -0.6372904             -17.3416
         7        2.0000           -0.5503549             -14.9759
         8        1.0000           -0.5268053             -14.3351
         9        1.0000           -0.4492357             -12.2243
        10        1.0000           -0.3670624              -9.9883 (HOMO)
        11                          0.0545147               1.4834 (LUMO)
        12                          0.1720486               4.6817
      -------------------------------------------------------------
                  HL-Gap            0.4215771 Eh           11.4717 eV
             Fermi-level           -0.3474270 Eh           -9.4540 eV

 SCC (total)                   0 d,  0 h,  0 min,  0.001 sec
 SCC setup                      ...        0 min,  0.000 sec (  3.705%)
 Dispersion                     ...        0 min,  0.000 sec (  0.356%)
 integral evaluation            ...        0 min,  0.001 sec ( 42.259%)
 zeroth order Hamiltonian       ...        0 min,  0.000 sec (  0.469%)
 iterations                     ...        0 min,  0.000 sec ( 13.380%)
 molecular gradient             ...        0 min,  0.001 sec ( 36.094%)
 printout                       ...        0 min,  0.000 sec (  3.122%)

         :::::::::::::::::::::::::::::::::::::::::::::::::::::
         ::                     SUMMARY                     ::
         :::::::::::::::::::::::::::::::::::::::::::::::::::::
         :: total energy             -10.729942452852 Eh    ::
         :: gradient norm              0.000147593672 Eh/a0 ::
         :: HOMO-LUMO gap             11.471697506782 eV    ::
         ::.................................................::
         :: SCC energy               -10.750716290055 Eh    ::
         :: -> isotropic ES            0.008561054855 Eh    ::
         :: -> anisotropic ES          0.002986683579 Eh    ::
         :: -> anisotropic XC         -0.003372258315 Eh    ::
         :: -> dispersion             -0.000646541238 Eh    ::
         :: repulsion energy           0.020773837227 Eh    ::
         :: add. restraining           0.000000000000 Eh    ::
         :::::::::::::::::::::::::::::::::::::::::::::::::::::

           ------------------------------------------------- 
          |                Numerical Hessian                |
           ------------------------------------------------- 
step length          :   0.00500
SCC accuracy         :   0.30000
Hessian scale factor :   1.00000
frozen atoms in %    :   0.00000    0
RMS gradient         :   0.00015
estimated CPU  time      0.00 min
estimated wall time      0.00 min

writing file <hessian>.

 projected vibrational frequencies (cm-1)
eigval :       -0.00    -0.00    -0.00     0.00     0.00     0.00
eigval :      472.59  1278.65  1345.15
           -------------------------------------------------
          |                Property Printout                |
           -------------------------------------------------

    * Orbital Energies and Occupations

         #    Occupation            Energy/Eh            Energy/eV
      -------------------------------------------------------------
         1        2.0000           -0.8117783             -22.0896
         2        2.0000           -0.7881527             -21.4467
         3        2.0000           -0.6918195             -18.8254
         4        2.0000           -0.6540413             -17.7974
         5        2.0000           -0.6454893             -17.5647
         6        2.0000           -0.6372904             -17.3416
         7        2.0000           -0.5503549             -14.9759
         8        1.0000           -0.5268053             -14.3351
         9        1.0000           -0.4492357             -12.2243
        10        1.0000           -0.3670624              -9.9883 (HOMO)
        11                          0.0545147               1.4834 (LUMO)
        12                          0.1720486               4.6817
      -------------------------------------------------------------
                  HL-Gap            0.4215771 Eh           11.4717 eV
             Fermi-level           -0.3474270 Eh           -9.4540 eV

     #   Z        covCN         q      C6AA      α(0)
     1   7 N      1.844     0.270    17.464     6.193
     2   8 O      0.923    -0.135    17.019     5.532
     3   8 O      0.923    -0.135    17.019     5.532

 Mol. C6AA /au·bohr⁶  :        154.229406
 Mol. C8AA /au·bohr⁸  :       3208.410493
 Mol. α(0) /au        :         17.258186


Wiberg/Mayer (AO) data.
largest (>0.10) Wiberg bond orders for each atom
          total WBO             WBO to atom ...
     1  N   2.441        O    3 1.221    O    2 1.221
     2  O   1.355        N    1 1.221    O    3 0.134
     3  O   1.355        N    1 1.221    O    2 0.134

MOs/occ written to file <molden.input>


molecular dipole:
                 x           y           z       tot (Debye)
 q only:       -0.199      -0.271       0.000
   full:       -0.208      -0.282       0.000       0.890
molecular quadrupole (traceless):
                xx          xy          yy          xz          yz          zz
 q only:       -0.536       0.916       0.036       0.000      -0.000       0.500
  q+dip:       -1.207       1.638      -0.184       0.000      -0.000       1.391
   full:       -0.965       1.645       0.063       0.000      -0.000       0.902

           -------------------------------------------------
          |                Geometry Summary                 |
           -------------------------------------------------

      molecular mass/u    :       46.0055130
   center of mass at/Å    :        0.0112551       0.0153072      -0.0000001
  moments of inertia/u·Å² :        0.4217613E+01   0.3781327E+02   0.4203088E+02
rotational constants/cm⁻¹ :        0.3996960E+01   0.4458126E+00   0.4010773E+00

           -------------------------------------------------
          |               Frequency Printout                |
Molecule has the following symmetry elements: (C2) 2*(sigma) 
It seems to be the C2v point group
           -------------------------------------------------
 projected vibrational frequencies (cm-1)
eigval :       -0.00    -0.00    -0.00     0.00     0.00     0.00
eigval :      472.59  1278.65  1345.15
 reduced masses (amu)
   1: 16.00   2: 15.92   3: 14.01   4: 15.99   5: 15.39   6: 15.34   7: 15.43   8: 14.75
   9: 15.19
 IR intensities (amu)
   1:  0.14   2:  0.09   3:  0.28   4:  0.14   5:  0.05   6:  0.04   7:  0.42   8:  0.53
   9:  0.04
 Raman intensities (amu)
   1:  0.00   2:  0.00   3:  0.00   4:  0.00   5:  0.00   6:  0.00   7:  0.00   8:  0.00
   9:  0.00
 output can be read by thermo (or use thermo option).
 writing <g98.out> molden fake output.
 recommended (thermochemical) frequency scaling factor: 1.0
           -------------------------------------------------
          |             Thermodynamic Functions             |
           -------------------------------------------------

c2v symmetry found (for desy threshold:  0.10E+00) used in thermo

          ...................................................
          :                      SETUP                      :
          :.................................................:
          :  # frequencies                           3      :
          :  # imaginary freq.                       0      :
          :  linear?                             false      :
          :  only rotor calc.                    false      :
          :  symmetry                              c2v      :
          :  rotational number                       2      :
          :  scaling factor                  1.0000000      :
          :  rotor cutoff                   50.0000000 cm⁻¹ :
          :  imag. cutoff                  -20.0000000 cm⁻¹ :
          :.................................................:

    mode    ω/cm⁻¹     T·S(HO)/kcal·mol⁻¹    T·S(FR)/kcal·mol⁻¹   T·S(vib)
   ------------------------------------------------------------------------
   ------------------------------------------------------------------------

   temp. (K)  partition function   enthalpy   heat capacity  entropy
                                   cal/mol     cal/K/mol   cal/K/mol   J/K/mol
 298.15  VIB   1.12                  167.360      1.597      0.783
         ROT  0.313E+04              888.752      2.981     18.974
         INT  0.350E+04             1056.112      4.578     19.757
         TR   0.302E+27             1481.254      4.968     37.387
         TOT                        2537.3663     9.5461    57.1437   239.0893

   temp. (K)  partition function   enthalpy   heat capacity  entropy
                                   cal/mol     cal/K/mol   cal/K/mol   J/K/mol
 120.00  VIB   1.00                    4.694      0.222      0.046
         ROT   798.                  357.707      2.981     16.261
         INT   801.                  362.400      3.203     16.307
         TR   0.771E+26              596.178      4.968     32.867
         TOT                         958.5785     8.1715    49.1746   205.7467

   temp. (K)  partition function   enthalpy   heat capacity  entropy
                                   cal/mol     cal/K/mol   cal/K/mol   J/K/mol
 100.00  VIB   1.00                    1.507      0.103      0.017
         ROT   607.                  298.089      2.981     15.718
         INT   608.                  299.596      3.084     15.735
         TR   0.586E+26              496.815      4.968     31.962
         TOT                         796.4114     8.0517    47.6971   199.5646

   temp. (K)  partition function   enthalpy   heat capacity  entropy
                                   cal/mol     cal/K/mol   cal/K/mol   J/K/mol
  80.00  VIB   1.00                    0.275      0.029      0.004
         ROT   435.                  238.471      2.981     15.053
         INT   435.                  238.746      3.010     15.056
         TR   0.420E+26              397.452      4.968     30.854
         TOT                         636.1983     7.9783    45.9104   192.0890

   temp. (K)  partition function   enthalpy   heat capacity  entropy
                                   cal/mol     cal/K/mol   cal/K/mol   J/K/mol
  60.00  VIB   1.00                    0.016      0.003      0.000
         ROT   282.                  178.853      2.981     14.195
         INT   282.                  178.870      2.984     14.195
         TR   0.273E+26              298.089      4.968     29.425
         TOT                         476.9586     7.9521    43.6207   182.5089

   temp. (K)  partition function   enthalpy   heat capacity  entropy
                                   cal/mol     cal/K/mol   cal/K/mol   J/K/mol
  40.00  VIB   1.00                    0.000      0.000     -0.000
         ROT   154.                  119.236      2.981     12.986
         INT   154.                  119.236      2.981     12.986
         TR   0.148E+26              198.726      4.968     27.412
         TOT                         317.9617     7.9491    40.3983   169.0263

   temp. (K)  partition function   enthalpy   heat capacity  entropy
                                   cal/mol     cal/K/mol   cal/K/mol   J/K/mol
  20.00  VIB   1.00                    0.000      0.000     -0.000
         ROT   54.3                   59.618      2.981     10.920
         INT   54.3                   59.618      2.981     10.920
         TR   0.525E+25               99.363      4.968     23.970
         TOT                         158.9808     7.9490    34.8900   145.9798

   temp. (K)  partition function   enthalpy   heat capacity  entropy
                                   cal/mol     cal/K/mol   cal/K/mol   J/K/mol
  10.00  VIB   1.00                    0.000      0.000     -0.000
         ROT   19.2                   29.809      2.981      8.854
         INT   19.2                   29.809      2.981      8.854
         TR   0.185E+25               49.681      4.968     20.528
         TOT                          79.4904     7.9490    29.3817   122.9332

       T/K    H(0)-H(T)+PV         H(T)/Eh          T*S/Eh         G(T)/Eh
   ------------------------------------------------------------------------
    298.15    0.404355E-02    0.110976E-01    0.271508E-01   -0.160532E-01
    120.00    0.152759E-02    0.858168E-02    0.940377E-02   -0.822090E-03
    100.00    0.126916E-02    0.832326E-02    0.760101E-02    0.722243E-03
     80.00    0.101385E-02    0.806794E-02    0.585303E-02    0.221491E-02
     60.00    0.760082E-03    0.781417E-02    0.417084E-02    0.364334E-02
     40.00    0.506704E-03    0.756080E-02    0.257515E-02    0.498565E-02
     20.00    0.253352E-03    0.730744E-02    0.111202E-02    0.619543E-02
     10.00    0.126676E-03    0.718077E-02    0.468228E-03    0.671254E-02 (used)
   ------------------------------------------------------------------------

         :::::::::::::::::::::::::::::::::::::::::::::::::::::
         ::                  THERMODYNAMIC                  ::
         :::::::::::::::::::::::::::::::::::::::::::::::::::::
         :: total free energy         -10.723229911910 Eh   ::
         ::.................................................::
         :: total energy              -10.729942452852 Eh   ::
         :: zero point energy           0.007054092693 Eh   ::
         :: G(RRHO) w/o ZPVE           -0.000341551751 Eh   ::
         :: G(RRHO) contrib.            0.006712540942 Eh   ::
         :::::::::::::::::::::::::::::::::::::::::::::::::::::

optimized geometry written to: xtbopt.xyz


           -------------------------------------------------
          | TOTAL ENERGY              -10.729942452852 Eh   |
          | TOTAL ENTHALPY            -10.722761684143 Eh   |
          | TOTAL FREE ENERGY         -10.723229911910 Eh   |
          | GRADIENT NORM               0.000147606613 Eh/α |
          | HOMO-LUMO GAP              11.471697403028 eV   |
           -------------------------------------------------

------------------------------------------------------------------------
 * finished run on 2020/05/12 at 11:45:16.992     
------------------------------------------------------------------------
 total:
 * wall-time:     0 d,  0 h,  0 min,  0.071 sec
 *  cpu-time:     0 d,  0 h,  0 min,  0.071 sec
 * ratio c/w:     0.998 speedup
 SCF:
 * wall-time:     0 d,  0 h,  0 min,  0.003 sec
 *  cpu-time:     0 d,  0 h,  0 min,  0.003 sec
 * ratio c/w:     0.997 speedup
 ANC optimizer:
 * wall-time:     0 d,  0 h,  0 min,  0.021 sec
 *  cpu-time:     0 d,  0 h,  0 min,  0.021 sec
 * ratio c/w:     0.997 speedup
 numerical hessian:
 * wall-time:     0 d,  0 h,  0 min,  0.028 sec
 *  cpu-time:     0 d,  0 h,  0 min,  0.028 sec
 * ratio c/w:     1.000 speedup

