[Molden Format]
[Title]
[Atoms] AU
N      1     7 -0.49105355382547E+00 -0.66780947079283E+00  0.28796399496042E-05
O      2     8 -0.14094657199205E+01  0.15508527013810E+01  0.22132561414021E-05
O      3     8  0.19005173840299E+01 -0.88304134085237E+00 -0.50928927928862E-05
[GTO]
           1 0
 s           4   1.0000000000000000     
   63.594024466941008      -0.19234388414721629     
   10.951417231523665      -0.23478107924953728     
  0.87999310257376984       0.37593753901700888     
  0.33538715296521110       0.14982889271862770     
 p           4   1.0000000000000000     
   7.2965040481495080       0.97658666315667420     
   1.8918745450712575       0.90372226730345739     
  0.66694432110824120       0.47404958461536373     
  0.26552202674130870        7.1516067715011844E-002

           2 0
 s           4   1.0000000000000000     
   69.137961906196551      -0.20478756370077797     
   11.906129132707308      -0.24997023136827334     
  0.95670827744340703       0.40025880240639616     
  0.36462520496073686       0.15952206667693555     
 p           4   1.0000000000000000     
   8.2124193257781641        1.1321556799186829     
   2.1293576997098116        1.0476840782254817     
  0.75066448202360914       0.54956508217158984     
  0.29885246543283073        8.2908486592766617E-002

           3 0
 s           4   1.0000000000000000     
   69.137961906196551      -0.20478756370077797     
   11.906129132707308      -0.24997023136827334     
  0.95670827744340703       0.40025880240639616     
  0.36462520496073686       0.15952206667693555     
 p           4   1.0000000000000000     
   8.2124193257781641        1.1321556799186829     
   2.1293576997098116        1.0476840782254817     
  0.75066448202360914       0.54956508217158984     
  0.29885246543283073        8.2908486592766617E-002

[MO]
Sym=     1a
Ene=  -0.81177826508591788     
Spin= Alpha
Occup=     2.00000000
           1 -0.43047834169875832     
           2 -0.13075614322635926     
           3 -0.17782134002165617     
           4   7.4924801289658634E-007
           5 -0.38188782440434743     
           6 -0.13266826423570216     
           7  0.18012962013398623     
           8   1.4522142905691600E-007
           9 -0.38188926741601426     
          10  0.21149005534320797     
          11  -7.2936217339952591E-002
          12  -6.3725772237774162E-007
Sym=     2a
Ene=  -0.78815265022678804     
Spin= Alpha
Occup=     2.00000000
           1  -5.4615771301682904E-007
           2  0.31082208315081206     
           3 -0.22855378533893914     
           4  -6.6969450241843436E-007
           5 -0.52296510399178175     
           6   6.2766836104232223E-003
           7  0.13489312910853360     
           8  -2.5371177668492280E-007
           9  0.52296370744826026     
          10 -0.12688756993189407     
          11  -4.6205366009200270E-002
          12   5.5914339776734160E-007
Sym=     3a
Ene=  -0.69181951605875158     
Spin= Alpha
Occup=     2.00000000
           1 -0.40446854799831961     
           2   4.9862267411838794E-002
           3   6.7810093544040898E-002
           4  -2.7082598776560481E-007
           5  0.52471143020262356     
           6 -0.10876641302699058     
           7  0.35066558381245161     
           8  -2.1834020537987240E-007
           9  0.52471151716318487     
          10  0.36714584612946888     
          11   7.1852093820513126E-004
          12  -1.2344423120948691E-006
Sym=     4a
Ene=  -0.65404127668217893     
Spin= Alpha
Occup=     2.00000000
           1  -3.0607991977719403E-008
           2  -1.9239031619339210E-006
           3  -9.8814995681357310E-007
           4 -0.57086787486852086     
           5   4.8733578506984539E-008
           6  -1.6655221970471132E-006
           7  -7.7610163472254353E-007
           8 -0.49113113961090227     
           9   2.2755293764827640E-009
          10  -1.7564564743586019E-006
          11  -8.2823438146472183E-007
          12 -0.49113169472038215     
Sym=     5a
Ene=  -0.64548932569335438     
Spin= Alpha
Occup=     2.00000000
           1   1.8078146101298168E-006
           2  0.28436169345845486     
           3 -0.20910058704961615     
           4  -5.6107040528756559E-007
           5  0.40048492191211471     
           6  -2.8077259442128702E-002
           7  0.50510360557813527     
           8  -7.2462696794897284E-007
           9 -0.40048274954676161     
          10 -0.49050597381219285     
          11 -0.12378548678432197     
          12   1.9599395271373443E-006
Sym=     6a
Ene=  -0.63729040250136892     
Spin= Alpha
Occup=     2.00000000
           1 -0.28502241170635667     
           2  0.28985341416238769     
           3  0.39418345532055959     
           4  -1.6420750140156635E-006
           5 -0.16761725181835685     
           6  0.48507591118134219     
           7  0.10573473609969750     
           8  -1.8357966963038720E-006
           9 -0.16762241098991701     
          10  -4.3688777587173197E-002
          11  0.49453907297834149     
          12  -6.7635836640242001E-007
Sym=     7a
Ene=  -0.55035487541757822     
Spin= Alpha
Occup=     1.99999586
           1  -1.8660709166751851E-009
           2   1.1981058335383374E-008
           3   7.6612811278009324E-011
           4  -1.9112263564570130E-007
           5   1.5812244784475431E-010
           6   2.4179627016096194E-006
           7   1.2331336898808995E-006
           8  0.71170029862792550     
           9   3.7634042202273345E-008
          10  -2.4842751303334657E-006
          11  -1.1842076757698545E-006
          12 -0.71169921741892572     
Sym=     8a
Ene=  -0.52680534404975143     
Spin= Alpha
Occup=     1.00000414
           1  -2.1413494974318044E-007
           2   5.9743194352417130E-002
           3  -4.3929808388440017E-002
           4  -1.3867384583186151E-007
           5   1.3505352847781741E-003
           6 -0.71889599379521207     
           7  -6.7344249097595579E-002
           8   2.5621254528803662E-006
           9  -1.3508363196706721E-003
          10 -0.15003274077412160     
          11  0.70628294750865850     
          12  -6.5177164546256586E-007
Sym=     9a
Ene=  -0.44923568853145801     
Spin= Alpha
Occup=     1.00000000
           1  0.49321116750589145     
           2 -0.35748763009121864     
           3 -0.48616637771436511     
           4   2.1030951265165704E-006
           5   8.8639222330596235E-003
           6  0.35920980306696865     
           7  0.41477808165572655     
           8  -1.9715168905660443E-006
           9   8.8641197000714073E-003
          10  0.28883119581350680     
          11  0.46652959775085007     
          12  -1.8226772381876872E-006
Sym=    10a
Ene=  -0.36706243337383804     
Spin= Alpha
Occup=     1.00000000
           1  -6.1627082393264485E-010
           2  -2.9849029167506190E-006
           3  -1.4929695487979762E-006
           4 -0.85510653862181407     
           5   3.0727315885117556E-010
           6   1.8575849477699177E-006
           7   9.2595086171878724E-007
           8  0.52973995899162718     
           9  -1.0823564527753875E-008
          10   1.8388789347434795E-006
          11   9.2866276903332571E-007
          12  0.52974098612843423     
Sym=    11a
Ene=    5.4514688920713185E-002
Spin= Alpha
Occup=     0.00000000
           1 -0.85613267530683390     
           2 -0.43938916766151770     
           3 -0.59755987650115827     
           4   2.5810009635838396E-006
           5  0.38399463922706506     
           6  0.37846742258327387     
           7 -0.51630082073561001     
           8  -4.1959171167493123E-007
           9  0.38398990768763774     
          10 -0.60564471723152102     
          11  0.20734188813287455     
          12   1.7497874106715915E-006
Sym=    12a
Ene=   0.17204862262447235     
Spin= Alpha
Occup=     0.00000000
           1  -5.6891182048667077E-006
           2 -0.89334758533249192     
           3  0.65688991935069763     
           4   1.9720651020051436E-006
           5 -0.45057817284310636     
           6 -0.11635247874315610     
           7  0.61555313140604573     
           8  -6.6858686537806992E-007
           9  0.45058341238508398     
          10 -0.62225773012950270     
          11  -7.2442527983642244E-002
          12   2.2964052440273207E-006
