$hessian                                                                        
        0.5011157569  -0.0559427855  -0.0000016516  -0.0476972894   0.0429081366
        0.0000000916  -0.4534184676   0.0130346490   0.0000015600
       -0.0559427855   0.4662791093  -0.0000006185   0.1397718561  -0.4360411334
        0.0000002731  -0.0838290705  -0.0302379759   0.0000003454
       -0.0000016516  -0.0000006185   0.0000000000  -0.0000000774   0.0000006112
       -0.0000000000   0.0000017290   0.0000000073  -0.0000000000
       -0.0476972894   0.1397718561  -0.0000000774   0.1127003020  -0.1807589063
       -0.0000000779  -0.0650030126   0.0409870502   0.0000001554
        0.0429081366  -0.4360411334   0.0000006112  -0.1807589063   0.4451793507
       -0.0000001460   0.1378507697  -0.0091382173  -0.0000004652
        0.0000000916   0.0000002731  -0.0000000000  -0.0000000779  -0.0000001460
        0.0000000000  -0.0000000137  -0.0000001271   0.0000000000
       -0.4534184676  -0.0838290705   0.0000017290  -0.0650030126   0.1378507697
       -0.0000000137   0.5184214802  -0.0540216992  -0.0000017154
        0.0130346490  -0.0302379759   0.0000000073   0.0409870502  -0.0091382173
       -0.0000001271  -0.0540216992   0.0393761932   0.0000001198
        0.0000015600   0.0000003454  -0.0000000000   0.0000001554  -0.0000004652
        0.0000000000  -0.0000017154   0.0000001198   0.0000000000
