3
 energy: -10.729942452852 gnorm: 0.000147593672 xtb: 6.2.2 (9d81278992624c895f80dd42a50cac0aa55982e2)
N        -0.25985437412663   -0.35338958595620    0.00000152383998
O        -0.74585720773147    0.82067598318041    0.00000117120482
O         1.00571058186333   -0.46728539721898   -0.00000269504305
