 Entering Gaussian System, Link 0=g16
 Initial command:
 /applis/site/cecic/gaussian16/B.01/nehalem/g16/l1.exe "/bettik/tinaccil/g16/12192550_H2O_1/Gau-185301.inp" -scrdir="/bettik/tinaccil/g16/12192550_H2O_1/"
 Entering Link 1 = /applis/site/cecic/gaussian16/B.01/nehalem/g16/l1.exe PID=    185303.
  
 Copyright (c) 1988-2017, Gaussian, Inc.  All Rights Reserved.
  
 This is part of the Gaussian(R) 16 program.  It is based on
 the Gaussian(R) 09 system (copyright 2009, Gaussian, Inc.),
 the Gaussian(R) 03 system (copyright 2003, Gaussian, Inc.),
 the Gaussian(R) 98 system (copyright 1998, Gaussian, Inc.),
 the Gaussian(R) 94 system (copyright 1995, Gaussian, Inc.),
 the Gaussian 92(TM) system (copyright 1992, Gaussian, Inc.),
 the Gaussian 90(TM) system (copyright 1990, Gaussian, Inc.),
 the Gaussian 88(TM) system (copyright 1988, Gaussian, Inc.),
 the Gaussian 86(TM) system (copyright 1986, Carnegie Mellon
 University), and the Gaussian 82(TM) system (copyright 1983,
 Carnegie Mellon University). Gaussian is a federally registered
 trademark of Gaussian, Inc.
  
 This software contains proprietary and confidential information,
 including trade secrets, belonging to Gaussian, Inc.
  
 This software is provided under written license and may be
 used, copied, transmitted, or stored only in accord with that
 written license.
  
 The following legend is applicable only to US Government
 contracts under FAR:
  
                    RESTRICTED RIGHTS LEGEND
  
 Use, reproduction and disclosure by the US Government is
 subject to restrictions as set forth in subparagraphs (a)
 and (c) of the Commercial Computer Software - Restricted
 Rights clause in FAR 52.227-19.
  
 Gaussian, Inc.
 340 Quinnipiac St., Bldg. 40, Wallingford CT 06492
  
  
 ---------------------------------------------------------------
 Warning -- This program may not be used in any manner that
 competes with the business of Gaussian, Inc. or will provide
 assistance to any competitor of Gaussian, Inc.  The licensee
 of this program is prohibited from giving any competitor of
 Gaussian, Inc. access to this program.  By using this program,
 the user acknowledges that Gaussian, Inc. is engaged in the
 business of creating and licensing software in the field of
 computational chemistry and represents and warrants to the
 licensee that it is not a competitor of Gaussian, Inc. and that
 it will not use this program in any manner prohibited above.
 ---------------------------------------------------------------
  

 Cite this work as:
 Gaussian 16, Revision B.01,
 M. J. Frisch, G. W. Trucks, H. B. Schlegel, G. E. Scuseria, 
 M. A. Robb, J. R. Cheeseman, G. Scalmani, V. Barone, 
 G. A. Petersson, H. Nakatsuji, X. Li, M. Caricato, A. V. Marenich, 
 J. Bloino, B. G. Janesko, R. Gomperts, B. Mennucci, H. P. Hratchian, 
 J. V. Ortiz, A. F. Izmaylov, J. L. Sonnenberg, D. Williams-Young, 
 F. Ding, F. Lipparini, F. Egidi, J. Goings, B. Peng, A. Petrone, 
 T. Henderson, D. Ranasinghe, V. G. Zakrzewski, J. Gao, N. Rega, 
 G. Zheng, W. Liang, M. Hada, M. Ehara, K. Toyota, R. Fukuda, 
 J. Hasegawa, M. Ishida, T. Nakajima, Y. Honda, O. Kitao, H. Nakai, 
 T. Vreven, K. Throssell, J. A. Montgomery, Jr., J. E. Peralta, 
 F. Ogliaro, M. J. Bearpark, J. J. Heyd, E. N. Brothers, K. N. Kudin, 
 V. N. Staroverov, T. A. Keith, R. Kobayashi, J. Normand, 
 K. Raghavachari, A. P. Rendell, J. C. Burant, S. S. Iyengar, 
 J. Tomasi, M. Cossi, J. M. Millam, M. Klene, C. Adamo, R. Cammi, 
 J. W. Ochterski, R. L. Martin, K. Morokuma, O. Farkas, 
 J. B. Foresman, and D. J. Fox, Gaussian, Inc., Wallingford CT, 2016.
 
 ******************************************
 Gaussian 16:  ES64L-G16RevB.01 20-Dec-2017
                25-Sep-2020 
 ******************************************
 %nosave
 %nproc=8
 Will use up to    8 processors via shared memory.
 %mem=2gb
 %chk=input
 --------------------------------------------------------
 #P M062X/cc-pvtz nosymm opt(noeigentest) optcyc=120 freq
 --------------------------------------------------------
 1/6=120,11=1,18=20,19=15,26=3,38=1/1,3;
 2/9=110,12=2,15=1,17=6,18=5,40=1/2;
 3/5=16,6=1,11=2,25=1,30=1,71=1,74=-55/1,2,3;
 4//1;
 5/5=2,38=5/2;
 6/7=2,8=2,9=2,10=2,28=1/1;
 7/30=1/1,2,3,16;
 1/6=120,11=1,18=20,19=15,26=3/3(2);
 2/9=110,15=1/2;
 99//99;
 2/9=110,15=1/2;
 3/5=16,6=1,11=2,25=1,30=1,71=1,74=-55/1,2,3;
 4/5=5,16=3,69=1/1;
 5/5=2,38=5/2;
 7/30=1/1,2,3,16;
 1/6=120,11=1,18=20,19=15,26=3/3(-5);
 2/9=110,15=1/2;
 6/7=2,8=2,9=2,10=2,19=2,28=1/1;
 99/9=1/99;
 Leave Link    1 at Fri Sep 25 11:34:02 2020, MaxMem=   268435456 cpu:               0.8 elap:               0.2
 (Enter /applis/site/cecic/gaussian16/B.01/nehalem/g16/l101.exe)
 -----
 Title
 -----
 Symbolic Z-matrix:
 Charge =  0 Multiplicity = 1
 O
 H                    1    B1
 H                    1    B2       2    A2
       Variables:
  B1                    0.99025                  
  B2                    0.99025                  
  A2                  104.51002                  
 
 ITRead=  0  0  0
 MicOpt= -1 -1 -1
 NAtoms=      3 NQM=        3 NQMF=       0 NMMI=      0 NMMIF=      0
                NMic=       0 NMicF=      0.
                    Isotopes and Nuclear Properties:
 (Nuclear quadrupole moments (NQMom) in fm**2, nuclear magnetic moments (NMagM)
  in nuclear magnetons)

  Atom         1           2           3
 IAtWgt=          16           1           1
 AtmWgt=  15.9949146   1.0078250   1.0078250
 NucSpn=           0           1           1
 AtZEff=  -0.0000000  -0.0000000  -0.0000000
 NQMom=    0.0000000   0.0000000   0.0000000
 NMagM=    0.0000000   2.7928460   2.7928460
 AtZNuc=   8.0000000   1.0000000   1.0000000
 Leave Link  101 at Fri Sep 25 11:34:02 2020, MaxMem=   268435456 cpu:               2.1 elap:               0.3
 (Enter /applis/site/cecic/gaussian16/B.01/nehalem/g16/l103.exe)

 GradGradGradGradGradGradGradGradGradGradGradGradGradGradGradGradGradGrad
 Berny optimization.
 Initialization pass.
                           ----------------------------
                           !    Initial Parameters    !
                           ! (Angstroms and Degrees)  !
 --------------------------                            --------------------------
 ! Name  Definition              Value          Derivative Info.                !
 --------------------------------------------------------------------------------
 ! R1    R(1,2)                  0.9903         estimate D2E/DX2                !
 ! R2    R(1,3)                  0.9903         estimate D2E/DX2                !
 ! A1    A(2,1,3)              104.51           estimate D2E/DX2                !
 --------------------------------------------------------------------------------
 Trust Radius=3.00D-01 FncErr=1.00D-07 GrdErr=1.00D-06 EigMax=2.50D+02 EigMin=1.00D-04
 Number of steps in this run=    100 maximum allowed number of steps=    100.
 GradGradGradGradGradGradGradGradGradGradGradGradGradGradGradGradGradGrad

 Leave Link  103 at Fri Sep 25 11:34:02 2020, MaxMem=   268435456 cpu:               0.1 elap:               0.0
 (Enter /applis/site/cecic/gaussian16/B.01/nehalem/g16/l202.exe)
                          Input orientation:                          
 ---------------------------------------------------------------------
 Center     Atomic      Atomic             Coordinates (Angstroms)
 Number     Number       Type             X           Y           Z
 ---------------------------------------------------------------------
      1          8           0        0.000000    0.000000    0.000000
      2          1           0        0.000000    0.000000    0.990250
      3          1           0        0.958665    0.000000   -0.248106
 ---------------------------------------------------------------------
                    Distance matrix (angstroms):
                    1          2          3
     1  O    0.000000
     2  H    0.990250   0.000000
     3  H    0.990250   1.566067   0.000000
 Symmetry turned off by external request.
 Stoichiometry    H2O
 Framework group  C2V[C2(O),SGV(H2)]
 Deg. of freedom     2
 Full point group                 C2V     NOp   4
 Rotational constants (GHZ):         768.3245231         408.9229948         266.8814843
 Leave Link  202 at Fri Sep 25 11:34:03 2020, MaxMem=   268435456 cpu:               0.9 elap:               0.2
 (Enter /applis/site/cecic/gaussian16/B.01/nehalem/g16/l301.exe)
 Standard basis: CC-pVTZ (5D, 7F)
 Ernie: Thresh=  0.10000D-02 Tol=  0.10000D-05 Strict=F.
 Ernie:  3 primitive shells out of 42 were deleted.
    58 basis functions,    86 primitive gaussians,    65 cartesian basis functions
     5 alpha electrons        5 beta electrons
       nuclear repulsion energy         8.8881019093 Hartrees.
 IExCor= 4336 DFT=T Ex+Corr=M062X ExCW=0 ScaHFX=  0.540000
 ScaDFX=  1.000000  1.000000  1.000000  1.000000 ScalE2=  1.000000  1.000000
 IRadAn=      5 IRanWt=     -1 IRanGd=            0 ICorTp=0 IEmpDi=  4
 NAtoms=    3 NActive=    3 NUniq=    3 SFac= 1.00D+00 NAtFMM=   60 NAOKFM=F Big=F
 Integral buffers will be    131072 words long.
 Raffenetti 2 integral format.
 Two-electron integral symmetry is turned off.
 Leave Link  301 at Fri Sep 25 11:34:03 2020, MaxMem=   268435456 cpu:               0.8 elap:               0.2
 (Enter /applis/site/cecic/gaussian16/B.01/nehalem/g16/l302.exe)
 NPDir=0 NMtPBC=     1 NCelOv=     1 NCel=       1 NClECP=     1 NCelD=      1
         NCelK=      1 NCelE2=     1 NClLst=     1 CellRange=     0.0.
 One-electron integrals computed using PRISM.
 NBasis=    58 RedAO= T EigKep=  2.82D-03  NBF=    58
 NBsUse=    58 1.00D-06 EigRej= -1.00D+00 NBFU=    58
 Precomputing XC quadrature grid using
 IXCGrd= 4 IRadAn=           5 IRanWt=          -1 IRanGd=           0 AccXCQ= 0.00D+00.
 Generated NRdTot=       0 NPtTot=           0 NUsed=           0 NTot=          32
 NSgBfM=    65    65    65    65    65 MxSgAt=     3 MxSgA2=     3.
 Leave Link  302 at Fri Sep 25 11:34:03 2020, MaxMem=   268435456 cpu:               1.4 elap:               0.2
 (Enter /applis/site/cecic/gaussian16/B.01/nehalem/g16/l303.exe)
 DipDrv:  MaxL=1.
 Leave Link  303 at Fri Sep 25 11:34:03 2020, MaxMem=   268435456 cpu:               0.4 elap:               0.1
 (Enter /applis/site/cecic/gaussian16/B.01/nehalem/g16/l401.exe)
 ExpMin= 1.03D-01 ExpMax= 1.53D+04 ExpMxC= 5.22D+02 IAcc=3 IRadAn=         5 AccDes= 0.00D+00
 Harris functional with IExCor= 1009 and IRadAn=       5 diagonalized for initial guess.
 HarFok:  IExCor= 1009 AccDes= 0.00D+00 IRadAn=         5 IDoV= 1 UseB2=F ITyADJ=14
 ICtDFT=  3500011 ScaDFX=  1.000000  1.000000  1.000000  1.000000
 FoFCou: FMM=F IPFlag=           0 FMFlag=      100000 FMFlg1=           0
         NFxFlg=           0 DoJE=T BraDBF=F KetDBF=T FulRan=T
         wScrn=  0.000000 ICntrl=       500 IOpCl=  0 I1Cent=   200000004 NGrid=           0
         NMat0=    1 NMatS0=      1 NMatT0=    0 NMatD0=    1 NMtDS0=    0 NMtDT0=    0
 Symmetry not used in FoFCou.
 Harris En= -76.4182390438777    
 JPrj=0 DoOrth=F DoCkMO=F.
 Leave Link  401 at Fri Sep 25 11:34:03 2020, MaxMem=   268435456 cpu:               1.6 elap:               0.2
 (Enter /applis/site/cecic/gaussian16/B.01/nehalem/g16/l502.exe)
 Keep R1 ints in memory in canonical form, NReq=8584532.
 FoFCou: FMM=F IPFlag=           0 FMFlag=           0 FMFlg1=           0
         NFxFlg=           0 DoJE=F BraDBF=F KetDBF=F FulRan=T
         wScrn=  0.000000 ICntrl=       600 IOpCl=  0 I1Cent=           0 NGrid=           0
         NMat0=    1 NMatS0=   1711 NMatT0=    0 NMatD0=    1 NMtDS0=    0 NMtDT0=    0
 Symmetry not used in FoFCou.
 Two-electron integral symmetry not used.
 Closed shell SCF:
 Using DIIS extrapolation, IDIIS=  1040.
 NGot=   268435456 LenX=   266961298 LenY=   266956632
 Requested convergence on RMS density matrix=1.00D-08 within 128 cycles.
 Requested convergence on MAX density matrix=1.00D-06.
 Requested convergence on             energy=1.00D-06.
 No special actions if energy rises.
 Integral accuracy reduced to 1.0D-05 until final iterations.

 Cycle   1  Pass 0  IDiag  1:
 E= -76.3474257179381    
 DIIS: error= 5.71D-02 at cycle   1 NSaved=   1.
 NSaved= 1 IEnMin= 1 EnMin= -76.3474257179381     IErMin= 1 ErrMin= 5.71D-02
 ErrMax= 5.71D-02  0.00D+00 EMaxC= 1.00D-01 BMatC= 1.18D-01 BMatP= 1.18D-01
 IDIUse=3 WtCom= 4.29D-01 WtEn= 5.71D-01
 Coeff-Com:  0.100D+01
 Coeff-En:   0.100D+01
 Coeff:      0.100D+01
 Gap=     0.314 Goal=   None    Shift=    0.000
 GapD=    0.314 DampG=1.000 DampE=0.500 DampFc=0.5000 IDamp=-1.
 Damping current iteration by 5.00D-01
 RMSDP=4.89D-03 MaxDP=9.48D-02              OVMax= 1.64D-01

 Cycle   2  Pass 0  IDiag  1:
 E= -76.3813707122479     Delta-E=       -0.033944994310 Rises=F Damp=T
 DIIS: error= 1.32D-02 at cycle   2 NSaved=   2.
 NSaved= 2 IEnMin= 2 EnMin= -76.3813707122479     IErMin= 2 ErrMin= 1.32D-02
 ErrMax= 1.32D-02  0.00D+00 EMaxC= 1.00D-01 BMatC= 5.76D-03 BMatP= 1.18D-01
 IDIUse=3 WtCom= 8.68D-01 WtEn= 1.32D-01
 Coeff-Com:  0.787D-01 0.921D+00
 Coeff-En:   0.136D+00 0.864D+00
 Coeff:      0.863D-01 0.914D+00
 Gap=     0.441 Goal=   None    Shift=    0.000
 RMSDP=6.13D-04 MaxDP=9.97D-03 DE=-3.39D-02 OVMax= 8.42D-02

 Cycle   3  Pass 0  IDiag  1:
 E= -76.4234600907267     Delta-E=       -0.042089378479 Rises=F Damp=F
 DIIS: error= 7.66D-04 at cycle   3 NSaved=   3.
 NSaved= 3 IEnMin= 3 EnMin= -76.4234600907267     IErMin= 3 ErrMin= 7.66D-04
 ErrMax= 7.66D-04  0.00D+00 EMaxC= 1.00D-01 BMatC= 1.67D-05 BMatP= 5.76D-03
 IDIUse=3 WtCom= 9.92D-01 WtEn= 7.66D-03
 Coeff-Com:  0.242D-02-0.394D-02 0.100D+01
 Coeff-En:   0.000D+00 0.000D+00 0.100D+01
 Coeff:      0.240D-02-0.391D-02 0.100D+01
 Gap=     0.449 Goal=   None    Shift=    0.000
 RMSDP=5.41D-05 MaxDP=7.93D-04 DE=-4.21D-02 OVMax= 1.69D-03

 Cycle   4  Pass 0  IDiag  1:
 E= -76.4234768230752     Delta-E=       -0.000016732348 Rises=F Damp=F
 DIIS: error= 2.21D-04 at cycle   4 NSaved=   4.
 NSaved= 4 IEnMin= 4 EnMin= -76.4234768230752     IErMin= 4 ErrMin= 2.21D-04
 ErrMax= 2.21D-04  0.00D+00 EMaxC= 1.00D-01 BMatC= 2.22D-06 BMatP= 1.67D-05
 IDIUse=3 WtCom= 9.98D-01 WtEn= 2.21D-03
 Coeff-Com:  0.161D-02-0.725D-02 0.154D+00 0.852D+00
 Coeff-En:   0.000D+00 0.000D+00 0.000D+00 0.100D+01
 Coeff:      0.161D-02-0.724D-02 0.154D+00 0.852D+00
 Gap=     0.449 Goal=   None    Shift=    0.000
 RMSDP=1.27D-05 MaxDP=2.50D-04 DE=-1.67D-05 OVMax= 3.65D-04

 Cycle   5  Pass 0  IDiag  1:
 E= -76.4234781934335     Delta-E=       -0.000001370358 Rises=F Damp=F
 DIIS: error= 4.39D-05 at cycle   5 NSaved=   5.
 NSaved= 5 IEnMin= 5 EnMin= -76.4234781934335     IErMin= 5 ErrMin= 4.39D-05
 ErrMax= 4.39D-05  0.00D+00 EMaxC= 1.00D-01 BMatC= 4.98D-08 BMatP= 2.22D-06
 IDIUse=1 WtCom= 1.00D+00 WtEn= 0.00D+00
 Coeff-Com:  0.146D-03-0.139D-03-0.410D-01-0.465D-01 0.109D+01
 Coeff:      0.146D-03-0.139D-03-0.410D-01-0.465D-01 0.109D+01
 Gap=     0.449 Goal=   None    Shift=    0.000
 RMSDP=4.11D-06 MaxDP=6.76D-05 DE=-1.37D-06 OVMax= 1.58D-04

 Initial convergence to 1.0D-05 achieved.  Increase integral accuracy.
 Cycle   6  Pass 1  IDiag  1:
 E= -76.4234963380867     Delta-E=       -0.000018144653 Rises=F Damp=F
 DIIS: error= 3.02D-05 at cycle   1 NSaved=   1.
 NSaved= 1 IEnMin= 1 EnMin= -76.4234963380867     IErMin= 1 ErrMin= 3.02D-05
 ErrMax= 3.02D-05  0.00D+00 EMaxC= 1.00D-01 BMatC= 7.44D-08 BMatP= 7.44D-08
 IDIUse=1 WtCom= 1.00D+00 WtEn= 0.00D+00
 Coeff-Com:  0.100D+01
 Coeff:      0.100D+01
 Gap=     0.449 Goal=   None    Shift=    0.000
 RMSDP=4.11D-06 MaxDP=6.76D-05 DE=-1.81D-05 OVMax= 4.47D-05

 Cycle   7  Pass 1  IDiag  1:
 E= -76.4234963714294     Delta-E=       -0.000000033343 Rises=F Damp=F
 DIIS: error= 2.34D-06 at cycle   2 NSaved=   2.
 NSaved= 2 IEnMin= 2 EnMin= -76.4234963714294     IErMin= 2 ErrMin= 2.34D-06
 ErrMax= 2.34D-06  0.00D+00 EMaxC= 1.00D-01 BMatC= 3.85D-10 BMatP= 7.44D-08
 IDIUse=1 WtCom= 1.00D+00 WtEn= 0.00D+00
 Coeff-Com: -0.278D-01 0.103D+01
 Coeff:     -0.278D-01 0.103D+01
 Gap=     0.449 Goal=   None    Shift=    0.000
 RMSDP=4.15D-07 MaxDP=6.61D-06 DE=-3.33D-08 OVMax= 6.78D-06

 Cycle   8  Pass 1  IDiag  1:
 E= -76.4234963716178     Delta-E=       -0.000000000188 Rises=F Damp=F
 DIIS: error= 2.14D-06 at cycle   3 NSaved=   3.
 NSaved= 3 IEnMin= 3 EnMin= -76.4234963716178     IErMin= 3 ErrMin= 2.14D-06
 ErrMax= 2.14D-06  0.00D+00 EMaxC= 1.00D-01 BMatC= 1.67D-10 BMatP= 3.85D-10
 IDIUse=1 WtCom= 1.00D+00 WtEn= 0.00D+00
 Coeff-Com: -0.156D-01 0.411D+00 0.605D+00
 Coeff:     -0.156D-01 0.411D+00 0.605D+00
 Gap=     0.449 Goal=   None    Shift=    0.000
 RMSDP=1.12D-07 MaxDP=1.98D-06 DE=-1.88D-10 OVMax= 3.71D-06

 Cycle   9  Pass 1  IDiag  1:
 E= -76.4234963717131     Delta-E=       -0.000000000095 Rises=F Damp=F
 DIIS: error= 7.05D-07 at cycle   4 NSaved=   4.
 NSaved= 4 IEnMin= 4 EnMin= -76.4234963717131     IErMin= 4 ErrMin= 7.05D-07
 ErrMax= 7.05D-07  0.00D+00 EMaxC= 1.00D-01 BMatC= 1.54D-11 BMatP= 1.67D-10
 IDIUse=1 WtCom= 1.00D+00 WtEn= 0.00D+00
 Coeff-Com: -0.105D-02-0.985D-02 0.221D+00 0.790D+00
 Coeff:     -0.105D-02-0.985D-02 0.221D+00 0.790D+00
 Gap=     0.449 Goal=   None    Shift=    0.000
 RMSDP=3.28D-08 MaxDP=5.30D-07 DE=-9.53D-11 OVMax= 1.02D-06

 Cycle  10  Pass 1  IDiag  1:
 E= -76.4234963717231     Delta-E=       -0.000000000010 Rises=F Damp=F
 DIIS: error= 7.22D-08 at cycle   5 NSaved=   5.
 NSaved= 5 IEnMin= 5 EnMin= -76.4234963717231     IErMin= 5 ErrMin= 7.22D-08
 ErrMax= 7.22D-08  0.00D+00 EMaxC= 1.00D-01 BMatC= 2.20D-13 BMatP= 1.54D-11
 IDIUse=1 WtCom= 1.00D+00 WtEn= 0.00D+00
 Coeff-Com:  0.280D-03-0.162D-01 0.218D-01 0.160D+00 0.834D+00
 Coeff:      0.280D-03-0.162D-01 0.218D-01 0.160D+00 0.834D+00
 Gap=     0.449 Goal=   None    Shift=    0.000
 RMSDP=7.80D-09 MaxDP=1.33D-07 DE=-1.01D-11 OVMax= 2.60D-07

 SCF Done:  E(RM062X) =  -76.4234963717     A.U. after   10 cycles
            NFock= 10  Conv=0.78D-08     -V/T= 2.0055
 KE= 7.600367901437D+01 PE=-1.985797290495D+02 EE= 3.726445175409D+01
 Leave Link  502 at Fri Sep 25 11:34:04 2020, MaxMem=   268435456 cpu:               8.1 elap:               1.1
 (Enter /applis/site/cecic/gaussian16/B.01/nehalem/g16/l601.exe)
 Copying SCF densities to generalized density rwf, IOpCl= 0 IROHF=0.

 **********************************************************************

            Population analysis using the SCF Density.

 **********************************************************************

 Alpha  occ. eigenvalues --  -19.61771  -1.11393  -0.58777  -0.46295  -0.39084
 Alpha virt. eigenvalues --    0.05850   0.12354   0.40468   0.44679   0.55195
 Alpha virt. eigenvalues --    0.64245   0.66656   0.66724   0.71883   0.81904
 Alpha virt. eigenvalues --    0.99409   1.03584   1.31821   1.32661   1.80219
 Alpha virt. eigenvalues --    1.82854   1.89741   1.92793   2.02185   2.27967
 Alpha virt. eigenvalues --    2.62606   3.06823   3.18802   3.25769   3.31796
 Alpha virt. eigenvalues --    3.42010   3.51344   3.56891   3.62201   3.69484
 Alpha virt. eigenvalues --    3.72696   3.80152   3.96037   4.00675   4.17180
 Alpha virt. eigenvalues --    4.29796   4.45826   4.65811   4.82895   5.10049
 Alpha virt. eigenvalues --    5.55877   5.99349   6.31614   6.35554   6.41344
 Alpha virt. eigenvalues --    6.48473   6.51681   6.64993   6.70904   6.92283
 Alpha virt. eigenvalues --    7.20510   7.54413  11.71047
          Condensed to atoms (all electrons):
               1          2          3
     1  O    7.854751   0.333808   0.333809
     2  H    0.333808   0.445358  -0.040349
     3  H    0.333809  -0.040349   0.445356
 Mulliken charges:
               1
     1  O   -0.522368
     2  H    0.261183
     3  H    0.261185
 Sum of Mulliken charges =  -0.00000
 Mulliken charges with hydrogens summed into heavy atoms:
               1
     1  O   -0.000000
 Electronic spatial extent (au):  <R**2>=             19.8960
 Charge=             -0.0000 electrons
 Dipole moment (field-independent basis, Debye):
    X=              1.5682    Y=             -0.0000    Z=              1.2140  Tot=              1.9832
 Quadrupole moment (field-independent basis, Debye-Ang):
   XX=             -5.1376   YY=             -7.4307   ZZ=             -4.7726
   XY=             -0.0000   XZ=             -0.7053   YZ=             -0.0000
 Traceless Quadrupole moment (field-independent basis, Debye-Ang):
   XX=              0.6427   YY=             -1.6504   ZZ=              1.0077
   XY=             -0.0000   XZ=             -0.7053   YZ=             -0.0000
 Octapole moment (field-independent basis, Debye-Ang**2):
  XXX=              0.2835  YYY=             -0.0000  ZZZ=              0.7979  XYY=             -0.5215
  XXY=              0.0000  XXZ=             -0.8893  XZZ=             -0.4015  YZZ=              0.0000
  YYZ=             -0.4037  XYZ=             -0.0000
 Hexadecapole moment (field-independent basis, Debye-Ang**3):
 XXXX=             -5.6884 YYYY=             -5.8516 ZZZZ=             -5.5358 XXXY=             -0.0000
 XXXZ=             -0.3907 YYYX=             -0.0000 YYYZ=             -0.0000 ZZZX=              0.0958
 ZZZY=             -0.0000 XXYY=             -2.2811 XXZZ=             -2.4553 YYZZ=             -2.3155
 XXYZ=             -0.0000 YYXZ=              0.0665 ZZXY=             -0.0000
 N-N= 8.888101909334D+00 E-N=-1.985797279412D+02  KE= 7.600367901437D+01
 No NMR shielding tensors so no spin-rotation constants.
 Leave Link  601 at Fri Sep 25 11:34:05 2020, MaxMem=   268435456 cpu:               0.9 elap:               0.1
 (Enter /applis/site/cecic/gaussian16/B.01/nehalem/g16/l701.exe)
 ... and contract with generalized density number  0.
 Compute integral first derivatives.
 Leave Link  701 at Fri Sep 25 11:34:05 2020, MaxMem=   268435456 cpu:               1.1 elap:               0.2
 (Enter /applis/site/cecic/gaussian16/B.01/nehalem/g16/l702.exe)
 L702 exits ... SP integral derivatives will be done elsewhere.
 Leave Link  702 at Fri Sep 25 11:34:05 2020, MaxMem=   268435456 cpu:               0.4 elap:               0.1
 (Enter /applis/site/cecic/gaussian16/B.01/nehalem/g16/l703.exe)
 Integral derivatives from FoFJK, PRISM(SPDF).
 Compute integral first derivatives, UseDBF=F ICtDFT=           0.
 Calling FoFJK, ICntrl=      2127 FMM=F ISym2X=0 I1Cent= 0 IOpClX= 0 NMat=1 NMatS=1 NMatT=0.
 FoFJK:  IHMeth= 1 ICntrl=    2127 DoSepK=F KAlg= 0 I1Cent=           0 FoldK=F
 IRaf=         0 NMat=       1 IRICut=       1 DoRegI=T DoRafI=F ISym2E= 0 IDoP0=0 IntGTp=1.
 FoFCou: FMM=F IPFlag=           0 FMFlag=      100000 FMFlg1=         800
         NFxFlg=           0 DoJE=F BraDBF=F KetDBF=F FulRan=T
         wScrn=  0.000000 ICntrl=      2127 IOpCl=  0 I1Cent=           0 NGrid=           0
         NMat0=    1 NMatS0=      1 NMatT0=    0 NMatD0=    1 NMtDS0=    0 NMtDT0=    0
 Symmetry not used in FoFCou.
 Leave Link  703 at Fri Sep 25 11:34:05 2020, MaxMem=   268435456 cpu:               3.9 elap:               0.5
 (Enter /applis/site/cecic/gaussian16/B.01/nehalem/g16/l716.exe)
 Dipole        = 6.16990179D-01-2.86582599D-15 4.77635233D-01
 -------------------------------------------------------------------
 Center     Atomic                   Forces (Hartrees/Bohr)
 Number     Number              X              Y              Z
 -------------------------------------------------------------------
      1        8           0.026470254   -0.000000000    0.020487921
      2        1           0.001334943    0.000000000   -0.029069992
      3        1          -0.027805197    0.000000000    0.008582072
 -------------------------------------------------------------------
 Cartesian Forces:  Max     0.029069992 RMS     0.017682561
 Leave Link  716 at Fri Sep 25 11:34:05 2020, MaxMem=   268435456 cpu:               0.3 elap:               0.1
 (Enter /applis/site/cecic/gaussian16/B.01/nehalem/g16/l103.exe)

 GradGradGradGradGradGradGradGradGradGradGradGradGradGradGradGradGradGrad
 Berny optimization.
 FormGI is forming the generalized inverse of G from B-inverse, IUseBI=4.
 Internal  Forces:  Max     0.029070017 RMS     0.023778964
 Search for a local minimum.
 Step number   1 out of a maximum of  100
 All quantities printed in internal units (Hartrees-Bohrs-Radians)
 RMS Force = .23779D-01 SwitMx=.10000D-02 MixMth= 1
 Mixed Optimization -- RFO/linear search
 Second derivative matrix not updated -- first step.
 The second derivative matrix:
                          R1        R2        A1
           R1           0.49444
           R2           0.00000   0.49444
           A1           0.00000   0.00000   0.16000
 ITU=  0
     Eigenvalues ---    0.16000   0.49444   0.49444
 RFO step:  Lambda=-3.43288182D-03 EMin= 1.60000000D-01
 Linear search not attempted -- first point.
 Iteration  1 RMS(Cart)=  0.04630660 RMS(Int)=  0.00028832
 Iteration  2 RMS(Cart)=  0.00025873 RMS(Int)=  0.00000005
 Iteration  3 RMS(Cart)=  0.00000004 RMS(Int)=  0.00000000
 ITry= 1 IFail=0 DXMaxC= 4.83D-02 DCOld= 1.00D+10 DXMaxT= 3.00D-01 DXLimC= 3.00D+00 Rises=F
 Variable       Old X    -DE/DX   Delta X   Delta X   Delta X     New X
                                 (Linear)    (Quad)   (Total)
    R1        1.87130  -0.02907   0.00000  -0.05838  -0.05838   1.81292
    R2        1.87130  -0.02907   0.00000  -0.05839  -0.05839   1.81291
    A1        1.82404  -0.00250   0.00000  -0.01532  -0.01532   1.80872
         Item               Value     Threshold  Converged?
 Maximum Force            0.029070     0.000450     NO 
 RMS     Force            0.023779     0.000300     NO 
 Maximum Displacement     0.048322     0.001800     NO 
 RMS     Displacement     0.046177     0.001200     NO 
 Predicted change in Energy=-1.728546D-03
 Lowest energy point so far.  Saving SCF results.
 GradGradGradGradGradGradGradGradGradGradGradGradGradGradGradGradGradGrad

 Leave Link  103 at Fri Sep 25 11:34:06 2020, MaxMem=   268435456 cpu:               0.6 elap:               0.1
 (Enter /applis/site/cecic/gaussian16/B.01/nehalem/g16/l202.exe)
                          Input orientation:                          
 ---------------------------------------------------------------------
 Center     Atomic      Atomic             Coordinates (Angstroms)
 Number     Number       Type             X           Y           Z
 ---------------------------------------------------------------------
      1          8           0        0.006916    0.000000    0.005353
      2          1           0        0.014266    0.000000    0.964679
      3          1           0        0.937483    0.000000   -0.227889
 ---------------------------------------------------------------------
                    Distance matrix (angstroms):
                    1          2          3
     1  O    0.000000
     2  H    0.959354   0.000000
     3  H    0.959352   1.508160   0.000000
 Symmetry turned off by external request.
 Stoichiometry    H2O
 Framework group  CS[SG(H2O)]
 Deg. of freedom     3
 Full point group                 CS      NOp   2
 Rotational constants (GHZ):         802.6904150         440.9274565         284.5956553
 Leave Link  202 at Fri Sep 25 11:34:06 2020, MaxMem=   268435456 cpu:               0.2 elap:               0.0
 (Enter /applis/site/cecic/gaussian16/B.01/nehalem/g16/l301.exe)
 Standard basis: CC-pVTZ (5D, 7F)
 Ernie: Thresh=  0.10000D-02 Tol=  0.10000D-05 Strict=F.
 Ernie:  3 primitive shells out of 42 were deleted.
    58 basis functions,    86 primitive gaussians,    65 cartesian basis functions
     5 alpha electrons        5 beta electrons
       nuclear repulsion energy         9.1764421292 Hartrees.
 IExCor= 4336 DFT=T Ex+Corr=M062X ExCW=0 ScaHFX=  0.540000
 ScaDFX=  1.000000  1.000000  1.000000  1.000000 ScalE2=  1.000000  1.000000
 IRadAn=      5 IRanWt=     -1 IRanGd=            0 ICorTp=0 IEmpDi=  4
 NAtoms=    3 NActive=    3 NUniq=    3 SFac= 1.00D+00 NAtFMM=   60 NAOKFM=F Big=F
 Integral buffers will be    131072 words long.
 Raffenetti 2 integral format.
 Two-electron integral symmetry is turned off.
 Leave Link  301 at Fri Sep 25 11:34:06 2020, MaxMem=   268435456 cpu:               0.6 elap:               0.1
 (Enter /applis/site/cecic/gaussian16/B.01/nehalem/g16/l302.exe)
 NPDir=0 NMtPBC=     1 NCelOv=     1 NCel=       1 NClECP=     1 NCelD=      1
         NCelK=      1 NCelE2=     1 NClLst=     1 CellRange=     0.0.
 One-electron integrals computed using PRISM.
 NBasis=    58 RedAO= T EigKep=  2.55D-03  NBF=    58
 NBsUse=    58 1.00D-06 EigRej= -1.00D+00 NBFU=    58
 Precomputing XC quadrature grid using
 IXCGrd= 4 IRadAn=           5 IRanWt=          -1 IRanGd=           0 AccXCQ= 0.00D+00.
 Generated NRdTot=       0 NPtTot=           0 NUsed=           0 NTot=          32
 NSgBfM=    65    65    65    65    65 MxSgAt=     3 MxSgA2=     3.
 Leave Link  302 at Fri Sep 25 11:34:06 2020, MaxMem=   268435456 cpu:               1.1 elap:               0.2
 (Enter /applis/site/cecic/gaussian16/B.01/nehalem/g16/l303.exe)
 DipDrv:  MaxL=1.
 Leave Link  303 at Fri Sep 25 11:34:06 2020, MaxMem=   268435456 cpu:               0.3 elap:               0.1
 (Enter /applis/site/cecic/gaussian16/B.01/nehalem/g16/l401.exe)
 Initial guess from the checkpoint file:  "input.chk"
 B after Tr=     0.009148   -0.000000    0.007081
         Rot=    1.000000    0.000000    0.000000   -0.000000 Ang=   0.00 deg.
 Guess basis will be translated and rotated to current coordinates.
 JPrj=2 DoOrth=T DoCkMO=T.
 Generating alternative initial guess.
 ExpMin= 1.03D-01 ExpMax= 1.53D+04 ExpMxC= 5.22D+02 IAcc=3 IRadAn=         5 AccDes= 0.00D+00
 Harris functional with IExCor= 1009 and IRadAn=       5 diagonalized for initial guess.
 HarFok:  IExCor= 1009 AccDes= 0.00D+00 IRadAn=         5 IDoV= 1 UseB2=F ITyADJ=14
 ICtDFT=  3500011 ScaDFX=  1.000000  1.000000  1.000000  1.000000
 FoFCou: FMM=F IPFlag=           0 FMFlag=      100000 FMFlg1=           0
         NFxFlg=           0 DoJE=T BraDBF=F KetDBF=T FulRan=T
         wScrn=  0.000000 ICntrl=       500 IOpCl=  0 I1Cent=   200000004 NGrid=           0
         NMat0=    1 NMatS0=      1 NMatT0=    0 NMatD0=    1 NMtDS0=    0 NMtDT0=    0
 Symmetry not used in FoFCou.
 Harris En= -76.4218384878460    
 Leave Link  401 at Fri Sep 25 11:34:06 2020, MaxMem=   268435456 cpu:               2.2 elap:               0.3
 (Enter /applis/site/cecic/gaussian16/B.01/nehalem/g16/l502.exe)
 Keep R1 ints in memory in canonical form, NReq=8584532.
 FoFCou: FMM=F IPFlag=           0 FMFlag=           0 FMFlg1=           0
         NFxFlg=           0 DoJE=F BraDBF=F KetDBF=F FulRan=T
         wScrn=  0.000000 ICntrl=       600 IOpCl=  0 I1Cent=           0 NGrid=           0
         NMat0=    1 NMatS0=   1711 NMatT0=    0 NMatD0=    1 NMtDS0=    0 NMtDT0=    0
 Symmetry not used in FoFCou.
 Two-electron integral symmetry not used.
 Closed shell SCF:
 Using DIIS extrapolation, IDIIS=  1040.
 NGot=   268435456 LenX=   266961298 LenY=   266956632
 Requested convergence on RMS density matrix=1.00D-08 within 128 cycles.
 Requested convergence on MAX density matrix=1.00D-06.
 Requested convergence on             energy=1.00D-06.
 No special actions if energy rises.
 Integral accuracy reduced to 1.0D-05 until final iterations.

 Cycle   1  Pass 0  IDiag  1:
 E= -76.4247361606759    
 DIIS: error= 3.83D-03 at cycle   1 NSaved=   1.
 NSaved= 1 IEnMin= 1 EnMin= -76.4247361606759     IErMin= 1 ErrMin= 3.83D-03
 ErrMax= 3.83D-03  0.00D+00 EMaxC= 1.00D-01 BMatC= 6.63D-04 BMatP= 6.63D-04
 IDIUse=3 WtCom= 9.62D-01 WtEn= 3.83D-02
 Coeff-Com:  0.100D+01
 Coeff-En:   0.100D+01
 Coeff:      0.100D+01
 Gap=     1.498 Goal=   None    Shift=    0.000
 GapD=    1.498 DampG=2.000 DampE=1.000 DampFc=2.0000 IDamp=-1.
 RMSDP=2.89D-04 MaxDP=3.58D-03              OVMax= 9.89D-03

 Cycle   2  Pass 0  IDiag  1:
 E= -76.4251038380335     Delta-E=       -0.000367677358 Rises=F Damp=F
 DIIS: error= 2.51D-03 at cycle   2 NSaved=   2.
 NSaved= 2 IEnMin= 2 EnMin= -76.4251038380335     IErMin= 2 ErrMin= 2.51D-03
 ErrMax= 2.51D-03  0.00D+00 EMaxC= 1.00D-01 BMatC= 1.95D-04 BMatP= 6.63D-04
 IDIUse=3 WtCom= 9.75D-01 WtEn= 2.51D-02
 Coeff-Com:  0.296D+00 0.704D+00
 Coeff-En:   0.000D+00 0.100D+01
 Coeff:      0.289D+00 0.711D+00
 Gap=     0.455 Goal=   None    Shift=    0.000
 RMSDP=1.30D-04 MaxDP=2.88D-03 DE=-3.68D-04 OVMax= 4.03D-03

 Cycle   3  Pass 0  IDiag  1:
 E= -76.4251911029759     Delta-E=       -0.000087264942 Rises=F Damp=F
 DIIS: error= 1.08D-03 at cycle   3 NSaved=   3.
 NSaved= 3 IEnMin= 3 EnMin= -76.4251911029759     IErMin= 3 ErrMin= 1.08D-03
 ErrMax= 1.08D-03  0.00D+00 EMaxC= 1.00D-01 BMatC= 4.62D-05 BMatP= 1.95D-04
 IDIUse=3 WtCom= 9.89D-01 WtEn= 1.08D-02
 Coeff-Com: -0.155D-02 0.320D+00 0.682D+00
 Coeff-En:   0.000D+00 0.154D+00 0.846D+00
 Coeff:     -0.154D-02 0.318D+00 0.683D+00
 Gap=     0.457 Goal=   None    Shift=    0.000
 RMSDP=4.62D-05 MaxDP=6.95D-04 DE=-8.73D-05 OVMax= 1.97D-03

 Cycle   4  Pass 0  IDiag  1:
 E= -76.4252202293847     Delta-E=       -0.000029126409 Rises=F Damp=F
 DIIS: error= 1.30D-04 at cycle   4 NSaved=   4.
 NSaved= 4 IEnMin= 4 EnMin= -76.4252202293847     IErMin= 4 ErrMin= 1.30D-04
 ErrMax= 1.30D-04  0.00D+00 EMaxC= 1.00D-01 BMatC= 4.99D-07 BMatP= 4.62D-05
 IDIUse=3 WtCom= 9.99D-01 WtEn= 1.30D-03
 Coeff-Com: -0.975D-02 0.108D-01 0.107D+00 0.892D+00
 Coeff-En:   0.000D+00 0.000D+00 0.000D+00 0.100D+01
 Coeff:     -0.974D-02 0.108D-01 0.107D+00 0.892D+00
 Gap=     0.457 Goal=   None    Shift=    0.000
 RMSDP=8.18D-06 MaxDP=1.09D-04 DE=-2.91D-05 OVMax= 3.20D-04

 Initial convergence to 1.0D-05 achieved.  Increase integral accuracy.
 Cycle   5  Pass 1  IDiag  1:
 E= -76.4252388755015     Delta-E=       -0.000018646117 Rises=F Damp=F
 DIIS: error= 3.72D-05 at cycle   1 NSaved=   1.
 NSaved= 1 IEnMin= 1 EnMin= -76.4252388755015     IErMin= 1 ErrMin= 3.72D-05
 ErrMax= 3.72D-05  0.00D+00 EMaxC= 1.00D-01 BMatC= 9.74D-08 BMatP= 9.74D-08
 IDIUse=1 WtCom= 1.00D+00 WtEn= 0.00D+00
 Coeff-Com:  0.100D+01
 Coeff:      0.100D+01
 Gap=     0.457 Goal=   None    Shift=    0.000
 RMSDP=8.18D-06 MaxDP=1.09D-04 DE=-1.86D-05 OVMax= 1.39D-04

 Cycle   6  Pass 1  IDiag  1:
 E= -76.4252389431290     Delta-E=       -0.000000067627 Rises=F Damp=F
 DIIS: error= 1.02D-05 at cycle   2 NSaved=   2.
 NSaved= 2 IEnMin= 2 EnMin= -76.4252389431290     IErMin= 2 ErrMin= 1.02D-05
 ErrMax= 1.02D-05  0.00D+00 EMaxC= 1.00D-01 BMatC= 3.41D-09 BMatP= 9.74D-08
 IDIUse=1 WtCom= 1.00D+00 WtEn= 0.00D+00
 Coeff-Com:  0.394D-04 0.100D+01
 Coeff:      0.394D-04 0.100D+01
 Gap=     0.457 Goal=   None    Shift=    0.000
 RMSDP=9.23D-07 MaxDP=1.65D-05 DE=-6.76D-08 OVMax= 3.07D-05

 Cycle   7  Pass 1  IDiag  1:
 E= -76.4252389459818     Delta-E=       -0.000000002853 Rises=F Damp=F
 DIIS: error= 7.49D-06 at cycle   3 NSaved=   3.
 NSaved= 3 IEnMin= 3 EnMin= -76.4252389459818     IErMin= 3 ErrMin= 7.49D-06
 ErrMax= 7.49D-06  0.00D+00 EMaxC= 1.00D-01 BMatC= 2.52D-09 BMatP= 3.41D-09
 IDIUse=1 WtCom= 1.00D+00 WtEn= 0.00D+00
 Coeff-Com: -0.290D-01 0.469D+00 0.560D+00
 Coeff:     -0.290D-01 0.469D+00 0.560D+00
 Gap=     0.457 Goal=   None    Shift=    0.000
 RMSDP=3.87D-07 MaxDP=6.64D-06 DE=-2.85D-09 OVMax= 1.68D-05

 Cycle   8  Pass 1  IDiag  1:
 E= -76.4252389476489     Delta-E=       -0.000000001667 Rises=F Damp=F
 DIIS: error= 1.77D-06 at cycle   4 NSaved=   4.
 NSaved= 4 IEnMin= 4 EnMin= -76.4252389476489     IErMin= 4 ErrMin= 1.77D-06
 ErrMax= 1.77D-06  0.00D+00 EMaxC= 1.00D-01 BMatC= 9.21D-11 BMatP= 2.52D-09
 IDIUse=1 WtCom= 1.00D+00 WtEn= 0.00D+00
 Coeff-Com: -0.699D-02-0.442D-01 0.986D-01 0.953D+00
 Coeff:     -0.699D-02-0.442D-01 0.986D-01 0.953D+00
 Gap=     0.457 Goal=   None    Shift=    0.000
 RMSDP=1.58D-07 MaxDP=2.29D-06 DE=-1.67D-09 OVMax= 6.10D-06

 Cycle   9  Pass 1  IDiag  1:
 E= -76.4252389477604     Delta-E=       -0.000000000112 Rises=F Damp=F
 DIIS: error= 3.34D-07 at cycle   5 NSaved=   5.
 NSaved= 5 IEnMin= 5 EnMin= -76.4252389477604     IErMin= 5 ErrMin= 3.34D-07
 ErrMax= 3.34D-07  0.00D+00 EMaxC= 1.00D-01 BMatC= 2.58D-12 BMatP= 9.21D-11
 IDIUse=1 WtCom= 1.00D+00 WtEn= 0.00D+00
 Coeff-Com:  0.152D-02-0.403D-01-0.259D-01 0.972D-01 0.967D+00
 Coeff:      0.152D-02-0.403D-01-0.259D-01 0.972D-01 0.967D+00
 Gap=     0.457 Goal=   None    Shift=    0.000
 RMSDP=3.82D-08 MaxDP=5.28D-07 DE=-1.12D-10 OVMax= 1.91D-06

 Cycle  10  Pass 1  IDiag  1:
 E= -76.4252389477658     Delta-E=       -0.000000000005 Rises=F Damp=F
 DIIS: error= 3.45D-08 at cycle   6 NSaved=   6.
 NSaved= 6 IEnMin= 6 EnMin= -76.4252389477658     IErMin= 6 ErrMin= 3.45D-08
 ErrMax= 3.45D-08  0.00D+00 EMaxC= 1.00D-01 BMatC= 2.03D-14 BMatP= 2.58D-12
 IDIUse=1 WtCom= 1.00D+00 WtEn= 0.00D+00
 Coeff-Com:  0.831D-04 0.123D-02-0.172D-03-0.181D-01-0.264D-01 0.104D+01
 Coeff:      0.831D-04 0.123D-02-0.172D-03-0.181D-01-0.264D-01 0.104D+01
 Gap=     0.457 Goal=   None    Shift=    0.000
 RMSDP=3.95D-09 MaxDP=7.36D-08 DE=-5.36D-12 OVMax= 1.39D-07

 SCF Done:  E(RM062X) =  -76.4252389478     A.U. after   10 cycles
            NFock= 10  Conv=0.40D-08     -V/T= 2.0041
 KE= 7.611686303806D+01 PE=-1.992026033608D+02 EE= 3.748405924575D+01
 Leave Link  502 at Fri Sep 25 11:34:08 2020, MaxMem=   268435456 cpu:               8.4 elap:               1.1
 (Enter /applis/site/cecic/gaussian16/B.01/nehalem/g16/l701.exe)
 ... and contract with generalized density number  0.
 Compute integral first derivatives.
 Leave Link  701 at Fri Sep 25 11:34:08 2020, MaxMem=   268435456 cpu:               1.1 elap:               0.2
 (Enter /applis/site/cecic/gaussian16/B.01/nehalem/g16/l702.exe)
 L702 exits ... SP integral derivatives will be done elsewhere.
 Leave Link  702 at Fri Sep 25 11:34:08 2020, MaxMem=   268435456 cpu:               0.4 elap:               0.1
 (Enter /applis/site/cecic/gaussian16/B.01/nehalem/g16/l703.exe)
 Integral derivatives from FoFJK, PRISM(SPDF).
 Compute integral first derivatives, UseDBF=F ICtDFT=           0.
 Calling FoFJK, ICntrl=      2127 FMM=F ISym2X=0 I1Cent= 0 IOpClX= 0 NMat=1 NMatS=1 NMatT=0.
 FoFJK:  IHMeth= 1 ICntrl=    2127 DoSepK=F KAlg= 0 I1Cent=           0 FoldK=F
 IRaf=         0 NMat=       1 IRICut=       1 DoRegI=T DoRafI=F ISym2E= 0 IDoP0=0 IntGTp=1.
 FoFCou: FMM=F IPFlag=           0 FMFlag=      100000 FMFlg1=         800
         NFxFlg=           0 DoJE=F BraDBF=F KetDBF=F FulRan=T
         wScrn=  0.000000 ICntrl=      2127 IOpCl=  0 I1Cent=           0 NGrid=           0
         NMat0=    1 NMatS0=      1 NMatT0=    0 NMatD0=    1 NMtDS0=    0 NMtDT0=    0
 Symmetry not used in FoFCou.
 Leave Link  703 at Fri Sep 25 11:34:08 2020, MaxMem=   268435456 cpu:               3.7 elap:               0.5
 (Enter /applis/site/cecic/gaussian16/B.01/nehalem/g16/l716.exe)
 Dipole        = 6.14902962D-01 1.03372219D-15 4.76022290D-01
 -------------------------------------------------------------------
 Center     Atomic                   Forces (Hartrees/Bohr)
 Number     Number              X              Y              Z
 -------------------------------------------------------------------
      1        8           0.002098233    0.000000000    0.001630434
      2        1          -0.001820896   -0.000000000    0.000182315
      3        1          -0.000277338   -0.000000000   -0.001812748
 -------------------------------------------------------------------
 Cartesian Forces:  Max     0.002098233 RMS     0.001237056
 Leave Link  716 at Fri Sep 25 11:34:08 2020, MaxMem=   268435456 cpu:               0.5 elap:               0.1
 (Enter /applis/site/cecic/gaussian16/B.01/nehalem/g16/l103.exe)

 GradGradGradGradGradGradGradGradGradGradGradGradGradGradGradGradGradGrad
 Berny optimization.
 Using GEDIIS/GDIIS optimizer.
 FormGI is forming the generalized inverse of G from B-inverse, IUseBI=4.
 Internal  Forces:  Max     0.003306778 RMS     0.001914211
 Search for a local minimum.
 Step number   2 out of a maximum of  100
 All quantities printed in internal units (Hartrees-Bohrs-Radians)
 RMS Force = .19142D-02 SwitMx=.10000D-02 MixMth= 1
 Mixed Optimization -- RFO/linear search
 Update second derivatives using D2CorX and points    1    2
 DE= -1.74D-03 DEPred=-1.73D-03 R= 1.01D+00
 TightC=F SS=  1.41D+00  RLast= 8.40D-02 DXNew= 5.0454D-01 2.5194D-01
 Trust test= 1.01D+00 RLast= 8.40D-02 DXMaxT set to 3.00D-01
 The second derivative matrix:
                          R1        R2        A1
           R1           0.49394
           R2          -0.00047   0.49402
           A1           0.02773   0.02774   0.16788
 ITU=  1  0
 Use linear search instead of GDIIS.
     Eigenvalues ---    0.16322   0.49444   0.49817
 RFO step:  Lambda=-6.41370470D-05 EMin= 1.63217831D-01
 Quartic linear search produced a step of -0.01822.
 Iteration  1 RMS(Cart)=  0.01099970 RMS(Int)=  0.00007345
 Iteration  2 RMS(Cart)=  0.00006565 RMS(Int)=  0.00000000
 Iteration  3 RMS(Cart)=  0.00000000 RMS(Int)=  0.00000000
 ITry= 1 IFail=0 DXMaxC= 1.12D-02 DCOld= 1.00D+10 DXMaxT= 3.00D-01 DXLimC= 3.00D+00 Rises=F
 Variable       Old X    -DE/DX   Delta X   Delta X   Delta X     New X
                                 (Linear)    (Quad)   (Total)
    R1        1.81292   0.00017   0.00106  -0.00195  -0.00089   1.81203
    R2        1.81291   0.00017   0.00106  -0.00194  -0.00088   1.81203
    A1        1.80872   0.00331   0.00028   0.01962   0.01990   1.82862
         Item               Value     Threshold  Converged?
 Maximum Force            0.003307     0.000450     NO 
 RMS     Force            0.001914     0.000300     NO 
 Maximum Displacement     0.011220     0.001800     NO 
 RMS     Displacement     0.010967     0.001200     NO 
 Predicted change in Energy=-3.285395D-05
 Lowest energy point so far.  Saving SCF results.
 GradGradGradGradGradGradGradGradGradGradGradGradGradGradGradGradGradGrad

 Leave Link  103 at Fri Sep 25 11:34:08 2020, MaxMem=   268435456 cpu:               0.3 elap:               0.1
 (Enter /applis/site/cecic/gaussian16/B.01/nehalem/g16/l202.exe)
                          Input orientation:                          
 ---------------------------------------------------------------------
 Center     Atomic      Atomic             Coordinates (Angstroms)
 Number     Number       Type             X           Y           Z
 ---------------------------------------------------------------------
      1          8           0        0.011036    0.000000    0.008545
      2          1           0        0.008844    0.000000    0.967425
      3          1           0        0.938785    0.000000   -0.233826
 ---------------------------------------------------------------------
                    Distance matrix (angstroms):
                    1          2          3
     1  O    0.000000
     2  H    0.958883   0.000000
     3  H    0.958886   1.519142   0.000000
 Symmetry turned off by external request.
 Stoichiometry    H2O
 Framework group  CS[SG(H2O)]
 Deg. of freedom     3
 Full point group                 CS      NOp   2
 Rotational constants (GHZ):         824.2763427         434.5753473         284.5531215
 Leave Link  202 at Fri Sep 25 11:34:09 2020, MaxMem=   268435456 cpu:               0.9 elap:               0.2
 (Enter /applis/site/cecic/gaussian16/B.01/nehalem/g16/l301.exe)
 Standard basis: CC-pVTZ (5D, 7F)
 Ernie: Thresh=  0.10000D-02 Tol=  0.10000D-05 Strict=F.
 Ernie:  3 primitive shells out of 42 were deleted.
    58 basis functions,    86 primitive gaussians,    65 cartesian basis functions
     5 alpha electrons        5 beta electrons
       nuclear repulsion energy         9.1782197561 Hartrees.
 IExCor= 4336 DFT=T Ex+Corr=M062X ExCW=0 ScaHFX=  0.540000
 ScaDFX=  1.000000  1.000000  1.000000  1.000000 ScalE2=  1.000000  1.000000
 IRadAn=      5 IRanWt=     -1 IRanGd=            0 ICorTp=0 IEmpDi=  4
 NAtoms=    3 NActive=    3 NUniq=    3 SFac= 1.00D+00 NAtFMM=   60 NAOKFM=F Big=F
 Integral buffers will be    131072 words long.
 Raffenetti 2 integral format.
 Two-electron integral symmetry is turned off.
 Leave Link  301 at Fri Sep 25 11:34:09 2020, MaxMem=   268435456 cpu:               0.6 elap:               0.1
 (Enter /applis/site/cecic/gaussian16/B.01/nehalem/g16/l302.exe)
 NPDir=0 NMtPBC=     1 NCelOv=     1 NCel=       1 NClECP=     1 NCelD=      1
         NCelK=      1 NCelE2=     1 NClLst=     1 CellRange=     0.0.
 One-electron integrals computed using PRISM.
 NBasis=    58 RedAO= T EigKep=  2.53D-03  NBF=    58
 NBsUse=    58 1.00D-06 EigRej= -1.00D+00 NBFU=    58
 Precomputing XC quadrature grid using
 IXCGrd= 4 IRadAn=           5 IRanWt=          -1 IRanGd=           0 AccXCQ= 0.00D+00.
 Generated NRdTot=       0 NPtTot=           0 NUsed=           0 NTot=          32
 NSgBfM=    65    65    65    65    65 MxSgAt=     3 MxSgA2=     3.
 Leave Link  302 at Fri Sep 25 11:34:09 2020, MaxMem=   268435456 cpu:               1.3 elap:               0.2
 (Enter /applis/site/cecic/gaussian16/B.01/nehalem/g16/l303.exe)
 DipDrv:  MaxL=1.
 Leave Link  303 at Fri Sep 25 11:34:09 2020, MaxMem=   268435456 cpu:               0.5 elap:               0.1
 (Enter /applis/site/cecic/gaussian16/B.01/nehalem/g16/l401.exe)
 Initial guess from the checkpoint file:  "input.chk"
 B after Tr=     0.005449   -0.000000    0.004222
         Rot=    1.000000    0.000000   -0.000000    0.000000 Ang=  -0.00 deg.
 Guess basis will be translated and rotated to current coordinates.
 JPrj=2 DoOrth=T DoCkMO=T.
 Leave Link  401 at Fri Sep 25 11:34:09 2020, MaxMem=   268435456 cpu:               0.9 elap:               0.2
 (Enter /applis/site/cecic/gaussian16/B.01/nehalem/g16/l502.exe)
 Keep R1 ints in memory in canonical form, NReq=8584532.
 FoFCou: FMM=F IPFlag=           0 FMFlag=           0 FMFlg1=           0
         NFxFlg=           0 DoJE=F BraDBF=F KetDBF=F FulRan=T
         wScrn=  0.000000 ICntrl=       600 IOpCl=  0 I1Cent=           0 NGrid=           0
         NMat0=    1 NMatS0=   1711 NMatT0=    0 NMatD0=    1 NMtDS0=    0 NMtDT0=    0
 Symmetry not used in FoFCou.
 Two-electron integral symmetry not used.
 Closed shell SCF:
 Using DIIS extrapolation, IDIIS=  1040.
 NGot=   268435456 LenX=   266961298 LenY=   266956632
 Requested convergence on RMS density matrix=1.00D-08 within 128 cycles.
 Requested convergence on MAX density matrix=1.00D-06.
 Requested convergence on             energy=1.00D-06.
 No special actions if energy rises.

 Cycle   1  Pass 1  IDiag  1:
 E= -76.4252582624035    
 DIIS: error= 5.24D-04 at cycle   1 NSaved=   1.
 NSaved= 1 IEnMin= 1 EnMin= -76.4252582624035     IErMin= 1 ErrMin= 5.24D-04
 ErrMax= 5.24D-04  0.00D+00 EMaxC= 1.00D-01 BMatC= 1.72D-05 BMatP= 1.72D-05
 IDIUse=3 WtCom= 9.95D-01 WtEn= 5.24D-03
 Coeff-Com:  0.100D+01
 Coeff-En:   0.100D+01
 Coeff:      0.100D+01
 Gap=     1.470 Goal=   None    Shift=    0.000
 RMSDP=6.80D-05 MaxDP=1.10D-03              OVMax= 1.52D-03

 Cycle   2  Pass 1  IDiag  1:
 E= -76.4252730799129     Delta-E=       -0.000014817509 Rises=F Damp=F
 DIIS: error= 9.21D-05 at cycle   2 NSaved=   2.
 NSaved= 2 IEnMin= 2 EnMin= -76.4252730799129     IErMin= 2 ErrMin= 9.21D-05
 ErrMax= 9.21D-05  0.00D+00 EMaxC= 1.00D-01 BMatC= 4.39D-07 BMatP= 1.72D-05
 IDIUse=1 WtCom= 1.00D+00 WtEn= 0.00D+00
 Coeff-Com: -0.679D-01 0.107D+01
 Coeff:     -0.679D-01 0.107D+01
 Gap=     0.456 Goal=   None    Shift=    0.000
 RMSDP=1.93D-05 MaxDP=2.16D-04 DE=-1.48D-05 OVMax= 3.62D-04

 Cycle   3  Pass 1  IDiag  1:
 E= -76.4252734149912     Delta-E=       -0.000000335078 Rises=F Damp=F
 DIIS: error= 9.21D-05 at cycle   3 NSaved=   3.
 NSaved= 3 IEnMin= 3 EnMin= -76.4252734149912     IErMin= 2 ErrMin= 9.21D-05
 ErrMax= 9.21D-05  0.00D+00 EMaxC= 1.00D-01 BMatC= 3.03D-07 BMatP= 4.39D-07
 IDIUse=1 WtCom= 1.00D+00 WtEn= 0.00D+00
 Coeff-Com: -0.512D-01 0.514D+00 0.538D+00
 Coeff:     -0.512D-01 0.514D+00 0.538D+00
 Gap=     0.457 Goal=   None    Shift=    0.000
 RMSDP=4.30D-06 MaxDP=7.91D-05 DE=-3.35D-07 OVMax= 1.37D-04

 Cycle   4  Pass 1  IDiag  1:
 E= -76.4252736016156     Delta-E=       -0.000000186624 Rises=F Damp=F
 DIIS: error= 1.26D-05 at cycle   4 NSaved=   4.
 NSaved= 4 IEnMin= 4 EnMin= -76.4252736016156     IErMin= 4 ErrMin= 1.26D-05
 ErrMax= 1.26D-05  0.00D+00 EMaxC= 1.00D-01 BMatC= 5.43D-09 BMatP= 3.03D-07
 IDIUse=1 WtCom= 1.00D+00 WtEn= 0.00D+00
 Coeff-Com:  0.482D-02-0.935D-01 0.434D-01 0.105D+01
 Coeff:      0.482D-02-0.935D-01 0.434D-01 0.105D+01
 Gap=     0.457 Goal=   None    Shift=    0.000
 RMSDP=1.96D-06 MaxDP=2.90D-05 DE=-1.87D-07 OVMax= 3.88D-05

 Cycle   5  Pass 1  IDiag  1:
 E= -76.4252736071903     Delta-E=       -0.000000005575 Rises=F Damp=F
 DIIS: error= 1.20D-06 at cycle   5 NSaved=   5.
 NSaved= 5 IEnMin= 5 EnMin= -76.4252736071903     IErMin= 5 ErrMin= 1.20D-06
 ErrMax= 1.20D-06  0.00D+00 EMaxC= 1.00D-01 BMatC= 4.41D-11 BMatP= 5.43D-09
 IDIUse=1 WtCom= 1.00D+00 WtEn= 0.00D+00
 Coeff-Com:  0.919D-03-0.126D-01-0.688D-02 0.405D-01 0.978D+00
 Coeff:      0.919D-03-0.126D-01-0.688D-02 0.405D-01 0.978D+00
 Gap=     0.457 Goal=   None    Shift=    0.000
 RMSDP=2.09D-07 MaxDP=4.36D-06 DE=-5.57D-09 OVMax= 6.80D-06

 Cycle   6  Pass 1  IDiag  1:
 E= -76.4252736072698     Delta-E=       -0.000000000079 Rises=F Damp=F
 DIIS: error= 3.19D-07 at cycle   6 NSaved=   6.
 NSaved= 6 IEnMin= 6 EnMin= -76.4252736072698     IErMin= 6 ErrMin= 3.19D-07
 ErrMax= 3.19D-07  0.00D+00 EMaxC= 1.00D-01 BMatC= 2.50D-12 BMatP= 4.41D-11
 IDIUse=1 WtCom= 1.00D+00 WtEn= 0.00D+00
 Coeff-Com: -0.223D-03 0.477D-02-0.185D-02-0.569D-01 0.539D-01 0.100D+01
 Coeff:     -0.223D-03 0.477D-02-0.185D-02-0.569D-01 0.539D-01 0.100D+01
 Gap=     0.457 Goal=   None    Shift=    0.000
 RMSDP=3.56D-08 MaxDP=3.74D-07 DE=-7.95D-11 OVMax= 1.77D-06

 Cycle   7  Pass 1  IDiag  1:
 E= -76.4252736072744     Delta-E=       -0.000000000005 Rises=F Damp=F
 DIIS: error= 4.53D-08 at cycle   7 NSaved=   7.
 NSaved= 7 IEnMin= 7 EnMin= -76.4252736072744     IErMin= 7 ErrMin= 4.53D-08
 ErrMax= 4.53D-08  0.00D+00 EMaxC= 1.00D-01 BMatC= 4.24D-14 BMatP= 2.50D-12
 IDIUse=1 WtCom= 1.00D+00 WtEn= 0.00D+00
 Coeff-Com: -0.755D-05-0.328D-04 0.299D-03 0.200D-02-0.274D-01-0.925D-01
 Coeff-Com:  0.112D+01
 Coeff:     -0.755D-05-0.328D-04 0.299D-03 0.200D-02-0.274D-01-0.925D-01
 Coeff:      0.112D+01
 Gap=     0.457 Goal=   None    Shift=    0.000
 RMSDP=6.55D-09 MaxDP=6.91D-08 DE=-4.66D-12 OVMax= 2.89D-07

 SCF Done:  E(RM062X) =  -76.4252736073     A.U. after    7 cycles
            NFock=  7  Conv=0.66D-08     -V/T= 2.0041
 KE= 7.611665864437D+01 PE=-1.992087925900D+02 EE= 3.748864058226D+01
 Leave Link  502 at Fri Sep 25 11:34:10 2020, MaxMem=   268435456 cpu:               7.5 elap:               1.0
 (Enter /applis/site/cecic/gaussian16/B.01/nehalem/g16/l701.exe)
 ... and contract with generalized density number  0.
 Compute integral first derivatives.
 Leave Link  701 at Fri Sep 25 11:34:10 2020, MaxMem=   268435456 cpu:               1.0 elap:               0.1
 (Enter /applis/site/cecic/gaussian16/B.01/nehalem/g16/l702.exe)
 L702 exits ... SP integral derivatives will be done elsewhere.
 Leave Link  702 at Fri Sep 25 11:34:11 2020, MaxMem=   268435456 cpu:               0.4 elap:               0.1
 (Enter /applis/site/cecic/gaussian16/B.01/nehalem/g16/l703.exe)
 Integral derivatives from FoFJK, PRISM(SPDF).
 Compute integral first derivatives, UseDBF=F ICtDFT=           0.
 Calling FoFJK, ICntrl=      2127 FMM=F ISym2X=0 I1Cent= 0 IOpClX= 0 NMat=1 NMatS=1 NMatT=0.
 FoFJK:  IHMeth= 1 ICntrl=    2127 DoSepK=F KAlg= 0 I1Cent=           0 FoldK=F
 IRaf=         0 NMat=       1 IRICut=       1 DoRegI=T DoRafI=F ISym2E= 0 IDoP0=0 IntGTp=1.
 FoFCou: FMM=F IPFlag=           0 FMFlag=      100000 FMFlg1=         800
         NFxFlg=           0 DoJE=F BraDBF=F KetDBF=F FulRan=T
         wScrn=  0.000000 ICntrl=      2127 IOpCl=  0 I1Cent=           0 NGrid=           0
         NMat0=    1 NMatS0=      1 NMatT0=    0 NMatD0=    1 NMtDS0=    0 NMtDT0=    0
 Symmetry not used in FoFCou.
 Leave Link  703 at Fri Sep 25 11:34:11 2020, MaxMem=   268435456 cpu:               3.7 elap:               0.5
 (Enter /applis/site/cecic/gaussian16/B.01/nehalem/g16/l716.exe)
 Dipole        = 6.09542753D-01 3.31963274D-16 4.71869025D-01
 -------------------------------------------------------------------
 Center     Atomic                   Forces (Hartrees/Bohr)
 Number     Number              X              Y              Z
 -------------------------------------------------------------------
      1        8           0.000091723    0.000000000    0.000068574
      2        1          -0.000114058   -0.000000000    0.000055798
      3        1           0.000022335   -0.000000000   -0.000124372
 -------------------------------------------------------------------
 Cartesian Forces:  Max     0.000124372 RMS     0.000070872
 Leave Link  716 at Fri Sep 25 11:34:11 2020, MaxMem=   268435456 cpu:               0.3 elap:               0.1
 (Enter /applis/site/cecic/gaussian16/B.01/nehalem/g16/l103.exe)

 GradGradGradGradGradGradGradGradGradGradGradGradGradGradGradGradGradGrad
 Berny optimization.
 Using GEDIIS/GDIIS optimizer.
 FormGI is forming the generalized inverse of G from B-inverse, IUseBI=4.
 Internal  Forces:  Max     0.000207132 RMS     0.000127618
 Search for a local minimum.
 Step number   3 out of a maximum of  100
 All quantities printed in internal units (Hartrees-Bohrs-Radians)
 RMS Force = .12762D-03 SwitMx=.10000D-02 MixMth= 2
 Mixed Optimization -- En-DIIS/RFO-DIIS
 Update second derivatives using D2CorX and points    1    2    3
 DE= -3.47D-05 DEPred=-3.29D-05 R= 1.05D+00
 TightC=F SS=  1.41D+00  RLast= 1.99D-02 DXNew= 5.0454D-01 5.9807D-02
 Trust test= 1.05D+00 RLast= 1.99D-02 DXMaxT set to 3.00D-01
 The second derivative matrix:
                          R1        R2        A1
           R1           0.49390
           R2          -0.00053   0.49394
           A1           0.02770   0.02784   0.15826
 ITU=  1  1  0
 Use linear search instead of GDIIS.
     Eigenvalues ---    0.15372   0.49444   0.49794
 RFO step:  Lambda= 0.00000000D+00 EMin= 1.53722518D-01
 Quartic linear search produced a step of  0.06615.
 Iteration  1 RMS(Cart)=  0.00075157 RMS(Int)=  0.00000032
 Iteration  2 RMS(Cart)=  0.00000027 RMS(Int)=  0.00000000
 ITry= 1 IFail=0 DXMaxC= 7.82D-04 DCOld= 1.00D+10 DXMaxT= 3.00D-01 DXLimC= 3.00D+00 Rises=F
 Variable       Old X    -DE/DX   Delta X   Delta X   Delta X     New X
                                 (Linear)    (Quad)   (Total)
    R1        1.81203   0.00006  -0.00006   0.00010   0.00004   1.81207
    R2        1.81203   0.00005  -0.00006   0.00009   0.00003   1.81207
    A1        1.82862   0.00021   0.00132  -0.00001   0.00131   1.82993
         Item               Value     Threshold  Converged?
 Maximum Force            0.000207     0.000450     YES
 RMS     Force            0.000128     0.000300     YES
 Maximum Displacement     0.000782     0.001800     YES
 RMS     Displacement     0.000751     0.001200     YES
 Predicted change in Energy=-1.362205D-07
 Optimization completed.
    -- Stationary point found.
                           ----------------------------
                           !   Optimized Parameters   !
                           ! (Angstroms and Degrees)  !
 --------------------------                            --------------------------
 ! Name  Definition              Value          Derivative Info.                !
 --------------------------------------------------------------------------------
 ! R1    R(1,2)                  0.9589         -DE/DX =    0.0001              !
 ! R2    R(1,3)                  0.9589         -DE/DX =    0.0001              !
 ! A1    A(2,1,3)              104.772          -DE/DX =    0.0002              !
 --------------------------------------------------------------------------------
 Lowest energy point so far.  Saving SCF results.
 Largest change from initial coordinates is atom    2       0.024 Angstoms.
 GradGradGradGradGradGradGradGradGradGradGradGradGradGradGradGradGradGrad

 Leave Link  103 at Fri Sep 25 11:34:11 2020, MaxMem=   268435456 cpu:               0.2 elap:               0.0
 (Enter /applis/site/cecic/gaussian16/B.01/nehalem/g16/l202.exe)
                          Input orientation:                          
 ---------------------------------------------------------------------
 Center     Atomic      Atomic             Coordinates (Angstroms)
 Number     Number       Type             X           Y           Z
 ---------------------------------------------------------------------
      1          8           0        0.011036    0.000000    0.008545
      2          1           0        0.008844    0.000000    0.967425
      3          1           0        0.938785    0.000000   -0.233826
 ---------------------------------------------------------------------
                    Distance matrix (angstroms):
                    1          2          3
     1  O    0.000000
     2  H    0.958883   0.000000
     3  H    0.958886   1.519142   0.000000
 Symmetry turned off by external request.
 Stoichiometry    H2O
 Framework group  CS[SG(H2O)]
 Deg. of freedom     3
 Full point group                 CS      NOp   2
 Rotational constants (GHZ):         824.2763427         434.5753473         284.5531215
 Leave Link  202 at Fri Sep 25 11:34:11 2020, MaxMem=   268435456 cpu:               0.3 elap:               0.1
 (Enter /applis/site/cecic/gaussian16/B.01/nehalem/g16/l601.exe)
 Copying SCF densities to generalized density rwf, IOpCl= 0 IROHF=0.

 **********************************************************************

            Population analysis using the SCF Density.

 **********************************************************************

 Alpha  occ. eigenvalues --  -19.61270  -1.12752  -0.60164  -0.46639  -0.39343
 Alpha virt. eigenvalues --    0.06314   0.12771   0.41885   0.46489   0.54709
 Alpha virt. eigenvalues --    0.64424   0.66662   0.67267   0.72478   0.82222
 Alpha virt. eigenvalues --    0.97173   1.05326   1.34540   1.37140   1.81443
 Alpha virt. eigenvalues --    1.84210   1.85649   1.93850   2.00946   2.29629
 Alpha virt. eigenvalues --    2.65304   3.07220   3.20495   3.27734   3.35928
 Alpha virt. eigenvalues --    3.44383   3.55143   3.58168   3.64591   3.70051
 Alpha virt. eigenvalues --    3.75358   3.84617   4.01121   4.05463   4.25103
 Alpha virt. eigenvalues --    4.32983   4.50837   4.75181   4.85248   5.11331
 Alpha virt. eigenvalues --    5.61625   6.10835   6.41169   6.42068   6.49650
 Alpha virt. eigenvalues --    6.53213   6.58771   6.65678   6.75856   6.94612
 Alpha virt. eigenvalues --    7.28243   7.67263  12.20616
          Condensed to atoms (all electrons):
               1          2          3
     1  O    7.817200   0.343977   0.343976
     2  H    0.343977   0.449160  -0.045712
     3  H    0.343976  -0.045712   0.449158
 Mulliken charges:
               1
     1  O   -0.505153
     2  H    0.252575
     3  H    0.252578
 Sum of Mulliken charges =   0.00000
 Mulliken charges with hydrogens summed into heavy atoms:
               1
     1  O    0.000000
 Electronic spatial extent (au):  <R**2>=             19.5439
 Charge=              0.0000 electrons
 Dipole moment (field-independent basis, Debye):
    X=              1.5493    Y=              0.0000    Z=              1.1994  Tot=              1.9593
 Quadrupole moment (field-independent basis, Debye-Ang):
   XX=             -5.1339   YY=             -7.3621   ZZ=             -4.7921
   XY=             -0.0000   XZ=             -0.6604   YZ=              0.0000
 Traceless Quadrupole moment (field-independent basis, Debye-Ang):
   XX=              0.6288   YY=             -1.5994   ZZ=              0.9706
   XY=             -0.0000   XZ=             -0.6604   YZ=              0.0000
 Octapole moment (field-independent basis, Debye-Ang**2):
  XXX=              0.0917  YYY=              0.0000  ZZZ=              0.6074  XYY=             -0.5553
  XXY=             -0.0000  XXZ=             -0.8689  XZZ=             -0.4294  YZZ=              0.0000
  YYZ=             -0.4299  XYZ=              0.0000
 Hexadecapole moment (field-independent basis, Debye-Ang**3):
 XXXX=             -5.5451 YYYY=             -5.7609 ZZZZ=             -5.3795 XXXY=             -0.0000
 XXXZ=             -0.3853 YYYX=             -0.0000 YYYZ=             -0.0000 ZZZX=              0.0655
 ZZZY=              0.0000 XXYY=             -2.2141 XXZZ=             -2.3625 YYZZ=             -2.2387
 XXYZ=              0.0000 YYXZ=              0.0475 ZZXY=             -0.0000
 N-N= 9.178219756078D+00 E-N=-1.992087921553D+02  KE= 7.611665864437D+01
 No NMR shielding tensors so no spin-rotation constants.
 Leave Link  601 at Fri Sep 25 11:34:11 2020, MaxMem=   268435456 cpu:               1.1 elap:               0.2
 (Enter /applis/site/cecic/gaussian16/B.01/nehalem/g16/l9999.exe)
 B after Tr=    -0.014598    0.000000   -0.011303
         Rot=    1.000000    0.000000    0.000000    0.000000 Ang=   0.00 deg.
 Final structure in terms of initial Z-matrix:
 O
 H,1,B1
 H,1,B2,2,A2
      Variables:
 B1=0.95888274
 B2=0.95888626
 A2=104.77198374
 1\1\GINC-DAHU112\FOpt\RM062X\CC-pVTZ\H2O1\TINACCIL\25-Sep-2020\0\\#P M
 062X/cc-pvtz nosymm opt(noeigentest) optcyc=120 freq\\Title\\0,1\O,0.0
 110355055,0.,0.0085446155\H,0.008844184,0.,0.9674248536\H,0.9387851367
 ,0.,-0.2338259251\\Version=ES64L-G16RevB.01\HF=-76.4252736\RMSD=6.550e
 -09\RMSF=7.087e-05\Dipole=0.6095428,0.,0.471869\Quadrupole=0.4674814,-
 1.1890994,0.721618,0.,-0.4909991,0.\PG=CS [SG(H2O1)]\\@


 A DANDELION FROM A LOVER MEANS MORE THAN AN ORCHID FROM A FRIEND.
 Leave Link 9999 at Fri Sep 25 11:34:12 2020, MaxMem=   268435456 cpu:               0.4 elap:               0.1
 Job cpu time:       0 days  0 hours  1 minutes  1.6 seconds.
 Elapsed time:       0 days  0 hours  0 minutes  9.3 seconds.
 File lengths (MBytes):  RWF=     10 Int=      0 D2E=      0 Chk=      2 Scr=      1
 Normal termination of Gaussian 16 at Fri Sep 25 11:34:12 2020.
 (Enter /applis/site/cecic/gaussian16/B.01/nehalem/g16/l1.exe)
 Link1:  Proceeding to internal job step number  2.
 -------------------------------------------------------------------
 #P Geom=AllCheck Guess=TCheck SCRF=Check GenChk RM062X/CC-pVTZ Freq
 -------------------------------------------------------------------
 1/6=120,10=4,11=1,29=7,30=1,38=1,40=1/1,3;
 2/12=2,15=1,40=1/2;
 3/5=16,6=1,11=2,14=-4,25=1,30=1,70=2,71=2,74=-55,116=1,140=1/1,2,3;
 4/5=101/1;
 5/5=2,38=6,98=1/2;
 8/6=4,10=90,11=11/1;
 11/6=1,8=1,9=11,15=111,16=1,31=1/1,2,10;
 10/6=1,31=1/2;
 6/7=2,8=2,9=2,10=2,28=1/1;
 7/8=1,10=1,25=1,30=1/1,2,3,16;
 1/6=120,10=4,11=1,30=1/3;
 99//99;
 Leave Link    1 at Fri Sep 25 11:34:12 2020, MaxMem=   268435456 cpu:               0.3 elap:               0.0
 (Enter /applis/site/cecic/gaussian16/B.01/nehalem/g16/l101.exe)
 Structure from the checkpoint file:  "input.chk"
 -----
 Title
 -----
 Charge =  0 Multiplicity = 1
 Redundant internal coordinates found in file.  (old form).
 O,0,0.0110355055,0.,0.0085446155
 H,0,0.008844184,0.,0.9674248536
 H,0,0.9387851367,0.,-0.2338259251
 Recover connectivity data from disk.
 ITRead=  0  0  0
 MicOpt= -1 -1 -1
 NAtoms=      3 NQM=        3 NQMF=       0 NMMI=      0 NMMIF=      0
                NMic=       0 NMicF=      0.
                    Isotopes and Nuclear Properties:
 (Nuclear quadrupole moments (NQMom) in fm**2, nuclear magnetic moments (NMagM)
  in nuclear magnetons)

  Atom         1           2           3
 IAtWgt=          16           1           1
 AtmWgt=  15.9949146   1.0078250   1.0078250
 NucSpn=           0           1           1
 AtZEff=   5.6000000   1.0000000   1.0000000
 NQMom=    0.0000000   0.0000000   0.0000000
 NMagM=    0.0000000   2.7928460   2.7928460
 AtZNuc=   8.0000000   1.0000000   1.0000000
 Leave Link  101 at Fri Sep 25 11:34:12 2020, MaxMem=   268435456 cpu:               1.9 elap:               0.3
 (Enter /applis/site/cecic/gaussian16/B.01/nehalem/g16/l103.exe)

 GradGradGradGradGradGradGradGradGradGradGradGradGradGradGradGradGradGrad
 Berny optimization.
 Initialization pass.
                           ----------------------------
                           !    Initial Parameters    !
                           ! (Angstroms and Degrees)  !
 --------------------------                            --------------------------
 ! Name  Definition              Value          Derivative Info.                !
 --------------------------------------------------------------------------------
 ! R1    R(1,2)                  0.9589         calculate D2E/DX2 analytically  !
 ! R2    R(1,3)                  0.9589         calculate D2E/DX2 analytically  !
 ! A1    A(2,1,3)              104.772          calculate D2E/DX2 analytically  !
 --------------------------------------------------------------------------------
 Trust Radius=3.00D-01 FncErr=1.00D-07 GrdErr=1.00D-07 EigMax=2.50D+02 EigMin=1.00D-04
 Number of steps in this run=      2 maximum allowed number of steps=      2.
 GradGradGradGradGradGradGradGradGradGradGradGradGradGradGradGradGradGrad

 Leave Link  103 at Fri Sep 25 11:34:12 2020, MaxMem=   268435456 cpu:               0.2 elap:               0.0
 (Enter /applis/site/cecic/gaussian16/B.01/nehalem/g16/l202.exe)
                          Input orientation:                          
 ---------------------------------------------------------------------
 Center     Atomic      Atomic             Coordinates (Angstroms)
 Number     Number       Type             X           Y           Z
 ---------------------------------------------------------------------
      1          8           0        0.011036    0.000000    0.008545
      2          1           0        0.008844    0.000000    0.967425
      3          1           0        0.938785    0.000000   -0.233826
 ---------------------------------------------------------------------
                    Distance matrix (angstroms):
                    1          2          3
     1  O    0.000000
     2  H    0.958883   0.000000
     3  H    0.958886   1.519142   0.000000
 Symmetry turned off by external request.
 Stoichiometry    H2O
 Framework group  CS[SG(H2O)]
 Deg. of freedom     3
 Full point group                 CS      NOp   2
 Rotational constants (GHZ):         824.2763427         434.5753473         284.5531215
 Leave Link  202 at Fri Sep 25 11:34:12 2020, MaxMem=   268435456 cpu:               0.3 elap:               0.1
 (Enter /applis/site/cecic/gaussian16/B.01/nehalem/g16/l301.exe)
 Standard basis: CC-pVTZ (5D, 7F)
 Ernie: Thresh=  0.10000D-02 Tol=  0.10000D-05 Strict=F.
 Ernie:  3 primitive shells out of 42 were deleted.
    58 basis functions,    86 primitive gaussians,    65 cartesian basis functions
     5 alpha electrons        5 beta electrons
       nuclear repulsion energy         9.1782197561 Hartrees.
 IExCor= 4336 DFT=T Ex+Corr=M062X ExCW=0 ScaHFX=  0.540000
 ScaDFX=  1.000000  1.000000  1.000000  1.000000 ScalE2=  1.000000  1.000000
 IRadAn=      5 IRanWt=     -1 IRanGd=            0 ICorTp=0 IEmpDi=  4
 NAtoms=    3 NActive=    3 NUniq=    3 SFac= 1.00D+00 NAtFMM=   60 NAOKFM=F Big=F
 Integral buffers will be    131072 words long.
 Raffenetti 2 integral format.
 Two-electron integral symmetry is turned off.
 Leave Link  301 at Fri Sep 25 11:34:12 2020, MaxMem=   268435456 cpu:               0.6 elap:               0.1
 (Enter /applis/site/cecic/gaussian16/B.01/nehalem/g16/l302.exe)
 NPDir=0 NMtPBC=     1 NCelOv=     1 NCel=       1 NClECP=     1 NCelD=      1
         NCelK=      1 NCelE2=     1 NClLst=     1 CellRange=     0.0.
 One-electron integrals computed using PRISM.
 NBasis=    58 RedAO= T EigKep=  2.53D-03  NBF=    58
 NBsUse=    58 1.00D-06 EigRej= -1.00D+00 NBFU=    58
 Precomputing XC quadrature grid using
 IXCGrd= 4 IRadAn=           5 IRanWt=          -1 IRanGd=           0 AccXCQ= 0.00D+00.
 Generated NRdTot=       0 NPtTot=           0 NUsed=           0 NTot=          32
 NSgBfM=    65    65    65    65    65 MxSgAt=     3 MxSgA2=     3.
 Leave Link  302 at Fri Sep 25 11:34:12 2020, MaxMem=   268435456 cpu:               1.3 elap:               0.2
 (Enter /applis/site/cecic/gaussian16/B.01/nehalem/g16/l303.exe)
 DipDrv:  MaxL=1.
 Leave Link  303 at Fri Sep 25 11:34:12 2020, MaxMem=   268435456 cpu:               0.3 elap:               0.1
 (Enter /applis/site/cecic/gaussian16/B.01/nehalem/g16/l401.exe)
 Initial guess from the checkpoint file:  "input.chk"
 B after Tr=     0.000000    0.000000    0.000000
         Rot=    1.000000    0.000000    0.000000    0.000000 Ang=   0.00 deg.
 Guess basis will be translated and rotated to current coordinates.
 JPrj=2 DoOrth=T DoCkMO=T.
 Leave Link  401 at Fri Sep 25 11:34:13 2020, MaxMem=   268435456 cpu:               0.8 elap:               0.1
 (Enter /applis/site/cecic/gaussian16/B.01/nehalem/g16/l502.exe)
 Keep R1 ints in memory in canonical form, NReq=8584532.
 FoFCou: FMM=F IPFlag=           0 FMFlag=           0 FMFlg1=           0
         NFxFlg=           0 DoJE=F BraDBF=F KetDBF=F FulRan=T
         wScrn=  0.000000 ICntrl=       600 IOpCl=  0 I1Cent=           0 NGrid=           0
         NMat0=    1 NMatS0=   1711 NMatT0=    0 NMatD0=    1 NMtDS0=    0 NMtDT0=    0
 Symmetry not used in FoFCou.
 Two-electron integral symmetry not used.
 Closed shell SCF:
 Using DIIS extrapolation, IDIIS=  1040.
 NGot=   268435456 LenX=   266961298 LenY=   266956632
 Requested convergence on RMS density matrix=1.00D-08 within 128 cycles.
 Requested convergence on MAX density matrix=1.00D-06.
 Requested convergence on             energy=1.00D-06.
 No special actions if energy rises.

 Cycle   1  Pass 1  IDiag  1:
 E= -76.4252736072749    
 DIIS: error= 3.96D-09 at cycle   1 NSaved=   1.
 NSaved= 1 IEnMin= 1 EnMin= -76.4252736072749     IErMin= 1 ErrMin= 3.96D-09
 ErrMax= 3.96D-09  0.00D+00 EMaxC= 1.00D-01 BMatC= 4.97D-16 BMatP= 4.97D-16
 IDIUse=1 WtCom= 1.00D+00 WtEn= 0.00D+00
 Coeff-Com:  0.100D+01
 Coeff:      0.100D+01
 Gap=     0.457 Goal=   None    Shift=    0.000
 RMSDP=6.05D-10 MaxDP=8.42D-09              OVMax= 1.43D-08

 SCF Done:  E(RM062X) =  -76.4252736073     A.U. after    1 cycles
            NFock=  1  Conv=0.60D-09     -V/T= 2.0041
 KE= 7.611665882081D+01 PE=-1.992087923318D+02 EE= 3.748864014761D+01
 Leave Link  502 at Fri Sep 25 11:34:13 2020, MaxMem=   268435456 cpu:               2.9 elap:               0.4
 (Enter /applis/site/cecic/gaussian16/B.01/nehalem/g16/l801.exe)
 DoSCS=F DFT=T ScalE2(SS,OS)=  1.000000  1.000000
 Range of M.O.s used for correlation:     1    58
 NBasis=    58 NAE=     5 NBE=     5 NFC=     0 NFV=     0
 NROrb=     58 NOA=     5 NOB=     5 NVA=    53 NVB=    53
 Leave Link  801 at Fri Sep 25 11:34:13 2020, MaxMem=   268435456 cpu:               0.3 elap:               0.1
 (Enter /applis/site/cecic/gaussian16/B.01/nehalem/g16/l1101.exe)
 Using compressed storage, NAtomX=     3.
 Will process      4 centers per pass.
 Leave Link 1101 at Fri Sep 25 11:34:13 2020, MaxMem=   268435456 cpu:               0.9 elap:               0.1
 (Enter /applis/site/cecic/gaussian16/B.01/nehalem/g16/l1102.exe)
 Symmetrizing basis deriv contribution to polar:
 IMax=3 JMax=2 DiffMx= 0.00D+00
 Leave Link 1102 at Fri Sep 25 11:34:13 2020, MaxMem=   268435456 cpu:               0.3 elap:               0.1
 (Enter /applis/site/cecic/gaussian16/B.01/nehalem/g16/l1110.exe)
 Forming Gx(P) for the SCF density, NAtomX=     3.
 Integral derivatives from FoFJK, PRISM(SPDF).
 Do as many integral derivatives as possible in FoFJK.
 G2DrvN: MDV=     268435092.
 G2DrvN: will do     4 centers at a time, making    1 passes.
 Calling FoFCou, ICntrl=  3107 FMM=F I1Cent=   0 AccDes= 0.00D+00.
 FoFJK:  IHMeth= 1 ICntrl=    3107 DoSepK=F KAlg= 0 I1Cent=           0 FoldK=F
 IRaf=         0 NMat=       1 IRICut=       1 DoRegI=T DoRafI=F ISym2E= 0 IDoP0=0 IntGTp=1.
 FoFCou: FMM=F IPFlag=           0 FMFlag=      100000 FMFlg1=           0
         NFxFlg=           0 DoJE=F BraDBF=F KetDBF=F FulRan=T
         wScrn=  0.000000 ICntrl=      3107 IOpCl=  0 I1Cent=           0 NGrid=           0
         NMat0=    1 NMatS0=      1 NMatT0=    0 NMatD0=    1 NMtDS0=    0 NMtDT0=    0
 Symmetry not used in FoFCou.
 End of G2Drv F.D. properties file   721 does not exist.
 End of G2Drv F.D. properties file   722 does not exist.
 End of G2Drv F.D. properties file   788 does not exist.
 Leave Link 1110 at Fri Sep 25 11:34:14 2020, MaxMem=   268435456 cpu:               8.1 elap:               1.0
 (Enter /applis/site/cecic/gaussian16/B.01/nehalem/g16/l1002.exe)
 Minotr:  Closed shell wavefunction.
          IDoAtm=111
          Direct CPHF calculation.
          Differentiating once with respect to electric field.
                with respect to dipole field.
          Differentiating once with respect to nuclear coordinates.
          Requested convergence is 1.0D-08 RMS, and 1.0D-07 maximum.
          Secondary convergence is 1.0D-12 RMS, and 1.0D-12 maximum.
          NewPWx=T KeepS1=F KeepF1=F KeepIn=T MapXYZ=F SortEE=F KeepMc=T.
          881 words used for storage of precomputed grid.
 Keep R1 ints in memory in canonical form, NReq=8559435.
 FoFCou: FMM=F IPFlag=           0 FMFlag=           0 FMFlg1=           0
         NFxFlg=           0 DoJE=F BraDBF=F KetDBF=F FulRan=T
         wScrn=  0.000000 ICntrl=       600 IOpCl=  0 I1Cent=           0 NGrid=           0
         NMat0=    1 NMatS0=   1711 NMatT0=    0 NMatD0=    1 NMtDS0=    0 NMtDT0=    0
 Symmetry not used in FoFCou.
 Two-electron integral symmetry not used.
          MDV=     268435456 using IRadAn=       1.
          Solving linear equations simultaneously, MaxMat=       0.
          There are    12 degrees of freedom in the 1st order CPHF.  IDoFFX=6 NUNeed=     3.
      9 vectors produced by pass  0 Test12= 2.21D-15 8.33D-09 XBig12= 2.43D+00 7.49D-01.
 AX will form     9 AO Fock derivatives at one time.
      9 vectors produced by pass  1 Test12= 2.21D-15 8.33D-09 XBig12= 1.85D-01 1.92D-01.
      9 vectors produced by pass  2 Test12= 2.21D-15 8.33D-09 XBig12= 4.30D-03 3.01D-02.
      9 vectors produced by pass  3 Test12= 2.21D-15 8.33D-09 XBig12= 3.01D-05 1.54D-03.
      9 vectors produced by pass  4 Test12= 2.21D-15 8.33D-09 XBig12= 2.13D-07 2.07D-04.
      7 vectors produced by pass  5 Test12= 2.21D-15 8.33D-09 XBig12= 9.27D-10 9.19D-06.
      4 vectors produced by pass  6 Test12= 2.21D-15 8.33D-09 XBig12= 1.94D-12 4.85D-07.
      1 vectors produced by pass  7 Test12= 2.21D-15 8.33D-09 XBig12= 4.95D-15 2.18D-08.
 InvSVY:  IOpt=1 It=  1 EMax= 1.11D-15
 Solved reduced A of dimension    57 with     9 vectors.
 FullF1:  Do perturbations      1 to       3.
 Isotropic polarizability for W=    0.000000        6.97 Bohr**3.
 End of Minotr F.D. properties file   721 does not exist.
 End of Minotr F.D. properties file   722 does not exist.
 End of Minotr F.D. properties file   788 does not exist.
 Leave Link 1002 at Fri Sep 25 11:34:16 2020, MaxMem=   268435456 cpu:              10.7 elap:               1.4
 (Enter /applis/site/cecic/gaussian16/B.01/nehalem/g16/l601.exe)
 Copying SCF densities to generalized density rwf, IOpCl= 0 IROHF=0.

 **********************************************************************

            Population analysis using the SCF Density.

 **********************************************************************

 Alpha  occ. eigenvalues --  -19.61270  -1.12752  -0.60164  -0.46639  -0.39343
 Alpha virt. eigenvalues --    0.06314   0.12771   0.41885   0.46489   0.54709
 Alpha virt. eigenvalues --    0.64424   0.66662   0.67267   0.72478   0.82222
 Alpha virt. eigenvalues --    0.97173   1.05326   1.34540   1.37140   1.81443
 Alpha virt. eigenvalues --    1.84210   1.85649   1.93850   2.00946   2.29629
 Alpha virt. eigenvalues --    2.65304   3.07220   3.20495   3.27734   3.35928
 Alpha virt. eigenvalues --    3.44383   3.55143   3.58168   3.64591   3.70051
 Alpha virt. eigenvalues --    3.75358   3.84617   4.01121   4.05463   4.25103
 Alpha virt. eigenvalues --    4.32983   4.50837   4.75181   4.85248   5.11331
 Alpha virt. eigenvalues --    5.61625   6.10835   6.41169   6.42068   6.49650
 Alpha virt. eigenvalues --    6.53213   6.58771   6.65678   6.75856   6.94612
 Alpha virt. eigenvalues --    7.28243   7.67263  12.20616
          Condensed to atoms (all electrons):
               1          2          3
     1  O    7.817200   0.343977   0.343976
     2  H    0.343977   0.449160  -0.045712
     3  H    0.343976  -0.045712   0.449158
 Mulliken charges:
               1
     1  O   -0.505153
     2  H    0.252575
     3  H    0.252578
 Sum of Mulliken charges =   0.00000
 Mulliken charges with hydrogens summed into heavy atoms:
               1
     1  O    0.000000
 APT charges:
               1
     1  O   -0.530048
     2  H    0.264955
     3  H    0.265093
 Sum of APT charges =   0.00000
 APT charges with hydrogens summed into heavy atoms:
               1
     1  O    0.000000
 Electronic spatial extent (au):  <R**2>=             19.5439
 Charge=              0.0000 electrons
 Dipole moment (field-independent basis, Debye):
    X=              1.5493    Y=              0.0000    Z=              1.1994  Tot=              1.9593
 Quadrupole moment (field-independent basis, Debye-Ang):
   XX=             -5.1339   YY=             -7.3621   ZZ=             -4.7921
   XY=             -0.0000   XZ=             -0.6604   YZ=              0.0000
 Traceless Quadrupole moment (field-independent basis, Debye-Ang):
   XX=              0.6288   YY=             -1.5994   ZZ=              0.9706
   XY=             -0.0000   XZ=             -0.6604   YZ=              0.0000
 Octapole moment (field-independent basis, Debye-Ang**2):
  XXX=              0.0917  YYY=              0.0000  ZZZ=              0.6074  XYY=             -0.5553
  XXY=             -0.0000  XXZ=             -0.8689  XZZ=             -0.4294  YZZ=             -0.0000
  YYZ=             -0.4299  XYZ=              0.0000
 Hexadecapole moment (field-independent basis, Debye-Ang**3):
 XXXX=             -5.5451 YYYY=             -5.7609 ZZZZ=             -5.3795 XXXY=             -0.0000
 XXXZ=             -0.3853 YYYX=             -0.0000 YYYZ=              0.0000 ZZZX=              0.0655
 ZZZY=              0.0000 XXYY=             -2.2141 XXZZ=             -2.3625 YYZZ=             -2.2387
 XXYZ=              0.0000 YYXZ=              0.0475 ZZXY=             -0.0000
 N-N= 9.178219756078D+00 E-N=-1.992087925042D+02  KE= 7.611665882081D+01
  Exact polarizability:   7.594  -0.000   5.409  -0.627  -0.000   7.919
 Approx polarizability:   8.130   0.000   5.341  -0.671   0.000   8.478
 No NMR shielding tensors so no spin-rotation constants.
 Leave Link  601 at Fri Sep 25 11:34:16 2020, MaxMem=   268435456 cpu:               1.0 elap:               0.2
 (Enter /applis/site/cecic/gaussian16/B.01/nehalem/g16/l701.exe)
 ... and contract with generalized density number  0.
 Compute integral second derivatives.
 Leave Link  701 at Fri Sep 25 11:34:16 2020, MaxMem=   268435456 cpu:               1.2 elap:               0.2
 (Enter /applis/site/cecic/gaussian16/B.01/nehalem/g16/l702.exe)
 L702 exits ... SP integral derivatives will be done elsewhere.
 Leave Link  702 at Fri Sep 25 11:34:16 2020, MaxMem=   268435456 cpu:               0.4 elap:               0.1
 (Enter /applis/site/cecic/gaussian16/B.01/nehalem/g16/l703.exe)
 Integral derivatives from FoFJK, PRISM(SPDF).
 Compute integral second derivatives, UseDBF=F ICtDFT=           0.
 Calling FoFJK, ICntrl=    100127 FMM=F ISym2X=0 I1Cent= 0 IOpClX= 0 NMat=1 NMatS=1 NMatT=0.
 FoFJK:  IHMeth= 1 ICntrl=  100127 DoSepK=F KAlg= 0 I1Cent=           0 FoldK=F
 IRaf=         0 NMat=       1 IRICut=       1 DoRegI=T DoRafI=F ISym2E= 0 IDoP0=0 IntGTp=1.
 FoFCou: FMM=F IPFlag=           0 FMFlag=      100000 FMFlg1=         800
         NFxFlg=           0 DoJE=F BraDBF=F KetDBF=F FulRan=T
         wScrn=  0.000000 ICntrl=    100127 IOpCl=  0 I1Cent=           0 NGrid=           0
         NMat0=    1 NMatS0=      1 NMatT0=    0 NMatD0=    1 NMtDS0=    0 NMtDT0=    0
 Symmetry not used in FoFCou.
[...]
 Keep R1 ints in memory in symmetry-blocked form, NReq=13818663.
 FoFCou: FMM=F IPFlag=           0 FMFlag=           0 FMFlg1=           0
         NFxFlg=           0 DoJE=F BraDBF=F KetDBF=F FulRan=T
         wScrn=  0.000000 ICntrl=       600 IOpCl=  0 I1Cent=           0 NGrid=           0
         NMat0=    1 NMatS0=   4278 NMatT0=    0 NMatD0=    1 NMtDS0=    0 NMtDT0=    0
 Petite list used in FoFCou.
 Closed shell SCF:
 Using DIIS extrapolation, IDIIS=  1040.
 NGot=   327680000 LenX=   322990823 LenY=   322979357
 Requested convergence on RMS density matrix=1.00D-08 within 128 cycles.
 Requested convergence on MAX density matrix=1.00D-06.
 Requested convergence on             energy=1.00D-06.
 No special actions if energy rises.

 Cycle   1  Pass 1  IDiag  1:
 E= -76.0535858400816    
 DIIS: error= 1.16D-02 at cycle   1 NSaved=   1.
 NSaved= 1 IEnMin= 1 EnMin= -76.0535858400816     IErMin= 1 ErrMin= 1.16D-02
 ErrMax= 1.16D-02  0.00D+00 EMaxC= 1.00D-01 BMatC= 1.15D-02 BMatP= 1.15D-02
 IDIUse=3 WtCom= 8.84D-01 WtEn= 1.16D-01
 Coeff-Com:  0.100D+01
 Coeff-En:   0.100D+01
 Coeff:      0.100D+01
 Gap=     0.650 Goal=   None    Shift=    0.000
 GapD=    0.650 DampG=2.000 DampE=0.500 DampFc=1.0000 IDamp=-1.
 RMSDP=1.67D-03 MaxDP=3.29D-02              OVMax= 3.01D-02

 Cycle   2  Pass 1  IDiag  1:
 E= -76.0601964617152     Delta-E=       -0.006610621634 Rises=F Damp=F
 DIIS: error= 2.14D-03 at cycle   2 NSaved=   2.
 NSaved= 2 IEnMin= 2 EnMin= -76.0601964617152     IErMin= 2 ErrMin= 2.14D-03
 ErrMax= 2.14D-03  0.00D+00 EMaxC= 1.00D-01 BMatC= 2.39D-04 BMatP= 1.15D-02
 IDIUse=3 WtCom= 9.79D-01 WtEn= 2.14D-02
 Coeff-Com: -0.518D-01 0.105D+01
 Coeff-En:   0.000D+00 0.100D+01
 Coeff:     -0.507D-01 0.105D+01
 Gap=     0.543 Goal=   None    Shift=    0.000
 RMSDP=3.71D-04 MaxDP=8.46D-03 DE=-6.61D-03 OVMax= 7.63D-03

 Cycle   3  Pass 1  IDiag  1:
 E= -76.0604742936930     Delta-E=       -0.000277831978 Rises=F Damp=F
 DIIS: error= 9.23D-04 at cycle   3 NSaved=   3.
 NSaved= 3 IEnMin= 3 EnMin= -76.0604742936930     IErMin= 3 ErrMin= 9.23D-04
 ErrMax= 9.23D-04  0.00D+00 EMaxC= 1.00D-01 BMatC= 3.75D-05 BMatP= 2.39D-04
 IDIUse=3 WtCom= 9.91D-01 WtEn= 9.23D-03
 Coeff-Com: -0.368D-01 0.249D+00 0.788D+00
 Coeff-En:   0.000D+00 0.000D+00 0.100D+01
 Coeff:     -0.364D-01 0.247D+00 0.790D+00
 Gap=     0.539 Goal=   None    Shift=    0.000
 RMSDP=6.94D-05 MaxDP=1.47D-03 DE=-2.78D-04 OVMax= 2.98D-03

 Cycle   4  Pass 1  IDiag  1:
 E= -76.0605082016266     Delta-E=       -0.000033907934 Rises=F Damp=F
 DIIS: error= 3.14D-04 at cycle   4 NSaved=   4.
 NSaved= 4 IEnMin= 4 EnMin= -76.0605082016266     IErMin= 4 ErrMin= 3.14D-04
 ErrMax= 3.14D-04  0.00D+00 EMaxC= 1.00D-01 BMatC= 3.55D-06 BMatP= 3.75D-05
 IDIUse=3 WtCom= 9.97D-01 WtEn= 3.14D-03
 Coeff-Com:  0.740D-02-0.100D+00 0.878D-01 0.100D+01
 Coeff-En:   0.000D+00 0.000D+00 0.000D+00 0.100D+01
 Coeff:      0.737D-02-0.997D-01 0.876D-01 0.100D+01
 Gap=     0.540 Goal=   None    Shift=    0.000
 RMSDP=2.19D-05 MaxDP=4.89D-04 DE=-3.39D-05 OVMax= 8.51D-04

 Cycle   5  Pass 1  IDiag  1:
 E= -76.0605122412016     Delta-E=       -0.000004039575 Rises=F Damp=F
 DIIS: error= 5.52D-05 at cycle   5 NSaved=   5.
 NSaved= 5 IEnMin= 5 EnMin= -76.0605122412016     IErMin= 5 ErrMin= 5.52D-05
 ErrMax= 5.52D-05  0.00D+00 EMaxC= 1.00D-01 BMatC= 7.22D-08 BMatP= 3.55D-06
 IDIUse=1 WtCom= 1.00D+00 WtEn= 0.00D+00
 Coeff-Com: -0.105D-02 0.199D-01-0.475D-01-0.251D+00 0.128D+01
 Coeff:     -0.105D-02 0.199D-01-0.475D-01-0.251D+00 0.128D+01
 Gap=     0.540 Goal=   None    Shift=    0.000
 RMSDP=4.22D-06 MaxDP=1.10D-04 DE=-4.04D-06 OVMax= 3.08D-04

 Cycle   6  Pass 1  IDiag  1:
 E= -76.0605124664183     Delta-E=       -0.000000225217 Rises=F Damp=F
 DIIS: error= 1.72D-05 at cycle   6 NSaved=   6.
 NSaved= 6 IEnMin= 6 EnMin= -76.0605124664183     IErMin= 6 ErrMin= 1.72D-05
 ErrMax= 1.72D-05  0.00D+00 EMaxC= 1.00D-01 BMatC= 5.73D-09 BMatP= 7.22D-08
 IDIUse=1 WtCom= 1.00D+00 WtEn= 0.00D+00
 Coeff-Com: -0.538D-04-0.446D-03 0.129D-01 0.269D-01-0.468D+00 0.143D+01
 Coeff:     -0.538D-04-0.446D-03 0.129D-01 0.269D-01-0.468D+00 0.143D+01
 Gap=     0.540 Goal=   None    Shift=    0.000
 RMSDP=1.24D-06 MaxDP=3.06D-05 DE=-2.25D-07 OVMax= 8.05D-05

 Cycle   7  Pass 1  IDiag  1:
 E= -76.0605124820063     Delta-E=       -0.000000015588 Rises=F Damp=F
 DIIS: error= 1.50D-06 at cycle   7 NSaved=   7.
 NSaved= 7 IEnMin= 7 EnMin= -76.0605124820063     IErMin= 7 ErrMin= 1.50D-06
 ErrMax= 1.50D-06  0.00D+00 EMaxC= 1.00D-01 BMatC= 9.76D-11 BMatP= 5.73D-09
 IDIUse=1 WtCom= 1.00D+00 WtEn= 0.00D+00
 Coeff-Com:  0.437D-04-0.612D-03 0.607D-03 0.683D-02-0.122D-01-0.591D-01
 Coeff-Com:  0.106D+01
 Coeff:      0.437D-04-0.612D-03 0.607D-03 0.683D-02-0.122D-01-0.591D-01
 Coeff:      0.106D+01
 Gap=     0.540 Goal=   None    Shift=    0.000
 RMSDP=1.55D-07 MaxDP=4.27D-06 DE=-1.56D-08 OVMax= 7.00D-06

 Cycle   8  Pass 1  IDiag  1:
 E= -76.0605124822005     Delta-E=       -0.000000000194 Rises=F Damp=F
 DIIS: error= 4.43D-07 at cycle   8 NSaved=   8.
 NSaved= 8 IEnMin= 8 EnMin= -76.0605124822005     IErMin= 8 ErrMin= 4.43D-07
 ErrMax= 4.43D-07  0.00D+00 EMaxC= 1.00D-01 BMatC= 8.52D-12 BMatP= 9.76D-11
 IDIUse=1 WtCom= 1.00D+00 WtEn= 0.00D+00
 Coeff-Com: -0.913D-05 0.176D-03-0.829D-03-0.267D-02 0.243D-01-0.533D-01
 Coeff-Com: -0.313D+00 0.135D+01
 Coeff:     -0.913D-05 0.176D-03-0.829D-03-0.267D-02 0.243D-01-0.533D-01
 Coeff:     -0.313D+00 0.135D+01
 Gap=     0.540 Goal=   None    Shift=    0.000
 RMSDP=6.25D-08 MaxDP=1.07D-06 DE=-1.94D-10 OVMax= 2.78D-06

 Cycle   9  Pass 1  IDiag  1:
 E= -76.0605124822209     Delta-E=       -0.000000000020 Rises=F Damp=F
 DIIS: error= 6.49D-08 at cycle   9 NSaved=   9.
 NSaved= 9 IEnMin= 9 EnMin= -76.0605124822209     IErMin= 9 ErrMin= 6.49D-08
 ErrMax= 6.49D-08  0.00D+00 EMaxC= 1.00D-01 BMatC= 1.74D-13 BMatP= 8.52D-12
 IDIUse=1 WtCom= 1.00D+00 WtEn= 0.00D+00
 Coeff-Com:  0.203D-05-0.423D-04 0.257D-03 0.650D-03-0.745D-02 0.183D-01
 Coeff-Com:  0.764D-01-0.439D+00 0.135D+01
 Coeff:      0.203D-05-0.423D-04 0.257D-03 0.650D-03-0.745D-02 0.183D-01
 Coeff:      0.764D-01-0.439D+00 0.135D+01
 Gap=     0.540 Goal=   None    Shift=    0.000
 RMSDP=1.14D-08 MaxDP=2.44D-07 DE=-2.04D-11 OVMax= 4.65D-07

 Cycle  10  Pass 1  IDiag  1:
 E= -76.0605124822212     Delta-E=       -0.000000000000 Rises=F Damp=F
 DIIS: error= 1.68D-08 at cycle  10 NSaved=  10.
 NSaved=10 IEnMin=10 EnMin= -76.0605124822212     IErMin=10 ErrMin= 1.68D-08
 ErrMax= 1.68D-08  0.00D+00 EMaxC= 1.00D-01 BMatC= 6.07D-15 BMatP= 1.74D-13
 IDIUse=1 WtCom= 1.00D+00 WtEn= 0.00D+00
 Coeff-Com: -0.586D-06 0.140D-04-0.999D-04-0.225D-03 0.284D-02-0.726D-02
 Coeff-Com: -0.236D-01 0.156D+00-0.620D+00 0.149D+01
 Coeff:     -0.586D-06 0.140D-04-0.999D-04-0.225D-03 0.284D-02-0.726D-02
 Coeff:     -0.236D-01 0.156D+00-0.620D+00 0.149D+01
 Gap=     0.540 Goal=   None    Shift=    0.000
 RMSDP=1.29D-09 MaxDP=2.09D-08 DE=-3.69D-13 OVMax= 9.62D-08

 SCF Done:  E(RHF) =  -76.0605124822     A.U. after   10 cycles
            NFock= 10  Conv=0.13D-08     -V/T= 2.0014
 KE= 7.595173564528D+01 PE=-1.989658873288D+02 EE= 3.777541944526D+01
 Leave Link  502 at Fri Sep 25 11:34:20 2020, MaxMem=   327680000 cpu:               6.1 elap:               0.9
 (Enter /applis/site/cecic/gaussian16/B.01/nehalem/g16/l801.exe)
 Windowed orbitals will be sorted by symmetry type.
 ExpMin= 2.53D-02 ExpMax= 1.53D+04 ExpMxC= 5.22D+02 IAcc=3 IRadAn=         5 AccDes= 0.00D+00
 HarFok:  IExCor=  205 AccDes= 0.00D+00 IRadAn=         5 IDoV=-2 UseB2=F ITyADJ=14
 ICtDFT= 12500011 ScaDFX=  1.000000  1.000000  1.000000  1.000000
 DSYEVD-2 returned Info=          93 IAlg= 4 N=    46 NDim=    46 NE2=     7122714 trying  DSYEV.
 Largest valence mixing into a core orbital is  1.11D-04
 Largest core mixing into a valence orbital is  1.71D-05
 Range of M.O.s used for correlation:     2    92
 NBasis=    92 NAE=     5 NBE=     5 NFC=     1 NFV=     0
 NROrb=     91 NOA=     4 NOB=     4 NVA=    87 NVB=    87

 **** Warning!!: The largest alpha MO coefficient is  0.15976648D+02

 Leave Link  801 at Fri Sep 25 11:34:21 2020, MaxMem=   327680000 cpu:               1.0 elap:               0.2
 (Enter /applis/site/cecic/gaussian16/B.01/nehalem/g16/l804.exe)
 Closed-shell transformation, MDV=   327680000 ITran=4 ISComp=2.
 Unit  1 TFree=        283746 TCopy=        331600.
 Semi-Direct transformation.
 ModeAB=           2 MOrb=             4 LenV=     327292058
 LASXX=       736380 LTotXX=      736380 LenRXX=      736380
 LTotAB=      763744 MaxLAS=     2025660 LenRXY=     2025660
 NonZer=     2107560 LenScr=     3670016 LnRSAI=           0
 LnScr1=           0 LExtra=           0 Total=      6432056
 MaxDsk=          -1 SrtSym=           F ITran=            4
 DoSDTr:  NPSUse=  8
 JobTyp=0 Pass  1:  I=   1 to   4.
 (rs|ai) integrals will be sorted in core.
 Complete sort for first half transformation.
 First half transformation complete.
 Complete sort for second half transformation.
 Second half transformation complete.
 Spin components of T(2) and E(2):
     alpha-alpha T2 =       0.8134229985D-02 E2=     -0.3258054989D-01
     alpha-beta  T2 =       0.4722901607D-01 E2=     -0.2032997891D+00
     beta-beta   T2 =       0.8134229985D-02 E2=     -0.3258054989D-01
 ANorm=    0.1031260140D+01
 E2 =    -0.2684608889D+00 EUMP2 =    -0.76328973371081D+02
 Leave Link  804 at Fri Sep 25 11:34:22 2020, MaxMem=   327680000 cpu:               5.8 elap:               0.8
 (Enter /applis/site/cecic/gaussian16/B.01/nehalem/g16/l913.exe)
 CIDS:  MDV=   327680000.
 Frozen-core window:  NFC=   1 NFV=   0.
 IFCWin=0 IBDFC=1 NFBD=     0     0 NFCmp=     0     0 NFFFC=     0     0
 Using DD3R+UMP44R for 1st iteration.
 Using DD4RQ for 2nd and later iterations.
 Keep R2 and R3 ints in memory in symmetry-blocked form, NReq=13979758.
 FoFCou: FMM=F IPFlag=           0 FMFlag=           0 FMFlg1=           0
         NFxFlg=           0 DoJE=F BraDBF=F KetDBF=F FulRan=T
         wScrn=  0.000000 ICntrl=       600 IOpCl=  0 I1Cent=           0 NGrid=           0
         NMat0=    1 NMatS0=   4278 NMatT0=    0 NMatD0=    1 NMtDS0=    0 NMtDT0=    0
 Petite list used in FoFCou.
 CIDS: In Core Option IDoMem=           1.
 CCSD(T)
 =======
 Iterations=  50 Convergence= 0.100D-06
 Produce multiple copies of IABC intergrals
 Iteration Nr.   1
 **********************
 DD1Dir will call FoFMem   1 times, MxPair=        20
 NAB=    10 NAA=     0 NBB=     0.
 MP4(R+Q)=  0.40586966D-02
 Maximum subspace dimension=  5
 A-vector RMS=  2.8516017D-03 Max=  1.2157089D-02 conv= 1.00D-05.
 RLE energy=       -0.2670283573
 E3=       -0.26597569D-02        EUMP3=      -0.76331633128D+02
 E4(DQ)=   -0.62601199D-03        UMP4(DQ)=   -0.76332259140D+02
 E4(SDQ)=  -0.25135471D-02        UMP4(SDQ)=  -0.76334146675D+02
 VARIATIONAL ENERGIES WITH THE FIRST-ORDER WAVEFUNCTION:
 DE(Corr)= -0.26702068     E(Corr)=     -76.327533161    
 NORM(A)=   0.10310706D+01
 Iteration Nr.   2
 **********************
 DD1Dir will call FoFMem   1 times, MxPair=        20
 NAB=    10 NAA=     0 NBB=     0.
 A-vector RMS=  3.0463249D-04 Max=  2.1866284D-03 conv= 1.00D-05.
 RLE energy=       -0.2728035576
 DE(Corr)= -0.27241916     E(CORR)=     -76.332931638     Delta=-5.40D-03
 NORM(A)=   0.10331780D+01
 Iteration Nr.   3
 **********************
 DD1Dir will call FoFMem   1 times, MxPair=        20
 NAB=    10 NAA=     0 NBB=     0.
 A-vector RMS=  3.9699177D-04 Max=  2.2300673D-03 conv= 1.00D-05.
 RLE energy=       -0.2731125112
 DE(Corr)= -0.27274067     E(CORR)=     -76.333253155     Delta=-3.22D-04
 NORM(A)=   0.10335902D+01
 Iteration Nr.   4
 **********************
 DD1Dir will call FoFMem   1 times, MxPair=        20
 NAB=    10 NAA=     0 NBB=     0.
 A-vector RMS=  6.1003554D-05 Max=  3.7391336D-04 conv= 1.00D-05.
 RLE energy=       -0.2731455760
 DE(Corr)= -0.27311786     E(CORR)=     -76.333630342     Delta=-3.77D-04
 NORM(A)=   0.10337009D+01
 Iteration Nr.   5
 **********************
 DD1Dir will call FoFMem   1 times, MxPair=        20
 NAB=    10 NAA=     0 NBB=     0.
 A-vector RMS=  3.0170815D-05 Max=  1.9243847D-04 conv= 1.00D-05.
 RLE energy=       -0.2731574741
 DE(Corr)= -0.27315217     E(CORR)=     -76.333664649     Delta=-3.43D-05
 NORM(A)=   0.10337232D+01
 Iteration Nr.   6
 **********************
 DD1Dir will call FoFMem   1 times, MxPair=        20
 NAB=    10 NAA=     0 NBB=     0.
 A-vector RMS=  7.0406789D-06 Max=  4.1227687D-05 conv= 1.00D-05.
 RLE energy=       -0.2731538993
 DE(Corr)= -0.27315481     E(CORR)=     -76.333667296     Delta=-2.65D-06
 NORM(A)=   0.10337251D+01
 Iteration Nr.   7
 **********************
 DD1Dir will call FoFMem   1 times, MxPair=        20
 NAB=    10 NAA=     0 NBB=     0.
 A-vector RMS=  2.4168759D-06 Max=  1.1316060D-05 conv= 1.00D-05.
 RLE energy=       -0.2731539177
 DE(Corr)= -0.27315480     E(CORR)=     -76.333667285     Delta= 1.11D-08
 NORM(A)=   0.10337257D+01
 Iteration Nr.   8
 **********************
 DD1Dir will call FoFMem   1 times, MxPair=        20
 NAB=    10 NAA=     0 NBB=     0.
 A-vector RMS=  9.1603339D-07 Max=  5.2057041D-06 conv= 1.00D-05.
 RLE energy=       -0.2731544558
 DE(Corr)= -0.27315456     E(CORR)=     -76.333667041     Delta= 2.44D-07
 NORM(A)=   0.10337261D+01
 Iteration Nr.   9
 **********************
 DD1Dir will call FoFMem   1 times, MxPair=        20
 NAB=    10 NAA=     0 NBB=     0.
 A-vector RMS=  2.2658247D-07 Max=  1.2222791D-06 conv= 1.00D-05.
 RLE energy=       -0.2731545524
 DE(Corr)= -0.27315457     E(CORR)=     -76.333667050     Delta=-9.52D-09
 NORM(A)=   0.10337263D+01
 CI/CC converged in    9 iterations to DelEn=-9.52D-09 Conv= 1.00D-07 ErrA1= 2.27D-07 Conv= 1.00D-05
 Wavefunction amplitudes converged. E(Corr)=     -76.333667050    
 Largest amplitude= 2.13D-02
 IPart=  4 IA=    6   11.23% done.
 IPart=  8 IA=   11   21.79% done.
 IPart=  1 IA=   16   31.68% done.
 IPart=  8 IA=   21   40.90% done.
 IPart=  7 IA=   27   51.08% done.
 IPart=  5 IA=   33   60.30% done.
 IPart=  4 IA=   41   71.10% done.
 IPart=  5 IA=   49   80.19% done.
 IPart=  6 IA=   61   90.62% done.
 Time for triples=      352.86 seconds.
 T4(CCSD)= -0.89602319D-02
 T5(CCSD)=  0.32078631D-03
 CCSD(T)= -0.76342306496D+02
 Discarding MO integrals.
 Leave Link  913 at Fri Sep 25 11:35:13 2020, MaxMem=   327680000 cpu:             371.0 elap:              51.8
 (Enter /applis/site/cecic/gaussian16/B.01/nehalem/g16/l601.exe)
 Copying SCF densities to generalized density rwf, IOpCl= 0 IROHF=0.

 **********************************************************************

            Population analysis using the SCF Density.

 **********************************************************************

 Orbital symmetries:
       Occupied  (A') (A') (A') (A') (A")
       Virtual   (A') (A') (A') (A") (A') (A') (A') (A') (A") (A")
                 (A') (A') (A') (A') (A') (A') (A') (A") (A") (A')
                 (A") (A') (A') (A") (A") (A') (A') (A') (A') (A")
                 (A') (A") (A') (A') (A") (A') (A") (A') (A') (A')
                 (A') (A") (A") (A') (A') (A") (A') (A') (A') (A")
                 (A') (A') (A") (A') (A') (A") (A") (A') (A') (A")
                 (A") (A') (A") (A') (A') (A') (A') (A") (A') (A')
                 (A") (A') (A') (A') (A") (A') (A") (A") (A") (A')
                 (A') (A") (A') (A') (A') (A') (A')
 The electronic state is 1-A'.
 Alpha  occ. eigenvalues --  -20.56737  -1.35257  -0.71744  -0.58413  -0.51015
 Alpha virt. eigenvalues --    0.02944   0.04766   0.13599   0.15855   0.17510
 Alpha virt. eigenvalues --    0.18291   0.22756   0.24494   0.26516   0.30081
 Alpha virt. eigenvalues --    0.31064   0.36576   0.43785   0.46651   0.59976
 Alpha virt. eigenvalues --    0.65803   0.70855   0.72208   0.73160   0.83068
 Alpha virt. eigenvalues --    0.84600   0.89145   0.91297   0.91887   0.92234
 Alpha virt. eigenvalues --    0.93047   0.96298   1.02195   1.04410   1.08313
 Alpha virt. eigenvalues --    1.10954   1.17610   1.18167   1.26001   1.51118
 Alpha virt. eigenvalues --    1.53931   1.58572   1.80308   1.81660   1.98905
 Alpha virt. eigenvalues --    2.11850   2.26238   2.31644   2.32545   2.41841
 Alpha virt. eigenvalues --    2.42006   2.44232   2.47816   2.67722   2.69807
 Alpha virt. eigenvalues --    2.77154   2.82203   2.88494   3.65403   3.74880
 Alpha virt. eigenvalues --    4.01671   4.08582   4.17298   4.24700   4.29595
 Alpha virt. eigenvalues --    4.37843   4.37896   4.40575   4.51501   4.72428
 Alpha virt. eigenvalues --    4.84427   5.14515   5.15577   5.26085   5.33150
 Alpha virt. eigenvalues --    5.52478   5.67349   6.17454   6.51549   6.70954
 Alpha virt. eigenvalues --    6.89407   7.13445   7.25304   7.31437   7.31591
 Alpha virt. eigenvalues --    7.32283   7.35676   7.53932   7.90885   7.92395
 Alpha virt. eigenvalues --    8.80598  15.78458
          Condensed to atoms (all electrons):
               1          2          3
     1  O    7.897898   0.271466   0.271466
     2  H    0.271466   0.489737   0.018384
     3  H    0.271466   0.018384   0.489734
 Mulliken charges:
               1
     1  O   -0.440830
     2  H    0.220413
     3  H    0.220416
 Sum of Mulliken charges =  -0.00000
 Mulliken charges with hydrogens summed into heavy atoms:
               1
     1  O   -0.000000
 Electronic spatial extent (au):  <R**2>=             19.4941
 Charge=             -0.0000 electrons
 Dipole moment (field-independent basis, Debye):
    X=              0.0000    Y=             -1.9796    Z=             -0.0000  Tot=              1.9796
 Quadrupole moment (field-independent basis, Debye-Ang):
   XX=             -4.2300   YY=             -6.2533   ZZ=             -7.5622
   XY=              0.0000   XZ=              0.0000   YZ=             -0.0000
 Traceless Quadrupole moment (field-independent basis, Debye-Ang):
   XX=              1.7852   YY=             -0.2381   ZZ=             -1.5470
   XY=              0.0000   XZ=              0.0000   YZ=             -0.0000
 Octapole moment (field-independent basis, Debye-Ang**2):
  XXX=              0.0000  YYY=             -1.1361  ZZZ=             -0.0000  XYY=             -0.0000
  XXY=             -1.4100  XXZ=             -0.0000  XZZ=              0.0000  YZZ=             -0.2527
  YYZ=             -0.0000  XYZ=             -0.0000
 Hexadecapole moment (field-independent basis, Debye-Ang**3):
 XXXX=             -5.9568 YYYY=             -7.2482 ZZZZ=             -6.7344 XXXY=             -0.0000
 XXXZ=             -0.0000 YYYX=              0.0000 YYYZ=             -0.0000 ZZZX=             -0.0000
 ZZZY=             -0.0000 XXYY=             -1.8557 XXZZ=             -2.4483 YYZZ=             -2.3798
 XXYZ=             -0.0000 YYXZ=             -0.0000 ZZXY=             -0.0000
 N-N= 9.178219756078D+00 E-N=-1.989658873019D+02  KE= 7.595173564528D+01
 Symmetry A'   KE= 7.148559386511D+01
 Symmetry A"   KE= 4.466141780168D+00
 Leave Link  601 at Fri Sep 25 11:35:14 2020, MaxMem=   327680000 cpu:               0.7 elap:               0.2
 (Enter /applis/site/cecic/gaussian16/B.01/nehalem/g16/l9999.exe)
 1\1\GINC-DAHU112\SP\RCCSD(T)-FC\Aug-CC-pVTZ\H2O1\TINACCIL\25-Sep-2020\
 0\\#P CCSD(T)/aug-cc-pvtz geom=allcheck guess=read\\Title\\0,1\O,0,0.0
 110355055,0.,0.0085446155\H,0,0.008844184,0.,0.9674248536\H,0,0.938785
 1367,0.,-0.2338259251\\Version=ES64L-G16RevB.01\State=1-A'\HF=-76.0605
 125\MP2=-76.3289734\MP3=-76.3316331\MP4D=-76.3363178\MP4DQ=-76.3322591
 \MP4SDQ=-76.3341467\CCSD=-76.3336671\CCSD(T)=-76.3423065\RMSD=1.292e-0
 9\PG=CS [SG(H2O1)]\\@


 THE SECRET OF SUCCESS IN LIFE IS TO EAT WHAT YOU LIKE, AND LET THE FOOD
 FIGHT IT OUT INSIDE YOU. -- FROM A FORTUNE COOKIE
 Job cpu time:       0 days  0 hours  6 minutes 32.1 seconds.
 Elapsed time:       0 days  0 hours  0 minutes 55.1 seconds.
 File lengths (MBytes):  RWF=    110 Int=      0 D2E=      0 Chk=      2 Scr=      1
 Normal termination of Gaussian 16 at Fri Sep 25 11:35:14 2020.
