$hessian                                                                        
        0.5776079344   0.0206370655  -0.0163541710  -0.2802686923  -0.1664788977
        0.0763170850  -0.2512373777   0.1567283199  -0.0650391575  -0.0461018644
       -0.0108864877   0.0050762435
        0.0206370655   0.3377452862  -0.1361392834  -0.1758597299  -0.2111947423
        0.1017357230   0.1438297524  -0.1467639931   0.0518071847   0.0113929120
        0.0202134492  -0.0174036243
       -0.0163541710  -0.1361392834   0.0843816700   0.0803636605   0.1016313294
       -0.0276317447  -0.0594296607   0.0516334127  -0.0447313134  -0.0045798287
       -0.0171254587  -0.0120186119
       -0.2802686923  -0.1758597299   0.0803636605   0.4734605476   0.0841146934
       -0.0427273797  -0.0470442296  -0.0151667396   0.0070204602  -0.1461476256
        0.1069117761  -0.0446567409
       -0.1664788977  -0.2111947423   0.1016313294   0.0841146934   0.3184974409
       -0.1341055302  -0.0011540993   0.0205131091  -0.0159623299   0.0835183035
       -0.1278158078   0.0484365307
        0.0763170850   0.1017357230  -0.0276317447  -0.0427273797  -0.1341055302
        0.0711961786   0.0009109154  -0.0157559733  -0.0094005440  -0.0345006207
        0.0481257806  -0.0341638898
       -0.2512373777   0.1438297524  -0.0594296607  -0.0470442296  -0.0011540993
        0.0009109154   0.3065200404  -0.1396544157   0.0568514349  -0.0082384331
       -0.0030212374   0.0016673105
        0.1567283199  -0.1467639931   0.0516334127  -0.0151667396   0.0205131091
       -0.0157559733  -0.1396544157   0.1236437942  -0.0425895151  -0.0019071645
        0.0026070898   0.0067120758
       -0.0650391575   0.0518071847  -0.0447313134   0.0070204602  -0.0159623299
       -0.0094005440   0.0568514349  -0.0425895151   0.0390598505   0.0011672625
        0.0067446603   0.0150720069
       -0.0461018644   0.0113929120  -0.0045798287  -0.1461476256   0.0835183035
       -0.0345006207  -0.0082384331  -0.0019071645   0.0011672625   0.2004879231
       -0.0930040510   0.0379131869
       -0.0108864877   0.0202134492  -0.0171254587   0.1069117761  -0.1278158078
        0.0481257806  -0.0030212374   0.0026070898   0.0067446603  -0.0930040510
        0.1049952687  -0.0377449822
        0.0050762435  -0.0174036243  -0.0120186119  -0.0446567409   0.0484365307
       -0.0341638898   0.0016673105   0.0067120758   0.0150720069   0.0379131869
       -0.0377449822   0.0311104948
