4
 energy: -7.093177437109 gnorm: 0.000427534178 xtb: 6.2.2 (9d81278992624c895f80dd42a50cac0aa55982e2)
O        -0.53151984088937   -0.32095561616402    0.14654068628669
C         0.50633441402226    0.39954088422340   -0.18035064576649
H        -1.36477197865185    0.14892986808271   -0.04642257809282
H         1.38995840551896   -0.22751513614733    0.08023253756913
