4
 energy: -7.085687994425 gnorm: 0.087742104035 xtb: 6.2.2 (9d81278992624c895f80dd42a50cac0aa55982e2)
O        -0.59575200000000   -0.38027100000000    0.17316800000000
C         0.52089400000000    0.37931700000000   -0.17175200000000
H        -1.36821300000000    0.19175900000000   -0.06499400000000
H         1.44307200000000   -0.19080500000000    0.06357800000000
4
 energy: -7.091915933432 gnorm: 0.041414899115 xtb: 6.2.2 (9d81278992624c895f80dd42a50cac0aa55982e2)
O        -0.54717244924868   -0.35124753239245    0.15990984212755
C         0.50586438810458    0.40125765115916   -0.18108207680839
H        -1.34901788405442    0.16722310168053   -0.05459226380096
H         1.39032694519852   -0.21723322044724    0.07576449848180
4
 energy: -7.093088160977 gnorm: 0.011331415739 xtb: 6.2.2 (9d81278992624c895f80dd42a50cac0aa55982e2)
O        -0.52774409642974   -0.32316514078857    0.14744994663683
C         0.49997957589790    0.39667116361872   -0.17901138164236
H        -1.35683355951722    0.15192780902806   -0.04784265237077
H         1.38459908004907   -0.22543383185821    0.07940408737630
4
 energy: -7.093173506250 gnorm: 0.001342709754 xtb: 6.2.2 (9d81278992624c895f80dd42a50cac0aa55982e2)
O        -0.53204374970773   -0.32348752759397    0.14764875393560
C         0.50478488448623    0.39835808434624   -0.17980722993567
H        -1.36246502230818    0.15111031576561   -0.04741346623909
H         1.38972488752968   -0.22598087251788    0.07957194223916
4
 energy: -7.093177436695 gnorm: 0.000427388345 xtb: 6.2.2 (9d81278992624c895f80dd42a50cac0aa55982e2)
O        -0.53151867188266   -0.32095865494901    0.14653827075910
C         0.50633295156357    0.39954385014628   -0.18034818099687
H        -1.36477259637443    0.14892280318207   -0.04642708212892
H         1.38995931669352   -0.22750799837934    0.08023699236669
