[Molden Format]
[Title]
[Atoms] AU
O      1     8 -0.10044268358950E+01 -0.60651815643782E+00  0.27692173750378E+00
C      2     6  0.95683328120007E+00  0.75502277672212E+00 -0.34081329527745E+00
H      3     1 -0.25790450229321E+01  0.28143663634131E+00 -0.87725950455279E-01
H      4     1  0.26266404673530E+01 -0.42994125663550E+00  0.15161750822236E+00
[GTO]
           1 0
 s           4   1.0000000000000000     
   69.137961906196551      -0.20478756370077797     
   11.906129132707308      -0.24997023136827334     
  0.95670827744340703       0.40025880240639616     
  0.36462520496073686       0.15952206667693555     
 p           4   1.0000000000000000     
   8.2124193257781641        1.1321556799186829     
   2.1293576997098116        1.0476840782254817     
  0.75066448202360914       0.54956508217158984     
  0.29885246543283073        8.2908486592766617E-002

           2 0
 s           4   1.0000000000000000     
   51.049363095579913      -0.16312063210127389     
   8.7911227406887544      -0.19911024581000730     
  0.70640422258929825       0.31882047753655751     
  0.26922813413411617       0.12706504184240380     
 p           4   1.0000000000000000     
   5.8263656140800002       0.73716451545209605     
   1.5106896018720002       0.68216371614850257     
  0.53256483288000001       0.35783053929253711     
  0.21202323690600003        5.3983030275847881E-002

           3 0
 s           3   1.0000000000000000     
   3.3702276975336001       0.27359110588908298     
  0.61389118221497996       0.26460540653860526     
  0.16614291148415999        8.2465947534082318E-002

           4 0
 s           3   1.0000000000000000     
   3.3702276975336001       0.27359110588908298     
  0.61389118221497996       0.26460540653860526     
  0.16614291148415999        8.2465947534082318E-002

[MO]
Sym=     1a
Ene=  -0.73676089081565388     
Spin= Alpha
Occup=     2.00000000
           1 -0.76804479563925754     
           2  -5.4748414673946880E-002
           3  -9.1397778301046839E-002
           4   4.0436955951114420E-002
           5 -0.21462739001096587     
           6  0.13612348507930880     
           7   8.0104544497708055E-002
           8  -3.6621429346190330E-002
           9 -0.14428675079118769     
          10  -1.2938542606817701E-002
Sym=     2a
Ene=  -0.64760380338912116     
Spin= Alpha
Occup=     2.00000000
           1  0.14765553495841319     
           2 -0.62674887977802718     
           3  -4.2704759146532427E-002
           4   2.6945401022305665E-002
           5 -0.36465968099739388     
           6   3.8561819800535795E-002
           7  0.11955433767455372     
           8  -5.2452282684767530E-002
           9  0.31151821967238058     
          10 -0.12175104995922668     
Sym=     3a
Ene=  -0.58403552476796361     
Spin= Alpha
Occup=     2.00000000
           1 -0.40701331390567702     
           2 -0.11219055951448596     
           3  0.69088690714536960     
           4 -0.29862644479172240     
           5  0.28169161470412041     
           6 -0.13458404086390144     
           7  0.15311597429092738     
           8  -6.4712683493798606E-002
           9  0.20016391159437344     
          10  -1.1827484765627274E-003
Sym=     4a
Ene=  -0.54132252331254971     
Spin= Alpha
Occup=     2.00000000
           1   9.5659362350097904E-007
           2  -1.0737571303014075E-002
           3 -0.34835940299235668     
           4 -0.80191465917867299     
           5  -1.5829204087424666E-006
           6  -4.3514309011927019E-003
           7 -0.14104984077713295     
           8 -0.32469050805178107     
           9  -1.3724879582972367E-006
          10  -5.0952431663074705E-006
Sym=     5a
Ene=  -0.49957768373739314     
Spin= Alpha
Occup=     2.00000000
           1  -6.2215161584106685E-002
           2 -0.28365482238215461     
           3 -0.15025281066721924     
           4   6.9060447951155096E-002
           5  0.40003952047614044     
           6  0.46684760285676519     
           7   7.9001165369226273E-002
           8  -4.0572443390855556E-002
           9  0.16426704869936470     
          10  0.46115974818394656     
Sym=     6a
Ene=  -0.35925235941435363     
Spin= Alpha
Occup=     2.00000000
           1  0.14524387561661789     
           2   8.3068386462463815E-003
           3 -0.32392558106048308     
           4  0.14061139334839431     
           5  0.50483302797488228     
           6 -0.11656964868759778     
           7  0.68000889078083970     
           8 -0.29384859553495279     
           9 -0.16558593538131400     
          10 -0.30710240862208527     
Sym=     7a
Ene=  -0.28288949088440429     
Spin= Alpha
Occup=     0.00000000
           1  -2.2227488709851340E-006
           2   6.3597043122299189E-003
           3  0.20630644496186848     
           4  0.47490434002411280     
           5   1.6017928097027518E-006
           6  -1.1692000580299950E-002
           7 -0.37951007931859598     
           8 -0.87359664337497611     
           9   3.4685665600358413E-006
          10  -1.9934069256771608E-006
Sym=     8a
Ene=    7.8994317559039101E-002
Spin= Alpha
Occup=     0.00000000
           1 -0.72410884192984537     
           2  0.46274644023622113     
           3 -0.48814197288245403     
           4  0.20585544735270880     
           5  0.26970623352574474     
           6  -8.8091724611694566E-002
           7 -0.20278163774631092     
           8   8.9274856278437453E-002
           9   1.0812499761328962     
          10 -0.30812149767729219     
Sym=     9a
Ene=   0.16128534704552197     
Spin= Alpha
Occup=     0.00000000
           1 -0.26292869474528346     
           2  -5.0065459115887716E-002
           3 -0.26655633768678544     
           4  0.11646795817305912     
           5 -0.39136049537868622     
           6 -0.94860676627985629     
           7  0.31660214751409393     
           8 -0.12484452618388987     
           9   7.3814561268361514E-002
          10   1.0381162778280557     
Sym=    10a
Ene=   0.31168920926636806     
Spin= Alpha
Occup=     0.00000000
           1 -0.35809033696907344     
           2 -0.85919360674856438     
           3 -0.27126804020105705     
           4  0.12934852637830599     
           5  0.76725673176587983     
           6 -0.52991432585559828     
           7 -0.63788696357472585     
           8  0.28420523801599157     
           9 -0.43065849754255936     
          10 -0.26839521438926361     
