[Molden Format]
[Title]
[Atoms] AU
C      1     6 -0.28643771830920E+01 -0.12937522082148E+01  0.64076810120897E+00
C      2     6 -0.41487253274798E+00 -0.17359408692105E-01  0.38248904323129E-01
C      3     6  0.20431401436858E+01  0.77169060175071E-01 -0.21540850563068E+00
C      4     6 -0.30214449241544E+01  0.10628284992448E+01 -0.12633818929341E-01
N      5     7  0.42575544963086E+01  0.17111405748706E+00 -0.45097468097208E+00
[GTO]
           1 0
 s           4   1.0000000000000000     
   51.049363095579913      -0.16312063210127389     
   8.7911227406887544      -0.19911024581000730     
  0.70640422258929825       0.31882047753655751     
  0.26922813413411617       0.12706504184240380     
 p           4   1.0000000000000000     
   5.8263656140800002       0.73716451545209605     
   1.5106896018720002       0.68216371614850257     
  0.53256483288000001       0.35783053929253711     
  0.21202323690600003        5.3983030275847881E-002

           2 0
 s           4   1.0000000000000000     
   51.049363095579913      -0.16312063210127389     
   8.7911227406887544      -0.19911024581000730     
  0.70640422258929825       0.31882047753655751     
  0.26922813413411617       0.12706504184240380     
 p           4   1.0000000000000000     
   5.8263656140800002       0.73716451545209605     
   1.5106896018720002       0.68216371614850257     
  0.53256483288000001       0.35783053929253711     
  0.21202323690600003        5.3983030275847881E-002

           3 0
 s           4   1.0000000000000000     
   51.049363095579913      -0.16312063210127389     
   8.7911227406887544      -0.19911024581000730     
  0.70640422258929825       0.31882047753655751     
  0.26922813413411617       0.12706504184240380     
 p           4   1.0000000000000000     
   5.8263656140800002       0.73716451545209605     
   1.5106896018720002       0.68216371614850257     
  0.53256483288000001       0.35783053929253711     
  0.21202323690600003        5.3983030275847881E-002

           4 0
 s           4   1.0000000000000000     
   51.049363095579913      -0.16312063210127389     
   8.7911227406887544      -0.19911024581000730     
  0.70640422258929825       0.31882047753655751     
  0.26922813413411617       0.12706504184240380     
 p           4   1.0000000000000000     
   5.8263656140800002       0.73716451545209605     
   1.5106896018720002       0.68216371614850257     
  0.53256483288000001       0.35783053929253711     
  0.21202323690600003        5.3983030275847881E-002

           5 0
 s           4   1.0000000000000000     
   63.594024466941008      -0.19234388414721629     
   10.951417231523665      -0.23478107924953728     
  0.87999310257376984       0.37593753901700888     
  0.33538715296521110       0.14982889271862770     
 p           4   1.0000000000000000     
   7.2965040481495080       0.97658666315667420     
   1.8918745450712575       0.90372226730345739     
  0.66694432110824120       0.47404958461536373     
  0.26552202674130870        7.1516067715011844E-002

[MO]
Sym=     1a
Ene=  -0.72395709118192875     
Spin= Alpha
Occup=     2.00000000
           1 -0.38341941250349171     
           2  -8.0924199448600145E-002
           3 -0.15662150096053581     
           4   5.2355344923645832E-002
           5 -0.35221777392604037     
           6  0.14695041611842724     
           7   5.5475798267691631E-003
           8  -1.6187901721514082E-002
           9  -6.2825392550242387E-002
          10   6.6077837570771847E-002
          11   2.5138541307432368E-003
          12  -6.9441225631800387E-003
          13 -0.38386382526008317     
          14 -0.10168416579373181     
          15  0.14973169625323637     
          16  -3.2552880868238987E-002
          17   8.8788985863433780E-003
          18   1.9460871018002787E-003
          19   4.2337168156334117E-005
          20  -1.9930215899757790E-004
Sym=     2a
Ene=  -0.67763760654411931     
Spin= Alpha
Occup=     2.00000000
           1   8.9553539705568397E-002
           2  -4.6466736421671415E-002
           3   3.2064774750647541E-002
           4  -4.7143587282131513E-003
           5 -0.26570598149739832     
           6 -0.22942518314777652     
           7  -9.0647303678777370E-003
           8   2.4006596342626297E-002
           9 -0.54864368206483460     
          10  -2.5631265343020591E-002
          11  -1.7320558806303153E-003
          12   3.2310613441848420E-003
          13   8.9329569975634002E-002
          14  -4.2197479382077130E-002
          15  -3.5534797960608398E-002
          16   1.4051253616582614E-002
          17 -0.33382846704485430     
          18  0.18086495630462793     
          19   7.4810767934040687E-003
          20  -1.9107079531732313E-002
Sym=     3a
Ene=  -0.64519450842143566     
Spin= Alpha
Occup=     2.00000000
           1 -0.15994816486571700     
           2  0.10699292240115640     
           3  -6.3981734849881844E-002
           4   7.8655041444833599E-003
           5  0.34222406151182250     
           6  0.19223370002291132     
           7   7.4101098886926488E-003
           8  -2.0190488286292597E-002
           9   3.7754552309321595E-004
          10 -0.40669640369096371     
          11  -1.6440855241432833E-002
          12   4.2545098296206840E-002
          13 -0.15940820065015110     
          14   9.8288550095376487E-002
          15   7.1890010504022758E-002
          16  -2.9841110787013233E-002
          17 -0.44571615578921292     
          18  0.11767120653933001     
          19   5.2350354782854528E-003
          20  -1.2707443827653913E-002
Sym=     4a
Ene=  -0.57995015312522979     
Spin= Alpha
Occup=     2.00000000
           1 -0.42436341550257661     
           2 -0.12035307285156489     
           3  0.22735010565608876     
           4  -5.2736817657321515E-002
           5   1.3039335331964370E-003
           6  -3.1852073913261877E-002
           7  0.43077590104452834     
           8 -0.11914724284708660     
           9  -2.0717039567969883E-003
          10  -1.3260917653640257E-002
          11  0.21144095888134601     
          12  -5.8701763598171072E-002
          13  0.42142647445315973     
          14   9.3977484896076199E-002
          15  0.23788584716972921     
          16  -7.6726539663830945E-002
          17   1.5409269991748312E-003
          18  -7.5430376929105473E-003
          19  0.10962129342918812     
          20  -3.0371176437563811E-002
Sym=     5a
Ene=  -0.55725721730253286     
Spin= Alpha
Occup=     2.00000000
           1  0.21353272414534846     
           2 -0.44182434368059387     
           3  0.10261219091206764     
           4   1.8056893333103709E-002
           5 -0.16490451253090574     
           6  0.31377536663831501     
           7   1.6448401460543129E-002
           8  -2.9804801324506764E-002
           9  0.18470813451393669     
          10 -0.16247257826810260     
          11  -3.8011314013765359E-003
          12   1.8731979026340911E-002
          13  0.21895571044889292     
          14 -0.42533099984098238     
          15 -0.12915365989611804     
          16   8.2222588042769343E-002
          17 -0.21718900709871625     
          18  -5.3334827523653670E-002
          19  -2.5708819457888972E-004
          20   6.4907082525808880E-003
Sym=     6a
Ene=  -0.54999926320262638     
Spin= Alpha
Occup=     2.00000000
           1  -2.0028206820614149E-003
           2   3.9758432715450667E-002
           3  0.10202535746280336     
           4  0.36290161122122860     
           5   7.3731652062246513E-005
           6   4.0922192821836317E-002
           7  0.13042210838724622     
           8  0.46065374066477932     
           9  -1.3617693066264468E-003
          10   3.3297145199635218E-002
          11   9.6672837736867509E-002
          12  0.34071954283387257     
          13  -2.0376791283759593E-003
          14   3.9657867612377273E-002
          15  0.10447733424309599     
          16  0.36287033230396581     
          17   1.6877581812219631E-003
          18   2.0816975708454886E-002
          19   6.1250054626642819E-002
          20  0.21595285732205799     
Sym=     7a
Ene=  -0.51250095075859181     
Spin= Alpha
Occup=     2.00000000
           1  0.28148614311673170     
           2  -4.2825613183271639E-002
           3 -0.17869819826546093     
           4   5.4870123750469284E-002
           5   1.5016186676559368E-004
           6  -7.7662138505313408E-003
           7  0.11550504057024741     
           8  -3.2017858107479098E-002
           9  -1.8476848920702270E-003
          10  -3.5729340394211502E-002
          11  0.51136859744101759     
          12 -0.14162998702479973     
          13 -0.28101494989253700     
          14   6.7319300946169072E-002
          15 -0.17386040516300255     
          16   4.2793152653502101E-002
          17   1.3382105320420617E-003
          18  -3.7196104370705758E-002
          19  0.53100275454751988     
          20 -0.14705995761059476     
Sym=     8a
Ene=  -0.49789577174613719     
Spin= Alpha
Occup=     2.00000000
           1   6.7402012912803289E-005
           2  -3.5559937438827481E-002
           3 -0.10156582325931691     
           4 -0.35783761578953321     
           5  -1.3502517157966851E-004
           6  -2.8145176273121006E-003
           7  -8.5826144717215964E-003
           8  -3.0287159888617587E-002
           9   1.4297764813348576E-003
          10   4.3099236751982115E-002
          11  0.13099238845519801     
          12  0.46206807918000242     
          13   6.2254117005487781E-005
          14  -3.5557396658682010E-002
          15 -0.10161398129284194     
          16 -0.35784912900490340     
          17  -1.7777085436051026E-003
          18   4.7958555777608991E-002
          19  0.14818305572090767     
          20  0.52291207073362100     
Sym=     9a
Ene=  -0.45490980118433716     
Spin= Alpha
Occup=     1.99999847
           1   5.0856861721482165E-003
           2 -0.10002138840470275     
           3   1.3474944575395905E-002
           4   5.4548509921186882E-003
           5  0.13247927626148193     
           6  0.14695600966077582     
           7   4.0902277990661493E-003
           8  -1.5259448820520263E-002
           9 -0.16726803606613200     
          10 -0.20301826492412767     
          11  -8.4402685805321995E-003
          12   2.2491698722272697E-002
          13   7.1203620187907128E-003
          14  -9.9400423330986878E-002
          15  -1.9547607827179039E-002
          16   1.4766520017680912E-002
          17  0.64961329729060480     
          18  0.66759100935796223     
          19   2.8343601693788054E-002
          20  -6.9192402343009107E-002
Sym=    10a
Ene=  -0.42946473385612738     
Spin= Alpha
Occup=     1.00000153
           1  0.27672687267792012     
           2 -0.34800094753743238     
           3 -0.23204764463190339     
           4   9.9972209220099972E-002
           5   1.4127956862687648E-003
           6  -3.4806121912859748E-002
           7  0.51664486066772497     
           8 -0.14320920138047757     
           9  -2.9056559238945189E-005
          10   2.8209504823782246E-003
          11  -5.0215238829597872E-002
          12   1.3973042743232061E-002
          13 -0.24709748422402536     
          14  0.37064909890691400     
          15 -0.16259523182782806     
          16   9.8036407443854653E-003
          17   1.2188497581389855E-003
          18   3.4973839461794796E-002
          19 -0.46301607542195805     
          20  0.12799145534347608     
Sym=    11a
Ene=  -0.42330286405045492     
Spin= Alpha
Occup=     1.00000000
           1  0.38580285996136227     
           2   2.0974517098377072E-002
           3 -0.57259004188238838     
           4  0.16032951759845504     
           5   1.2003812727812193E-002
           6  -9.5634056681656778E-003
           7  -1.9866356387957290E-002
           8   6.7403566441715428E-003
           9   8.1714048127558680E-003
          10  -1.0734691113901462E-002
          11   4.8573809189760589E-004
          12   8.5191065328474639E-004
          13  0.40474891417437076     
          14  -8.4985692746516225E-002
          15  0.58466489810825206     
          16 -0.15771241638842168     
          17   8.7431274202587148E-003
          18   4.8945944332623838E-003
          19   1.7312362362814467E-002
          20  -5.5604345622592231E-003
Sym=    12a
Ene=  -0.36844085306869068     
Spin= Alpha
Occup=     1.00000000
           1  -1.8753014021287261E-004
           2  -3.1461782676350213E-002
           3  -9.2744379008080219E-002
           4 -0.32732069647457246     
           5  -2.4625126842946557E-003
           6   6.1956356897720430E-002
           7  0.18494636572687814     
           8  0.65212069289417707     
           9   9.7090889348906857E-004
          10   1.6289826874613399E-002
          11   5.2160461317186324E-002
          12  0.18422704397828138     
          13  -1.9146088822552822E-004
          14  -3.1053098269272394E-002
          15  -9.1828599406295675E-002
          16 -0.32332223888504225     
          17   4.3025974760992948E-004
          18  -5.4155952024866512E-002
          19 -0.16560186148176143     
          20 -0.58425790328173532     
Sym=    13a
Ene=  -0.27873940129302249     
Spin= Alpha
Occup=     0.00000000
           1   8.0763956499291385E-006
           2   7.5281388699679694E-002
           3  0.21884450988697932     
           4  0.77124592249738921     
           5  -6.4004672902139577E-006
           6   9.4073389204242015E-005
           7   3.4609692457150307E-004
           8   1.0469571309383678E-003
           9   9.8973678477141608E-006
          10   2.6867600456611200E-004
          11   9.3358652964293986E-005
          12   2.6423174970159318E-003
          13  -1.0211631121942186E-005
          14  -7.5359301707356774E-002
          15 -0.21909834063223704     
          16 -0.77204157405187157     
          17   1.4131122104818981E-006
          18  -3.0324105904123413E-004
          19  -1.4374422122556227E-004
          20  -2.9577139485480815E-003
Sym=    14a
Ene=  -0.24952492982734170     
Spin= Alpha
Occup=     0.00000000
           1   1.3777365227913983E-002
           2  0.41998601262336133     
           3   4.7954080848333002E-003
           4  -4.1760748103026671E-002
           5   6.8836849113788463E-006
           6   1.4438085305482987E-004
           7   2.3315620786536012E-002
           8  -6.6156754415950120E-003
           9  -2.1800555362061682E-003
          10  -4.8869329279926446E-002
          11  0.70428391782413080     
          12 -0.19509438355357658     
          13  -1.2900366113527814E-002
          14 -0.41700111909883408     
          15  -2.6762383673000954E-002
          16   4.7692648145443821E-002
          17  -3.0319363579409131E-004
          18   4.5567836783350420E-002
          19 -0.64764621224585706     
          20  0.17934565137154548     
Sym=    15a
Ene=  -0.16336475875434381     
Spin= Alpha
Occup=     0.00000000
           1  -8.2510000385120261E-004
           2   1.2635672785552483E-002
           3   4.2105860622693586E-002
           4  0.14990918696185146     
           5   4.4002962348426112E-003
           6  -5.9437541906657836E-002
           7 -0.17299337552823754     
           8 -0.60955018493264845     
           9  -3.3966338659137271E-004
          10   7.7426327847565604E-002
          11  0.23234191489982431     
          12  0.81928641805639979     
          13  -8.2362130808253439E-004
          14   1.2979115461106104E-002
          15   4.3741183019286617E-002
          16  0.15354169650879079     
          17   1.3677025845023298E-004
          18  -5.3859256472021291E-002
          19 -0.16051899522254351     
          20 -0.56593023949577981     
Sym=    16a
Ene=   -2.3232441956579076E-002
Spin= Alpha
Occup=     0.00000000
           1  -8.2477568762152037E-002
           2 -0.67065136942273929     
           3  0.17622316623162740     
           4   1.5733786245898121E-002
           5   9.2338817270210802E-002
           6   2.7625100141056028E-002
           7 -0.78477754256673382     
           8  0.22051051918970835     
           9  -5.0278821421612427E-002
          10  -1.4223613709922684E-002
          11  0.48327964798488965     
          12 -0.13593905627916969     
          13   3.6460098323813195E-002
          14  0.55534302774493038     
          15  0.24002506984112948     
          16 -0.12276099566945937     
          17   1.0863994278452492E-002
          18  -1.2192094797921389E-002
          19 -0.24473712336558304     
          20   7.0668194705999596E-002
Sym=    17a
Ene=   -9.3643973398144145E-003
Spin= Alpha
Occup=     0.00000000
           1 -0.24728358166613537     
           2 -0.40214476171599983     
           3 -0.12774035538642173     
           4   7.4637739466780664E-002
           5   1.0159035413540276     
           6 -0.26925679763708543     
           7   6.3062308739771991E-002
           8   1.3764979170383591E-002
           9 -0.54711236792113471     
          10  0.21961709310264138     
          11  -3.7380495504816397E-002
          12  -1.2527972804038024E-002
          13 -0.25754436239534323     
          14 -0.53012073815713001     
          15   5.0910415865406483E-002
          16   3.6483862889554249E-002
          17  0.11998030916320228     
          18 -0.31842218319563026     
          19   9.6260975868273178E-003
          20   2.8483051974976820E-002
Sym=    18a
Ene=   0.43492455716122008     
Spin= Alpha
Occup=     0.00000000
           1  0.24913460738095178     
           2  0.28919334240417283     
           3  0.11288652223662783     
           4  -6.0779073937685515E-002
           5  -4.8415434201963967E-002
           6   1.0003582009399663     
           7   3.9340162765089615E-002
           8 -0.10682370432124315     
           9  -1.0717561826027913     
          10  -7.0909232323891486E-002
          11  -5.9756198933140544E-003
          12   1.0823662234639082E-002
          13  0.23757319139503119     
          14  0.30438054571265977     
          15  -7.5892397346886312E-002
          16  -8.6960445457481966E-003
          17  0.44481560787885871     
          18 -0.62088392001960868     
          19  -2.5388625191462878E-002
          20   6.4970881404710398E-002
Sym=    19a
Ene=   0.56250564593556174     
Spin= Alpha
Occup=     0.00000000
           1  0.85592700240536734     
           2   2.3501420903324147E-002
           3  0.92335139978797587     
           4 -0.26435964790608568     
           5   3.4174742494886136E-003
           6  -2.2420313894579429E-002
           7  0.21536338293188576     
           8  -5.8928251787002714E-002
           9   8.0284960028244763E-003
          10   8.3406235723243148E-003
          11  -7.5483545596440688E-002
          12   2.0597823788349210E-002
          13 -0.86072327716841823     
          14 -0.15228882749219202     
          15  0.91836218684462634     
          16 -0.24569251276778956     
          17  -4.6199165782592200E-003
          18   3.9720643677647631E-003
          19   2.4595135878803524E-002
          20  -7.3428657878618709E-003
Sym=    20a
Ene=    1.2007425985912092     
Spin= Alpha
Occup=     0.00000000
           1  0.12892350222003779     
           2  0.11650938768532813     
           3   5.2841424774393631E-002
           4  -2.6932091152323884E-002
           5  0.53732304822866483     
           6  0.87506044827388740     
           7   3.1814671363847122E-002
           8  -9.0353968753458427E-002
           9   7.1882119794608082E-002
          10   1.4734432423445964     
          11   6.0111690022410999E-002
          12 -0.15442838472742348     
          13  0.13321545455722364     
          14  0.12554541666117577     
          15  -4.6867779587100464E-002
          16   4.7370418521756701E-004
          17 -0.83152633146009225     
          18  0.76770424539866677     
          19   3.3184209068569906E-002
          20  -8.2266530617911435E-002
