$hessian                                                                        
        0.8051519625   0.0623762823  -0.0009592780  -0.4940757624   0.0869637755
       -0.0056271998  -0.0409344469   0.0292899943  -0.0016337921  -0.0445017744
       -0.0154726494   0.0006084646  -0.2256399789  -0.1631574028   0.0076118053
        0.0623762823   0.1621153629  -0.0060049103   0.0685661878  -0.0421338367
        0.0008038491   0.0158062440  -0.0218102274   0.0018878290  -0.0086381812
        0.0209810235  -0.0013620194  -0.1381105329  -0.1191523223   0.0046752516
       -0.0009592780  -0.0060049103   0.0414309090  -0.0048165006   0.0009530867
       -0.0316185088  -0.0008196177   0.0018503393   0.0163906930   0.0002479851
       -0.0014069898  -0.0065956311   0.0063474112   0.0046084741  -0.0196074621
       -0.4940757624   0.0685661878  -0.0048165006   0.9169398210  -0.0888916064
        0.0072805613  -0.1552683361   0.1257693948  -0.0066565317  -0.2460287817
       -0.1147599954   0.0047162321  -0.0215669408   0.0093160191  -0.0005237611
        0.0869637755  -0.0421338367   0.0009530867  -0.0888916064   0.0959964988
       -0.0026465179   0.0415337072  -0.0200303885   0.0004102766  -0.0268049417
       -0.0360236270   0.0012549438  -0.0128009347   0.0021913534   0.0000282109
       -0.0056271998   0.0008038491  -0.0316185088   0.0072805613  -0.0026465179
        0.0486015427  -0.0025862162   0.0007033771  -0.0159523799   0.0003775145
        0.0009826134  -0.0067511629   0.0005553403   0.0001566783   0.0057205089
       -0.0409344469   0.0158062440  -0.0008196177  -0.1552683361   0.0415337072
       -0.0025862162   0.1427270747  -0.0481784424   0.0028766395   0.0526921386
       -0.0117794192   0.0007214242   0.0007835696   0.0026179103  -0.0001922299
        0.0292899943  -0.0218102274   0.0018503393   0.1257693948  -0.0200303885
        0.0007033771  -0.0481784424   0.5222714610  -0.0252867566  -0.1054342988
       -0.4886883142   0.0233884123  -0.0014466480   0.0082574691  -0.0006553721
       -0.0016337921   0.0018878290   0.0163906930  -0.0066565317   0.0004102766
       -0.0159523799   0.0028766395  -0.0252867566   0.0082869927   0.0053212134
        0.0236860002  -0.0022161989   0.0000924708  -0.0006973492  -0.0065091068
       -0.0445017744  -0.0086381812   0.0002479851  -0.2460287817  -0.0268049417
        0.0003775145   0.0526921386  -0.1054342988   0.0053212134   0.2402669871
        0.1412917179  -0.0059869642  -0.0024285697  -0.0004142963   0.0000402512
       -0.0154726494   0.0209810235  -0.0014069898  -0.1147599954  -0.0360236270
        0.0009826134  -0.0117794192  -0.4886883142   0.0236860002   0.1412917179
        0.5116537523  -0.0240360682   0.0007203460  -0.0079228345   0.0007744443
        0.0006084646  -0.0013620194  -0.0065956311   0.0047162321   0.0012549438
       -0.0067511629   0.0007214242   0.0233884123  -0.0022161989  -0.0059869642
       -0.0240360682   0.0079926748  -0.0000591568   0.0007547316   0.0075703181
       -0.2256399789  -0.1381105329   0.0063474112  -0.0215669408  -0.0128009347
        0.0005553403   0.0007835696  -0.0014466480   0.0000924708  -0.0024285697
        0.0007203460  -0.0000591568   0.2488519198   0.1516377696  -0.0069360656
       -0.1631574028  -0.1191523223   0.0046084741   0.0093160191   0.0021913534
        0.0001566783   0.0026179103   0.0082574691  -0.0006973492  -0.0004142963
       -0.0079228345   0.0007547316   0.1516377696   0.1166263342  -0.0048225347
        0.0076118053   0.0046752516  -0.0196074621  -0.0005237611   0.0000282109
        0.0057205089  -0.0001922299  -0.0006553721  -0.0065091068   0.0000402512
        0.0007744443   0.0075703181  -0.0069360656  -0.0048225347   0.0128257418
