[Molden Format]
[Title]
[Atoms] AU
C      1     6  0.20977318509092E+01 -0.61596702403866E+00  0.37531537533676E-01
C      2     6 -0.33828776451695E+00 -0.16955787539716E+00  0.81134263134612E-02
C      3     6 -0.26369897628182E+01  0.13931035985197E+01 -0.76290267903303E-01
C      4     6 -0.28653746196802E+01 -0.11596294556654E+01  0.47082620301277E-01
H      5     1  0.37429202961062E+01  0.55205075658155E+00 -0.16437316245105E-01
[GTO]
           1 0
 s           4   1.0000000000000000     
   51.049363095579913      -0.16312063210127389     
   8.7911227406887544      -0.19911024581000730     
  0.70640422258929825       0.31882047753655751     
  0.26922813413411617       0.12706504184240380     
 p           4   1.0000000000000000     
   5.8263656140800002       0.73716451545209605     
   1.5106896018720002       0.68216371614850257     
  0.53256483288000001       0.35783053929253711     
  0.21202323690600003        5.3983030275847881E-002

           2 0
 s           4   1.0000000000000000     
   51.049363095579913      -0.16312063210127389     
   8.7911227406887544      -0.19911024581000730     
  0.70640422258929825       0.31882047753655751     
  0.26922813413411617       0.12706504184240380     
 p           4   1.0000000000000000     
   5.8263656140800002       0.73716451545209605     
   1.5106896018720002       0.68216371614850257     
  0.53256483288000001       0.35783053929253711     
  0.21202323690600003        5.3983030275847881E-002

           3 0
 s           4   1.0000000000000000     
   51.049363095579913      -0.16312063210127389     
   8.7911227406887544      -0.19911024581000730     
  0.70640422258929825       0.31882047753655751     
  0.26922813413411617       0.12706504184240380     
 p           4   1.0000000000000000     
   5.8263656140800002       0.73716451545209605     
   1.5106896018720002       0.68216371614850257     
  0.53256483288000001       0.35783053929253711     
  0.21202323690600003        5.3983030275847881E-002

           4 0
 s           4   1.0000000000000000     
   51.049363095579913      -0.16312063210127389     
   8.7911227406887544      -0.19911024581000730     
  0.70640422258929825       0.31882047753655751     
  0.26922813413411617       0.12706504184240380     
 p           4   1.0000000000000000     
   5.8263656140800002       0.73716451545209605     
   1.5106896018720002       0.68216371614850257     
  0.53256483288000001       0.35783053929253711     
  0.21202323690600003        5.3983030275847881E-002

           5 0
 s           3   1.0000000000000000     
   3.3702276975336001       0.27359110588908298     
  0.61389118221497996       0.26460540653860526     
  0.16614291148415999        8.2465947534082318E-002

[MO]
Sym=     1a
Ene=  -0.69562393973397973     
Spin= Alpha
Occup=     2.00000000
           1   7.9819539129460326E-002
           2  -7.0973060032111832E-002
           3   1.1510978766424226E-002
           4  -7.9914483327859316E-004
           5  0.37511536355963038     
           6 -0.15009549928352559     
           7   1.4896835326800870E-002
           8  -1.2899554018170568E-003
           9  0.37679247747517408     
          10   7.1054702651016224E-002
          11 -0.15361012590035641     
          12   7.7310154244215872E-003
          13  0.37592004605605883     
          14  0.10278136215480840     
          15  0.14144244999101163     
          16  -6.5086735585813647E-003
          17   9.4524451783392863E-003
Sym=     2a
Ene=  -0.63930695322906783     
Spin= Alpha
Occup=     2.00000000
           1  0.50342987641801340     
           2 -0.16111716145774022     
           3   4.5311242069806634E-002
           4  -2.7464415312095551E-003
           5  0.35346867220621492     
           6  0.31031373974341553     
           7  -4.9820522645078191E-002
           8   3.4201646346295241E-003
           9 -0.16809205184412968     
          10   6.9104448614340980E-002
          11   5.0215676378951281E-002
          12  -2.2176823554503405E-003
          13 -0.14899168142551070     
          14   6.8750100733049227E-002
          15  -7.2339663288199199E-002
          16   3.7416461549504391E-003
          17  0.13110427261123195     
Sym=     3a
Ene=  -0.55932747597684129     
Spin= Alpha
Occup=     2.00000000
           1  0.15690273612419595     
           2  0.19029886324548459     
           3  0.17090673481561647     
           4  -7.8627188633883793E-003
           5 -0.12728411204379694     
           6   6.2828852259122214E-002
           7  0.38333465145103834     
           8  -1.8558613727110311E-002
           9  0.45671863209116165     
          10   6.7335732385789149E-003
          11  0.14087164159765025     
          12  -6.8836216438642288E-003
          13 -0.27863334492838293     
          14 -0.17806897293601875     
          15  0.24622712770429389     
          16  -1.2684585173083025E-002
          17  0.23348573307057263     
Sym=     4a
Ene=  -0.54497223701072395     
Spin= Alpha
Occup=     2.00000000
           1 -0.31114994612988706     
           2 -0.25760149629461154     
           3   2.3691448866797183E-002
           4  -1.6802399943131813E-003
           5  0.25315585803918439     
           6  -1.3889192856993780E-002
           7  0.22874416800888833     
           8  -1.0877296847749220E-002
           9   8.0882176970918443E-002
          10  0.30850903248119710     
          11  0.18576634154658600     
          12  -7.7743545430237482E-003
          13 -0.43802370059576484     
          14  0.19057075023759024     
          15   3.9543730463406201E-002
          16  -1.0860224087527875E-003
          17 -0.30185095591470068     
Sym=     5a
Ene=  -0.51431120518543072     
Spin= Alpha
Occup=     2.00000000
           1  -3.4414007919392106E-004
           2   7.7066872601596107E-004
           3  -1.2860111617645088E-002
           4 -0.26466659549598931     
           5   4.7767645485727191E-005
           6   1.5980830399144844E-003
           7  -2.5665766674679274E-002
           8 -0.52865566535447761     
           9  -2.0052606597648968E-004
          10   1.8704036323867069E-003
          11  -2.0144632145823505E-002
          12 -0.41543382319091204     
          13  -2.0457132508583622E-004
          14   1.8992962497297202E-003
          15  -2.1013705326213078E-002
          16 -0.42925843828895249     
          17  -1.9094252288599023E-005
Sym=     6a
Ene=  -0.49854668841401734     
Spin= Alpha
Occup=     2.00000000
           1   1.6848007054487298E-002
           2 -0.36046548063576556     
           3 -0.12055991319177518     
           4   4.9353640307931131E-003
           5  -3.4964666973834949E-002
           6  0.32111248039461282     
           7  -6.4170286036294280E-002
           8   3.9679174385891898E-003
           9  0.28559232275886859     
          10 -0.38963263059641273     
          11   2.3877925667052685E-002
          12  -2.9307332061611650E-003
          13   5.1477010027608155E-002
          14 -0.34871579093303862     
          15  0.17762732727263478     
          16  -1.0277370270385736E-002
          17 -0.31657634512497923     
Sym=     7a
Ene=  -0.43844879366542899     
Spin= Alpha
Occup=     1.99999999
           1 -0.20751167390594646     
           2 -0.14655907530011730     
           3  0.47152967928407064     
           4  -2.3256929117999633E-002
           5   6.6327560194361077E-002
           6  0.14195740922214348     
           7  0.39074825353102849     
           8  -1.8473840163855195E-002
           9 -0.35240253764838630     
          10  0.13190740621078950     
          11 -0.29875390851033518     
          12   1.4920485290959727E-002
          13  0.32326237377984418     
          14 -0.34712997693255110     
          15 -0.14293671620653001     
          16   5.6119115754383175E-003
          17  -1.8164947662228877E-002
Sym=     8a
Ene=  -0.40418815430529587     
Spin= Alpha
Occup=     1.00000001
           1   4.9153500635465267E-004
           2  -1.5907030358540575E-003
           3   3.3370839433506001E-002
           4  0.68939240355480247     
           5  -5.3636411640178432E-005
           6  -1.2391202958048535E-003
           7   1.5633374241374044E-002
           8  0.31998288006674835     
           9  -1.9692113029323865E-004
          10   1.7555047286567922E-003
          11  -2.1104401654059798E-002
          12 -0.42744823923334457     
          13  -1.2813601520260211E-004
          14   1.6506049452705645E-003
          15  -1.9778772410368881E-002
          16 -0.41113335164235421     
          17  -4.9780728456370692E-005
Sym=     9a
Ene=  -0.39981848592028929     
Spin= Alpha
Occup=     1.00000000
           1   2.3163399993019518E-002
           2   2.2120265793395634E-002
           3  -6.4676572266602381E-002
           4   2.8898634145369823E-003
           5  -7.2344691456488275E-003
           6  -4.5650906067725089E-003
           7  -2.0311480718156975E-002
           8   8.1324659009443545E-004
           9 -0.36974731472013239     
          10  -5.8897457127122507E-002
          11 -0.58002056617607300     
          12   2.8209607518248039E-002
          13 -0.40526356586940043     
          14   8.9543816301227014E-002
          15  0.60499742456151795     
          16  -2.8922455737049980E-002
          17  -1.1087952520132513E-002
Sym=    10a
Ene=  -0.34071031496442622     
Spin= Alpha
Occup=     1.00000000
           1 -0.32543588660352069     
           2 -0.12784246244336372     
           3  0.67978413688371975     
           4  -3.3307986943929564E-002
           5   6.0617538549368792E-002
           6   5.0091388048521487E-004
           7 -0.31621233156765138     
           8   1.5733158561562752E-002
           9   8.1263896654664186E-002
          10 -0.45417758592024443     
          11  0.12114184572900029     
          12  -7.7941507534797158E-003
          13 -0.12157353644878814     
          14  0.36281616368992786     
          15   7.8024045293296831E-002
          16  -2.6511013041638342E-003
          17  0.18464206922109577     
Sym=    11a
Ene=  -0.26458721251714312     
Spin= Alpha
Occup=     0.00000000
           1   1.6806842352302210E-005
           2  -1.5961477542482418E-004
           3   2.8912390132390235E-003
           4   5.7946595512096091E-002
           5  -1.9821996539037266E-005
           6   1.3634330568009596E-004
           7  -1.9877314637983443E-003
           8  -4.0763207933563798E-002
           9   1.7226293776423999E-006
          10  -2.9636506670675314E-003
          11   3.9292405297853661E-002
          12  0.80752304773312844     
          13   5.5371122854599426E-006
          14   2.8576492092635790E-003
          15  -3.7579621993531973E-002
          16 -0.77223400742998594     
          17  -1.6107830391245793E-005
Sym=    12a
Ene=  -0.20322813670461790     
Spin= Alpha
Occup=     0.00000000
           1   5.8189830620951279E-004
           2  -1.9338872504245529E-003
           3   3.5069871219799320E-002
           4  0.70922092345608367     
           5  -4.7819001907910779E-004
           6   2.8872526330849598E-003
           7  -4.1248010993278107E-002
           8 -0.84890815123825170     
           9   4.0965499424996494E-005
          10  -8.9751522396137840E-004
          11   1.1154233115775325E-002
          12  0.22995214331139641     
          13   7.9518560454009502E-005
          14  -7.2822503532022069E-004
          15   1.6458613595774607E-002
          16  0.33923734917783444     
          17  -5.6920337607926962E-004
Sym=    13a
Ene=   -2.1001030562012257E-002
Spin= Alpha
Occup=     0.00000000
           1  0.28061519295671500     
           2  0.18166880804471994     
           3 -0.12624028584110608     
           4   6.1611539466820894E-003
           5   7.8684178262809421E-003
           6   5.8783081460712379E-002
           7  0.76167879588893428     
           8  -3.6553256199913176E-002
           9  -4.2050611105502456E-002
          10 -0.67449467870388113     
          11 -0.19501765109353519     
          12   6.9622397691610684E-003
          13   5.0517569621500565E-002
          14  0.61912445766808610     
          15 -0.34480787505232291     
          16   1.8958842955862618E-002
          17 -0.35156957438372621     
Sym=    14a
Ene=    7.7523329220305831E-002
Spin= Alpha
Occup=     0.00000000
           1 -0.61890004191852166     
           2  0.12275774208714650     
           3 -0.43193158511402824     
           4   2.2256110322051575E-002
           5  0.94645283155347393     
           6 -0.16786527206800686     
           7  0.16434565818470354     
           8  -9.2695094492014161E-003
           9 -0.22994001389412386     
          10 -0.46874484011334200     
          11  0.11543016547434651     
          12  -7.1919734788040181E-003
          13 -0.23584929342922190     
          14 -0.38516503664135898     
          15 -0.10890906009186999     
          16   4.0495594017803350E-003
          17  0.54753916791034374     
Sym=    15a
Ene=   0.27324417409591401     
Spin= Alpha
Occup=     0.00000000
           1 -0.54689516136255190     
           2 -0.64924268792702955     
           3 -0.45197234040774747     
           4   2.0734096800974485E-002
           5 -0.55208376963574257     
           6  0.41046950413986349     
           7  0.16906526941796507     
           8  -6.9395449923552854E-003
           9  0.35456994916222606     
          10  0.13795787612118163     
          11 -0.39590860823975171     
          12   1.9804013890790163E-002
          13   3.1162950173337211E-002
          14  0.37749358432823038     
          15 -0.23432325077585930     
          16   1.2823006281080240E-002
          17  0.90725888088869533     
Sym=    16a
Ene=   0.45207252038820850     
Spin= Alpha
Occup=     0.00000000
           1 -0.12942338523666924     
           2 -0.15586539890443507     
           3 -0.20193224893199480     
           4   9.4940712585482711E-003
           5 -0.14707018144299588     
           6  0.17056244895558040     
           7  0.35971150357822806     
           8  -1.6920914069587723E-002
           9 -0.71203285616860046     
          10  -1.6540624415934773E-002
          11  0.83961253959746862     
          12  -4.0905506234696867E-002
          13  0.83038627568055479     
          14  0.32668342323376615     
          15  0.85355058731992428     
          16  -4.0331319284056429E-002
          17  0.21774804734459277     
Sym=    17a
Ene=   0.77476459338752135     
Spin= Alpha
Occup=     0.00000000
           1  0.62561575076929732     
           2  -1.0208501726161452     
           3   3.9712013542566101E-002
           4  -4.8657211041149969E-003
           5 -0.35276006714860525     
           6  -1.2718554862687719     
           7  0.24363197033882281     
           8  -1.6125697666755485E-002
           9 -0.27608282476881790     
          10 -0.27613966550496066     
          11  0.15228992992382481     
          12  -8.4642713413166093E-003
          13 -0.25525486671323899     
          14 -0.26495802751176084     
          15  -9.7281892283018645E-002
          16   3.7159853547812935E-003
          17  0.31940178551929232     
