 Entering Gaussian System
 *********************************************
 Gaussian 98:
 frequency output generated by the xtb code
 *********************************************
                         Standard orientation:
 --------------------------------------------------------------------
  Center     Atomic     Atomic              Coordinates (Angstroms)
  Number     Number      Type              X           Y           Z
 --------------------------------------------------------------------
    1          6             0        1.110072   -0.325956    0.019861
    2          6             0       -0.179014   -0.089726    0.004293
    3          6             0       -1.395435    0.737199   -0.040371
    4          6             0       -1.516291   -0.613650    0.024915
    5          1             0        1.980668    0.292133   -0.008698
 --------------------------------------------------------------------
     1 basis functions        1 primitive gaussians
     1 alpha electrons        1 beta electrons

 Harmonic frequencies (cm**-1), IR intensities (KM/Mole),
 Raman scattering activities (A**4/amu), Raman depolarization ratios,
 reduced masses (AMU), force constants (mDyne/A) and normal coordinates:
                      1                      2                      3
                        a                      a                      a 
 Frequencies --   340.2006               352.6260               624.4865
 Red. masses --    10.2655                10.6547                11.7717
 Frc consts  --     0.0000                 0.0000                 0.0000
 IR Inten    --     0.2303                 0.2618                 0.8676
 Raman Activ --     0.0000                 0.0000                 0.0000
 Depolar     --     0.0000                 0.0000                 0.0000
 Atom AN      X      Y      Z        X      Y      Z        X      Y      Z
   1   6    -0.10  -0.35   0.02     0.00  -0.02  -0.28    -0.10   0.13  -0.02
   2   6     0.09   0.66  -0.04    -0.00   0.04   0.83    -0.03   0.45  -0.02
   3   6    -0.36  -0.08   0.00    -0.00  -0.01  -0.20     0.59  -0.32   0.01
   4   6     0.33  -0.13   0.01     0.00  -0.01  -0.26    -0.49  -0.22   0.01
   5   1     0.16  -0.37   0.02     0.00  -0.02  -0.35     0.08  -0.12   0.03
                      4                      5                      6
                        a                      a                      a 
 Frequencies --   658.5335               752.4195               910.3348
 Red. masses --     4.0210                 3.9634                11.7555
 Frc consts  --     0.0000                 0.0000                 0.0000
 IR Inten    --     0.1710                 0.6526                 0.3693
 Raman Activ --     0.0000                 0.0000                 0.0000
 Depolar     --     0.0000                 0.0000                 0.0000
 Atom AN      X      Y      Z        X      Y      Z        X      Y      Z
   1   6    -0.00   0.03   0.43    -0.02   0.41  -0.03     0.59  -0.09   0.01
   2   6    -0.00  -0.00  -0.22    -0.05  -0.29   0.02     0.31   0.05  -0.00
   3   6     0.01   0.00   0.16    -0.06   0.08  -0.01    -0.39  -0.19   0.01
   4   6    -0.01  -0.01  -0.13    -0.02  -0.01   0.00    -0.54   0.21  -0.01
   5   1     0.01  -0.05  -0.85     0.52  -0.68   0.04     0.15   0.02  -0.00
                      7                      8                      9
                        a                      a                      a 
 Frequencies --  1487.3549              1748.6934              3145.9334
 Red. masses --    11.9219                11.8103                 1.9452
 Frc consts  --     0.0000                 0.0000                 0.0000
 IR Inten    --     0.7095                 0.2682                 0.1221
 Raman Activ --     0.0000                 0.0000                 0.0000
 Depolar     --     0.0000                 0.0000                 0.0000
 Atom AN      X      Y      Z        X      Y      Z        X      Y      Z
   1   6    -0.38   0.09  -0.01    -0.41   0.07  -0.00     0.25   0.14  -0.01
   2   6     0.26  -0.08   0.00     0.76  -0.07   0.01    -0.02   0.01  -0.00
   3   6     0.00  -0.61   0.03    -0.10   0.29  -0.01    -0.00  -0.00   0.00
   4   6     0.14   0.61  -0.03    -0.21  -0.28   0.01     0.00   0.00  -0.00
   5   1    -0.07  -0.06   0.00    -0.13  -0.01   0.00    -0.80  -0.53   0.02
