5
 energy: -8.537932196875 gnorm: 0.239236955016 xtb: 6.2.2 (9d81278992624c895f80dd42a50cac0aa55982e2)
C         1.00446500000000   -0.35824700000000   -0.27879400000000
C        -0.21637800000000   -0.07852100000000    0.57246400000000
C        -1.17767400000000    0.79295500000000   -0.20819000000000
C        -1.43150800000000   -0.69487500000000   -0.08745900000000
H         1.82109500000000    0.33868800000000    0.00197900000000
5
 energy: -8.600938055766 gnorm: 0.149848058541 xtb: 6.2.2 (9d81278992624c895f80dd42a50cac0aa55982e2)
C         1.04318028427383   -0.39778657306978   -0.14837516001722
C        -0.18126456318355   -0.08405120022964    0.45209724848031
C        -1.25064294183169    0.76413002063441   -0.14753509723088
C        -1.45133680555974   -0.63821852185002   -0.10880212544027
H         1.84006402630116    0.35592627451502   -0.04738486579194
5
 energy: -8.620707969755 gnorm: 0.189091251513 xtb: 6.2.2 (9d81278992624c895f80dd42a50cac0aa55982e2)
C         1.05536109097892   -0.34184367854441   -0.05439336465259
C        -0.12694010166749   -0.11803722919358    0.27940158441332
C        -1.30746049895182    0.69215536570610   -0.11896929876337
C        -1.50431737181349   -0.56393899636635   -0.06416060156958
H         1.88335688145388    0.33166453839824   -0.04187831942778
5
 energy: -8.636090219103 gnorm: 0.066126461629 xtb: 6.2.2 (9d81278992624c895f80dd42a50cac0aa55982e2)
C         1.14791437187033   -0.39692165728769    0.04847794895716
C        -0.17753983072259   -0.12366192053223    0.21549878843281
C        -1.37466380555325    0.73999404795225   -0.06551745743624
C        -1.54132637334407   -0.57972592225740   -0.08773511042336
H         1.94561563774958    0.36031545212506   -0.11072416953037
5
 energy: -8.639957682892 gnorm: 0.065651940011 xtb: 6.2.2 (9d81278992624c895f80dd42a50cac0aa55982e2)
C         1.11819509006595   -0.32529287132550   -0.02020498331952
C        -0.16954249963287   -0.06468451902000    0.16536657174345
C        -1.42166063737984    0.74794949196002   -0.07150178728686
C        -1.50447947285812   -0.62905833813808   -0.03956178267252
H         1.97748751980488    0.27108623652356   -0.03409801846454
5
 energy: -8.642532799018 gnorm: 0.035205350082 xtb: 6.2.2 (9d81278992624c895f80dd42a50cac0aa55982e2)
C         1.08277808522554   -0.32261370800736    0.03910435128615
C        -0.18452820023832   -0.08922034904111    0.15080242397210
C        -1.37437037050280    0.74678577415320   -0.05903834478809
C        -1.48388593175904   -0.62286031090662   -0.05362711346375
H         1.96000641727462    0.28790859380187   -0.07724131700640
5
 energy: -8.644694053389 gnorm: 0.020231396240 xtb: 6.2.2 (9d81278992624c895f80dd42a50cac0aa55982e2)
C         1.12048424280541   -0.30847073837778    0.05890592310923
C        -0.18105468786244   -0.10761398538961    0.06416686691153
C        -1.39969791063206    0.73209939384382   -0.04818640907638
C        -1.53513704151343   -0.60557256856122   -0.01473425562359
H         1.99540539720252    0.28955789848479   -0.06015212532079
5
 energy: -8.645214919238 gnorm: 0.012133281485 xtb: 6.2.2 (9d81278992624c895f80dd42a50cac0aa55982e2)
C         1.11447508753737   -0.31833587677375    0.05167796284289
C        -0.17665416087800   -0.09879363258204    0.05603205845364
C        -1.39575171452495    0.73975067070437   -0.04473838787440
C        -1.51947529656934   -0.61197259719332   -0.01160762666250
H         1.97740608443491    0.28935143584474   -0.05136400675963
5
 energy: -8.645430316465 gnorm: 0.009129043390 xtb: 6.2.2 (9d81278992624c895f80dd42a50cac0aa55982e2)
C         1.11016531879783   -0.31676621851387    0.04546949363328
C        -0.17849119647271   -0.09373614234829    0.03819680670751
C        -1.39736864027343    0.74022675745913   -0.04188398004624
C        -1.51519609894661   -0.61554718780389   -0.00154492114773
H         1.98089061689493    0.28582279120691   -0.04023739914681
5
 energy: -8.645616804367 gnorm: 0.006214211423 xtb: 6.2.2 (9d81278992624c895f80dd42a50cac0aa55982e2)
C         1.10781429978104   -0.31820317723146    0.03018507020847
C        -0.17922594164409   -0.09094674574449    0.00957287096013
C        -1.39440995688441    0.73821079627315   -0.04011322567140
C        -1.51597749856330   -0.61633460712774    0.01868599137418
H         1.98179909731076    0.28727373383054   -0.01833070687137
5
 energy: -8.645658096599 gnorm: 0.001911235016 xtb: 6.2.2 (9d81278992624c895f80dd42a50cac0aa55982e2)
C         1.10831141140835   -0.32272759500053    0.02348774785508
C        -0.17971277336971   -0.08839936723762    0.00154238783612
C        -1.39611246402529    0.73727559196755   -0.03883619093927
C        -1.51474733319420   -0.61525940300051    0.02427262760241
H         1.98226115918085    0.28911077327111   -0.01046657235433
5
 energy: -8.645665337051 gnorm: 0.001334234267 xtb: 6.2.2 (9d81278992624c895f80dd42a50cac0aa55982e2)
C         1.10980800740949   -0.32664955406871    0.01783324536327
C        -0.17881332264785   -0.09003087176636    0.00274171842214
C        -1.39344271123917    0.73655321582078   -0.04062935301213
C        -1.51678950659862   -0.61317246873070    0.02668203431180
H         1.97923753307615    0.29329967874499   -0.00662764508508
5
 energy: -8.645667183541 gnorm: 0.000506025538 xtb: 6.2.2 (9d81278992624c895f80dd42a50cac0aa55982e2)
C         1.11007363042978   -0.32594996437326    0.01986414219376
C        -0.17901373749686   -0.08972711672122    0.00429265922662
C        -1.39543873635053    0.73719150913821   -0.04037465929223
C        -1.51628796399438   -0.61365752071228    0.02490868812694
H         1.98066680741198    0.29214309266856   -0.00869083025508
