4
 energy: -9.985902926675 gnorm: 0.314963735058 xtb: 6.2.2 (9d81278992624c895f80dd42a50cac0aa55982e2)
C        -1.66307900000000   -0.18281600000000   -0.50409700000000
O        -0.61166200000000   -0.06728600000000    0.40403900000000
C         0.52605500000000    0.05787300000000   -0.39172700000000
C         1.74868600000000    0.19222800000000    0.49178500000000
4
 energy: -10.071978256659 gnorm: 0.208293335118 xtb: 6.2.2 (9d81278992624c895f80dd42a50cac0aa55982e2)
C        -1.68019970716738   -0.18470201979172   -0.46128906959169
O        -0.62819993602885   -0.06909677916840    0.31267828441445
C         0.60381471693353    0.06641465127694   -0.29374749120403
C         1.70458492626270    0.18738314768317    0.44235827638127
4
 energy: -10.056655264178 gnorm: 0.568454591955 xtb: 6.2.2 (9d81278992624c895f80dd42a50cac0aa55982e2)
C        -1.65399385565800   -0.18182404386912   -0.41740136240452
O        -0.68174256105496   -0.07497474342316    0.20049147597189
C         0.68274378172048    0.07507864289106   -0.12509486735617
C         1.65299263499248    0.18171914440122    0.34200475378880
4
 energy: -10.105054292694 gnorm: 0.081401927213 xtb: 6.2.2 (9d81278992624c895f80dd42a50cac0aa55982e2)
C        -1.69763345619064   -0.18661951518266   -0.44962929903735
O        -0.70844546374273   -0.07791145273473    0.20871603115194
C         0.62550393263029    0.06878538661128   -0.12986631945437
C         1.78057498730308    0.19574458130611    0.37077958733979
4
 energy: -10.107804374024 gnorm: 0.052406732833 xtb: 6.2.2 (9d81278992624c895f80dd42a50cac0aa55982e2)
C        -1.73225819493908   -0.19042877066683   -0.41916140094849
O        -0.65907362199644   -0.07248086880336    0.17916787759014
C         0.64642471329066    0.07108854408160   -0.16738507600925
C         1.74490710364486    0.19182009538859    0.40737859936760
4
 energy: -10.109879819176 gnorm: 0.024824798700 xtb: 6.2.2 (9d81278992624c895f80dd42a50cac0aa55982e2)
C        -1.73142117614076   -0.19033775865290   -0.41246132400990
O        -0.66164124466639   -0.07276075304374    0.15501508582777
C         0.64595333159732    0.07103486064363   -0.13929670945564
C         1.74710908920983    0.19206265105302    0.39674294763777
4
 energy: -10.110567169535 gnorm: 0.018061026925 xtb: 6.2.2 (9d81278992624c895f80dd42a50cac0aa55982e2)
C        -1.72515582561930   -0.18964854573198   -0.40526266198022
O        -0.65253862319835   -0.07175931720161    0.13763409097339
C         0.63660428528821    0.07000493346487   -0.12682906622434
C         1.74109016352943    0.19140192946872    0.39445763723116
4
 energy: -10.110780128755 gnorm: 0.009164556081 xtb: 6.2.2 (9d81278992624c895f80dd42a50cac0aa55982e2)
C        -1.73210367708892   -0.19041300883117   -0.40150501733189
O        -0.64850270480683   -0.07131414544407    0.12299238193322
C         0.63424281033247    0.06974464195357   -0.11612442011873
C         1.74636357156328    0.19198151232167    0.39463705551739
4
 energy: -10.110810678946 gnorm: 0.001470027671 xtb: 6.2.2 (9d81278992624c895f80dd42a50cac0aa55982e2)
C        -1.73424861912512   -0.19064923097335   -0.40140282938743
O        -0.64715936157370   -0.07116582862910    0.11968938373797
C         0.63233175978474    0.06953465601158   -0.11306469754442
C         1.74907622091408    0.19227940359086    0.39477814319388
4
 energy: -10.110811790985 gnorm: 0.000550073661 xtb: 6.2.2 (9d81278992624c895f80dd42a50cac0aa55982e2)
C        -1.73460326447685   -0.19068792795603   -0.40218567262594
O        -0.64742089796479   -0.07119486602049    0.12055338695195
C         0.63221859638904    0.06952196152363   -0.11293758315658
C         1.74980556605260    0.19235983245289    0.39456986883056
