5
 energy: -3.587172858189 gnorm: 0.417580759507 xtb: 6.2.2 (9d81278992624c895f80dd42a50cac0aa55982e2)
C         0.00000000000000    0.00000000000000    0.00000000000000
H        -0.68864300000000    0.86939500000000   -0.02633500000000
H        -0.44219800000000   -0.83956100000000   -0.57477700000000
H         0.15807600000000   -0.31481000000000    1.05198700000000
H         0.97276500000000    0.28497600000000   -0.45087500000000
5
 energy: -3.741452811918 gnorm: 0.109105000604 xtb: 6.2.2 (9d81278992624c895f80dd42a50cac0aa55982e2)
C        -0.00000030120682   -0.00000014430370    0.00000026119772
H        -0.79416326269798    1.00261099933751   -0.03036978193319
H        -0.50995570968058   -0.96820591688731   -0.66284890777850
H         0.18229713659216   -0.36304777108831    1.21318105362104
H         1.12182213699323    0.32864283294181   -0.51996262510706
5
 energy: -3.758823551500 gnorm: 0.054160045342 xtb: 6.2.2 (9d81278992624c895f80dd42a50cac0aa55982e2)
C         0.00000042931442   -0.00000021846218    0.00000058402943
H        -0.82973534336177    1.04751570796587   -0.03172802129919
H        -0.53279805309852   -1.01157129325746   -0.69253561796388
H         0.19045884289504   -0.37930813810239    1.26751735087379
H         1.17207412425083    0.34336394185616   -0.54325429564014
5
 energy: -3.765821673666 gnorm: 0.016251030667 xtb: 6.2.2 (9d81278992624c895f80dd42a50cac0aa55982e2)
C         0.00000215640104    0.00000037380944   -0.00000037796374
H        -0.86333658255813    1.08991943567026   -0.03300240370081
H        -0.55437557772915   -1.05252736297281   -0.72056472882659
H         0.19815633275925   -0.39466286693522    1.31882636280739
H         1.21955367112699    0.35727042042833   -0.56525885231625
5
 energy: -3.766646134479 gnorm: 0.002989077052 xtb: 6.2.2 (9d81278992624c895f80dd42a50cac0aa55982e2)
C         0.00000596484679    0.00000186231248   -0.00000290102428
H        -0.87764303048698    1.10794045538785   -0.03352307070380
H        -0.56356405096095   -1.06994785039264   -0.73246737841220
H         0.20140269759935   -0.40118802903083    1.34063092520941
H         1.23979841900180    0.36319356172314   -0.57463757506914
5
 energy: -3.766677492575 gnorm: 0.000321167882 xtb: 6.2.2 (9d81278992624c895f80dd42a50cac0aa55982e2)
C         0.00001345773224    0.00000541748439   -0.00000960575053
H        -0.88088904191106    1.11195657138353   -0.03359057657739
H        -0.56565017665700   -1.07386282006478   -0.73509990039351
H         0.20207034854298   -0.40263967519121    1.34548728030749
H         1.24445541229283    0.36454050638807   -0.57678719758607
5
 energy: -3.766677862617 gnorm: 0.000614305795 xtb: 6.2.2 (9d81278992624c895f80dd42a50cac0aa55982e2)
C         0.00003459241938    0.00001541223690   -0.00002844450965
H        -0.88136331656383    1.11232159030234   -0.03344058062917
H        -0.56595390124438   -1.07431976368610   -0.73528122359174
H         0.20195430577154   -0.40275942880169    1.34592213395163
H         1.24532831961728    0.36474218994856   -0.57717188522107
