      -----------------------------------------------------------      
     |                   =====================                   |     
     |                           x T B                           |     
     |                   =====================                   |     
     |                         S. Grimme                         |     
     |          Mulliken Center for Theoretical Chemistry        |     
     |                    University of Bonn                     |     
      -----------------------------------------------------------      

   * xtb version 6.2.2 (9d81278992624c895f80dd42a50cac0aa55982e2) compiled by '@Darwin' on 04/03/2020

   xtb is free software: you can redistribute it and/or modify it under
   the terms of the GNU Lesser General Public License as published by
   the Free Software Foundation, either version 3 of the License, or
   (at your option) any later version.
   
   xtb is distributed in the hope that it will be useful,
   but WITHOUT ANY WARRANTY; without even the implied warranty of
   MERCHANTABILITY or FITNESS FOR A PARTICULAR PURPOSE.  See the
   GNU Lesser General Public License for more details.
   
   Cite this work as:
   * S. Grimme, C. Bannwarth, P. Shushkov, J. Chem. Theory Comput., 2017,
     13, 1989-2009. DOI: 10.1021/acs.jctc.7b00118
   * C. Bannwarth, S. Ehlert and S. Grimme., J. Chem. Theory Comput., 2019,
     15, 1652-1671. DOI: 10.1021/acs.jctc.8b01176
   * P. Pracht, E. Caldeweyher, S. Ehlert, S. Grimme, ChemRxiv, 2019, preprint.
     DOI: 10.26434/chemrxiv.8326202.v1
   
   for DFT-D4:
   * E. Caldeweyher, C. Bannwarth and S. Grimme, J. Chem. Phys., 2017,
     147, 034112. DOI: 10.1063/1.4993215
   * E. Caldeweyher, S. Ehlert, A. Hansen, H. Neugebauer, S. Spicher,
     C. Bannwarth and S. Grimme, J. Chem. Phys., 2019, 150, 154122.
     DOI: 10.1063/1.5090222
   
   for sTDA-xTB:
   * S. Grimme and C. Bannwarth, J. Chem. Phys., 2016, 145, 054103.
     DOI: 10.1063/1.4959605
   
   in the mass-spec context:
   * V. Asgeirsson, C. Bauer and S. Grimme, Chem. Sci., 2017, 8, 4879.
     DOI: 10.1039/c7sc00601b
   
   for metadynamics refer to:
   * S. Grimme, J. Chem. Theory Comput., 2019, 155, 2847-2862
     DOI: 10.1021/acs.jctc.9b00143
   
   with help from (in alphabetical order)
   C. Bannwarth, F. Bohle, G. Brandenburg, E. Caldeweyher, M. Checinski,
   S. Dohm, S. Ehlert, S. Ehrlich, F. März, H. Neugebauer, J. Pisarek,
   P. Pracht, P. Shushkov, and S. Spicher.
   
 * started run on 2020/05/12 at 11:45:15.971     

           -------------------------------------------------
          |                Calculation Setup                |
           -------------------------------------------------

          program call               : xtb --input H4C1_0_S_2.input H4C1_0_S_2.xyz --ohess --molden --namespace H4C1_0_S_2 output.out
          calculation namespace      : H4C1_0_S_2
          coordinate file            : H4C1_0_S_2.xyz
          number of atoms            :                     5
          number of electrons        :                     8
          charge                     :                     0
          spin                       :                   1.0
          first test random number   :      0.79742967014398

   ID    Z sym.   atoms
    1    6 C      1
    2    1 H      2-5

           -------------------------------------------------
          |                 G F N 2 - x T B                 |
           -------------------------------------------------

        Reference                      10.1021/acs.jctc.8b01176
      * Hamiltonian:
        H0-scaling (s, p, d)           1.850000    2.230000    2.230000
        zeta-weighting                 0.500000
      * Dispersion:
        s8                             2.700000
        a1                             0.520000
        a2                             5.000000
        s9                             5.000000
      * Repulsion:
        kExp                           1.500000    1.000000
        rExp                           1.000000
      * Coulomb:
        alpha                          2.000000
        third order                    shell-resolved
        anisotropic                    true
        a3                             3.000000
        a5                             4.000000
        cn-shift                       1.200000
        cn-exp                         4.000000
        max-rad                        5.000000


          ...................................................
          :                      SETUP                      :
          :.................................................:
          :  # basis functions                   8          :
          :  # atomic orbitals                   8          :
          :  # shells                            6          :
          :  # electrons                         8          :
          :  max. iterations                   250          :
          :  Hamiltonian                  GFN2-xTB          :
          :  restarted?                      false          :
          :  GBSA solvation                  false          :
          :  PC potential                    false          :
          :  electronic temp.          300.0000000     K    :
          :  accuracy                    1.0000000          :
          :  -> integral cutoff          0.2500000E+02      :
          :  -> integral neglect         0.1000000E-07      :
          :  -> SCF convergence          0.1000000E-05 Eh   :
          :  -> wf. convergence          0.1000000E-03 e    :
          :  Broyden damping             0.4000000          :
          ...................................................

 iter      E             dE          RMSdq      gap      omega  full diag
   1     -3.6282975 -0.362830E+01  0.456E+00    1.74       0.0  T
   2     -3.6441086 -0.158112E-01  0.218E+00    1.86       1.0  T
   3     -3.6453928 -0.128413E-02  0.700E-01    2.01       1.0  T
   4     -3.6456091 -0.216299E-03  0.250E-01    2.25       1.0  T
   5     -3.6457320 -0.122910E-03  0.102E-01    2.23       1.0  T
   6     -3.6457549 -0.229559E-04  0.527E-02    2.25       1.0  T
   7     -3.6457585 -0.357242E-05  0.376E-02    2.25       1.2  T
   8     -3.6457630 -0.449674E-05  0.146E-03    2.24      30.7  T
   9     -3.6457630 -0.614971E-08  0.223E-04    2.24     200.7  T
  10     -3.6457630 -0.407065E-10  0.190E-04    2.24     235.6  T

   *** convergence criteria satisfied after 10 iterations ***

         #    Occupation            Energy/Eh            Energy/eV
      -------------------------------------------------------------
         1        2.0000           -0.6308876             -17.1673
         2        1.6667           -0.4884815             -13.2923
         3        1.6667           -0.4884815             -13.2923
         4        1.6667           -0.4884814             -13.2923
         5        1.0000            0.0945878               2.5739 (HOMO)
         6                          0.1770828               4.8187 (LUMO)
         7                          0.1770831               4.8187
         8                          0.1770832               4.8187
      -------------------------------------------------------------
                  HL-Gap            0.0824950 Eh            2.2448 eV
             Fermi-level           -0.1759938 Eh           -4.7890 eV

 transition dipole moment (au) for excitation:           4           5
     X       Y       Z   
   0.5486   0.2171  -0.1453  total (au/Debye):    0.608   1.544
 dE (eV)             :   15.866
 oscillator strength :  0.20296E+00

 SCC (total)                   0 d,  0 h,  0 min,  0.002 sec
 SCC setup                      ...        0 min,  0.000 sec (  5.511%)
 Dispersion                     ...        0 min,  0.000 sec (  0.829%)
 integral evaluation            ...        0 min,  0.000 sec ( 15.398%)
 zeroth order Hamiltonian       ...        0 min,  0.000 sec (  0.783%)
 iterations                     ...        0 min,  0.001 sec ( 44.351%)
 molecular gradient             ...        0 min,  0.000 sec ( 16.534%)
 printout                       ...        0 min,  0.000 sec ( 15.981%)

         :::::::::::::::::::::::::::::::::::::::::::::::::::::
         ::                     SUMMARY                     ::
         :::::::::::::::::::::::::::::::::::::::::::::::::::::
         :: total energy              -3.587172848086 Eh    ::
         :: gradient norm              0.417581567567 Eh/a0 ::
         :: HOMO-LUMO gap              2.244804453417 eV    ::
         ::.................................................::
         :: SCC energy                -3.645763005181 Eh    ::
         :: -> isotropic ES           -0.005898428773 Eh    ::
         :: -> anisotropic ES         -0.000476760048 Eh    ::
         :: -> anisotropic XC          0.000186983081 Eh    ::
         :: -> dispersion             -0.000642114094 Eh    ::
         :: repulsion energy           0.058590140466 Eh    ::
         :: add. restraining           0.000000000000 Eh    ::
         :::::::::::::::::::::::::::::::::::::::::::::::::::::

      ----------------------------------------------------------- 
     |                   =====================                   |
     |                        A N C O P T                        |
     |                   =====================                   |
     |               Approximate Normal Coordinate               |
     |                Rational Function Optimizer                |
      ----------------------------------------------------------- 

          ...................................................
          :                      SETUP                      :
          :.................................................:
          :   optimization level            normal          :
          :   max. optcycles                   200          :
          :   ANC micro-cycles                  20          :
          :   degrees of freedom                 9          :
          :.................................................:
          :   RF solver                   davidson          :
          :   write xtbopt.log                true          :
          :   linear?                        false          :
          :   energy convergence         0.5000000E-05 Eh   :
          :   grad. convergence          0.1000000E-02 Eh/α :
          :   maximium RF displ.         1.0000000          :
          :   Hlow (freq-cutoff)         0.1000000E-01      :
          :   Hmax (freq-cutoff)         5.0000000          :
          :   S6 in model hess.         20.0000000          :
          ...................................................

generating ANC from model Hessian ...
Using Lindh-Hessian (1995)
 Shifting diagonal of input Hessian by    0.0000000000000000     
 Lowest  eigenvalues of input Hessian
   -0.000000   -0.000000   -0.000000    0.000000    0.000000    0.000000
    0.085547    0.085547    0.107547    0.107547    0.107547    0.381667
    1.041092    1.041093    1.041093
 Highest eigenvalues
    0.107547    0.107547    0.381667    1.041092    1.041093    1.041093


........................................................................
.............................. CYCLE    1 ..............................
........................................................................
   1     -3.6457630 -0.364576E+01  0.771E-06    2.24       0.0  T
   2     -3.6457630 -0.710543E-14  0.576E-06    2.24    7767.6  T
   3     -3.6457630  0.177636E-14  0.570E-06    2.24    7849.5  T
     SCC iter.                  ...        0 min,  0.000 sec
     gradient                   ...        0 min,  0.000 sec
 * total energy  :    -3.5871729 Eh     change       -0.1010320E-07 Eh
   gradient norm :     0.4175808 Eh/α   predicted     0.0000000E+00 (-100.00%)
   displ. norm   :     0.6424779 α      lambda       -0.2682864E+00
   maximum displ.:     0.6424779 α      in ANC's #6, #5, #7, ...

........................................................................
.............................. CYCLE    2 ..............................
........................................................................
   1     -3.7550563 -0.375506E+01  0.118E+00    2.59       0.0  T
   2     -3.7565589 -0.150256E-02  0.584E-01    2.52       1.0  T
   3     -3.7566677 -0.108868E-03  0.321E-01    2.58       1.0  T
   4     -3.7567222 -0.544787E-04  0.566E-02    2.60       1.0  T
   5     -3.7567227 -0.490112E-06  0.233E-02    2.63       1.9  T
   6     -3.7567234 -0.691913E-06  0.106E-02    2.63       4.2  T
   7     -3.7567237 -0.335593E-06  0.239E-04    2.62     186.7  T
   8     -3.7567237 -0.219059E-09  0.443E-05    2.62    1009.1  T
     SCC iter.                  ...        0 min,  0.000 sec
     gradient                   ...        0 min,  0.000 sec
 * total energy  :    -3.7414528 Eh     change       -0.1542800E+00 Eh
   gradient norm :     0.1091050 Eh/α   predicted    -0.1895145E+00 (  22.84%)
   displ. norm   :     0.2165794 α      lambda       -0.2362990E-01
   maximum displ.:     0.2165794 α      in ANC's #6, #5, #7, ...

........................................................................
.............................. CYCLE    3 ..............................
........................................................................
   1     -3.7681054 -0.376811E+01  0.374E-01    2.65       0.0  T
   2     -3.7683412 -0.235803E-03  0.169E-01    2.61       1.0  T
   3     -3.7683828 -0.415708E-04  0.109E-01    2.64       1.0  T
   4     -3.7683908 -0.802327E-05  0.206E-02    2.65       2.2  T
   5     -3.7683898  0.993628E-06  0.362E-02    2.65       1.2  T
   6     -3.7683911 -0.122411E-05  0.170E-03    2.65      26.4  T
   7     -3.7683911 -0.104401E-07  0.530E-05    2.65     843.1  T
   8     -3.7683911 -0.218048E-11  0.260E-05    2.65    1721.3  T
     SCC iter.                  ...        0 min,  0.000 sec
     gradient                   ...        0 min,  0.000 sec
 * total energy  :    -3.7588236 Eh     change       -0.1737074E-01 Eh
   gradient norm :     0.0541600 Eh/α   predicted    -0.1236915E-01 ( -28.79%)
   displ. norm   :     0.2045526 α      lambda       -0.1107859E-01
   maximum displ.:     0.2045526 α      in ANC's #6, #5, #3, ...

........................................................................
.............................. CYCLE    4 ..............................
........................................................................
   1     -3.7716337 -0.377163E+01  0.351E-01    2.66       0.0  T
   2     -3.7718480 -0.214246E-03  0.165E-01    2.61       1.0  T
   3     -3.7719233 -0.753904E-04  0.105E-01    2.64       1.0  T
   4     -3.7719328 -0.946056E-05  0.265E-02    2.65       1.7  T
   5     -3.7719325  0.306253E-06  0.311E-02    2.65       1.4  T
   6     -3.7719334 -0.853524E-06  0.203E-03    2.66      22.0  T
   7     -3.7719334 -0.144570E-07  0.191E-04    2.66     233.9  T
   8     -3.7719334 -0.263420E-10  0.110E-04    2.66     407.3  T
     SCC iter.                  ...        0 min,  0.000 sec
     gradient                   ...        0 min,  0.000 sec
 * total energy  :    -3.7658217 Eh     change       -0.6998122E-02 Eh
   gradient norm :     0.0162510 Eh/α   predicted    -0.5771070E-02 ( -17.53%)
   displ. norm   :     0.0870244 α      lambda       -0.1414230E-02
   maximum displ.:     0.0870243 α      in ANC's #6, #5, #3, ...

........................................................................
.............................. CYCLE    5 ..............................
........................................................................
   1     -3.7716277 -0.377163E+01  0.148E-01    2.65       0.0  T
   2     -3.7716661 -0.384577E-04  0.725E-02    2.63       1.0  T
   3     -3.7716852 -0.190662E-04  0.446E-02    2.65       1.0  T
   4     -3.7716857 -0.487221E-06  0.387E-02    2.65       1.2  T
   5     -3.7716871 -0.145503E-05  0.902E-03    2.65       5.0  T
   6     -3.7716872 -0.593225E-07  0.110E-03    2.65      40.6  T
   7     -3.7716872  0.118384E-08  0.175E-03    2.65      25.5  T
   8     -3.7716872 -0.276652E-08  0.298E-04    2.65     150.2  T
   9     -3.7716872 -0.634581E-10  0.734E-05    2.65     609.1  T
     SCC iter.                  ...        0 min,  0.000 sec
     gradient                   ...        0 min,  0.000 sec
 * total energy  :    -3.7666461 Eh     change       -0.8244608E-03 Eh
   gradient norm :     0.0029891 Eh/α   predicted    -0.7124720E-03 ( -13.58%)
   displ. norm   :     0.0195967 α      lambda       -0.5855252E-04
   maximum displ.:     0.0195937 α      in ANC's #6, #5, #3, ...

........................................................................
.............................. CYCLE    6 ..............................
........................................................................
   1     -3.7715008 -0.377150E+01  0.334E-02    2.65       0.0  T
   2     -3.7715027 -0.191369E-05  0.177E-02    2.65       2.5  T
   3     -3.7715037 -0.964719E-06  0.140E-02    2.65       3.2  T
   4     -3.7715035  0.176898E-06  0.198E-02    2.65       2.3  T
   5     -3.7715039 -0.381856E-06  0.308E-03    2.65      14.5  T
   6     -3.7715039 -0.619687E-08  0.115E-03    2.65      39.0  T
   7     -3.7715039  0.318926E-09  0.137E-03    2.65      32.6  T
   8     -3.7715039 -0.139108E-08  0.415E-04    2.65     107.8  T
   9     -3.7715039 -0.125298E-09  0.996E-05    2.65     449.1  T
     SCC iter.                  ...        0 min,  0.000 sec
     gradient                   ...        0 min,  0.000 sec
 * total energy  :    -3.7666775 Eh     change       -0.3135810E-04 Eh
   gradient norm :     0.0003212 Eh/α   predicted    -0.2928736E-04 (  -6.60%)
   displ. norm   :     0.0025932 α      lambda       -0.4422985E-06
   maximum displ.:     0.0024009 α      in ANC's #6, #5, #3, ...

........................................................................
.............................. CYCLE    7 ..............................
........................................................................
   1     -3.7714785 -0.377148E+01  0.105E-02    2.65       0.0  T
   2     -3.7714784  0.127983E-06  0.182E-02    2.65       2.5  T
   3     -3.7714782  0.160419E-06  0.232E-02    2.65       1.9  T
   4     -3.7714785 -0.270706E-06  0.102E-02    2.65       4.4  T
   5     -3.7714786 -0.859745E-07  0.113E-03    2.65      39.5  T
   6     -3.7714786  0.788323E-09  0.141E-03    2.65      31.6  T
   7     -3.7714786 -0.125439E-08  0.738E-04    2.65      60.6  T
   8     -3.7714786 -0.419050E-09  0.571E-05    2.65     783.8  T
     SCC iter.                  ...        0 min,  0.000 sec
     gradient                   ...        0 min,  0.000 sec
 * total energy  :    -3.7666779 Eh     change       -0.3700420E-06 Eh
   gradient norm :     0.0006143 Eh/α   predicted    -0.2216485E-06 ( -40.10%)
   displ. norm   :     0.0053278 α      lambda       -0.7957049E-06
   maximum displ.:     0.0036142 α      in ANC's #5, #6, #3, ...

   *** GEOMETRY OPTIMIZATION CONVERGED AFTER 7 ITERATIONS ***

------------------------------------------------------------------------
 total energy gain   :        -0.1795050 Eh     -112.6411 kcal/mol
 total RMSD          :         0.5244160 a0        0.2775 Å
 total power (kW/mol):       -67.3271930 (step)********** (real)
------------------------------------------------------------------------

 ANCopt (total)                0 d,  0 h,  0 min,  0.006 sec
 optimizer setup                ...        0 min,  0.000 sec (  1.051%)
 model hessian                  ...        0 min,  0.000 sec (  1.764%)
 ANC generation                 ...        0 min,  0.000 sec (  0.912%)
 coordinate transformation      ...        0 min,  0.000 sec (  0.248%)
 single point calculation       ...        0 min,  0.006 sec ( 86.814%)
 optimization log               ...        0 min,  0.000 sec (  2.514%)
 hessian update                 ...        0 min,  0.000 sec (  0.270%)
 rational function              ...        0 min,  0.000 sec (  2.570%)

================
 final structure:
================
5
 xtb: 6.2.2 (9d81278992624c895f80dd42a50cac0aa55982e2)
C         0.00003459241938    0.00001541223690   -0.00002844450965
H        -0.88136331656383    1.11232159030234   -0.03344058062917
H        -0.56595390124438   -1.07431976368610   -0.73528122359174
H         0.20195430577154   -0.40275942880169    1.34592213395163
H         1.24532831961728    0.36474218994856   -0.57717188522107

 Bond Distances (Angstroems)
 ---------------------------


 selected bond angles (degree)
 --------------------


 selected dihedral angles (degree)
 ---------------------------------

           -------------------------------------------------
          |                Final Singlepoint                |
           -------------------------------------------------

          ...................................................
          :                      SETUP                      :
          :.................................................:
          :  # basis functions                   8          :
          :  # atomic orbitals                   8          :
          :  # shells                            6          :
          :  # electrons                         8          :
          :  max. iterations                   250          :
          :  Hamiltonian                  GFN2-xTB          :
          :  restarted?                      false          :
          :  GBSA solvation                  false          :
          :  PC potential                    false          :
          :  electronic temp.          300.0000000     K    :
          :  accuracy                    1.0000000          :
          :  -> integral cutoff          0.2500000E+02      :
          :  -> integral neglect         0.1000000E-07      :
          :  -> SCF convergence          0.1000000E-05 Eh   :
          :  -> wf. convergence          0.1000000E-03 e    :
          :  Broyden damping             0.4000000          :
          ...................................................

 iter      E             dE          RMSdq      gap      omega  full diag
   1     -3.7714786 -0.377148E+01  0.103E-04    2.65       0.0  T
   2     -3.7714786  0.545621E-10  0.228E-04    2.65     196.4  T
   3     -3.7714786 -0.520606E-10  0.101E-04    2.65     444.5  T

   *** convergence criteria satisfied after 3 iterations ***

         #    Occupation            Energy/Eh            Energy/eV
      -------------------------------------------------------------
         1        2.0000           -0.5960726             -16.2200
         2        1.6680           -0.4615017             -12.5581
         3        1.6670           -0.4614976             -12.5580
         4        1.6650           -0.4614891             -12.5578
         5        1.0000           -0.2112761              -5.7491 (HOMO)
         6                         -0.1139540              -3.1008 (LUMO)
         7                         -0.1137840              -3.0962
         8                         -0.1137321              -3.0948
      -------------------------------------------------------------
                  HL-Gap            0.0973221 Eh            2.6483 eV
             Fermi-level           -0.3117263 Eh           -8.4825 eV

 transition dipole moment (au) for excitation:           4           5
     X       Y       Z   
   0.7913   0.3227  -0.1708  total (au/Debye):    0.871   2.215
 dE (eV)             :    6.809
 oscillator strength :  0.17916E+00

 SCC (total)                   0 d,  0 h,  0 min,  0.001 sec
 SCC setup                      ...        0 min,  0.000 sec (  3.841%)
 Dispersion                     ...        0 min,  0.000 sec (  0.475%)
 integral evaluation            ...        0 min,  0.000 sec ( 19.600%)
 zeroth order Hamiltonian       ...        0 min,  0.000 sec (  1.227%)
 iterations                     ...        0 min,  0.000 sec ( 36.725%)
 molecular gradient             ...        0 min,  0.000 sec ( 18.887%)
 printout                       ...        0 min,  0.000 sec ( 18.333%)

         :::::::::::::::::::::::::::::::::::::::::::::::::::::
         ::                     SUMMARY                     ::
         :::::::::::::::::::::::::::::::::::::::::::::::::::::
         :: total energy              -3.766677862992 Eh    ::
         :: gradient norm              0.000612847854 Eh/a0 ::
         :: HOMO-LUMO gap              2.648270262659 eV    ::
         ::.................................................::
         :: SCC energy                -3.771478594633 Eh    ::
         :: -> isotropic ES           -0.012910415143 Eh    ::
         :: -> anisotropic ES          0.001933800846 Eh    ::
         :: -> anisotropic XC          0.003197349956 Eh    ::
         :: -> dispersion             -0.001017652275 Eh    ::
         :: repulsion energy           0.004800656052 Eh    ::
         :: add. restraining           0.000000000000 Eh    ::
         :::::::::::::::::::::::::::::::::::::::::::::::::::::

           ------------------------------------------------- 
          |                Numerical Hessian                |
           ------------------------------------------------- 
step length          :   0.00500
SCC accuracy         :   0.30000
Hessian scale factor :   1.00000
frozen atoms in %    :   0.00000    0
RMS gradient         :   0.00061
estimated CPU  time      0.00 min
estimated wall time      0.00 min

writing file <hessian>.

 projected vibrational frequencies (cm-1)
eigval :       -0.00    -0.00    -0.00    -0.00     0.00     0.00
eigval :    -3111.54 -3104.19 -3102.34 -1690.39 -1689.96   294.91
eigval :      304.34   309.00  1910.57
           -------------------------------------------------
          |                Property Printout                |
           -------------------------------------------------

    * Orbital Energies and Occupations

         #    Occupation            Energy/Eh            Energy/eV
      -------------------------------------------------------------
         1        2.0000           -0.5960727             -16.2200
         2        1.6680           -0.4615017             -12.5581
         3        1.6670           -0.4614977             -12.5580
         4        1.6650           -0.4614890             -12.5578
         5        1.0000           -0.2112762              -5.7491 (HOMO)
         6                         -0.1139539              -3.1008 (LUMO)
         7                         -0.1137840              -3.0962
         8                         -0.1137321              -3.0948
      -------------------------------------------------------------
                  HL-Gap            0.0973222 Eh            2.6483 eV
             Fermi-level           -0.3117263 Eh           -8.4825 eV

     #   Z        covCN         q      C6AA      α(0)
     1   6 C      1.938    -0.160    35.658     9.643
     2   1 H      0.485     0.040     3.915     3.406
     3   1 H      0.485     0.040     3.914     3.406
     4   1 H      0.485     0.040     3.906     3.401
     5   1 H      0.483     0.040     3.938     3.419

 Mol. C6AA /au·bohr⁶  :        192.539929
 Mol. C8AA /au·bohr⁸  :       3550.293064
 Mol. α(0) /au        :         23.275117


Wiberg/Mayer (AO) data.
largest (>0.10) Wiberg bond orders for each atom
          total WBO             WBO to atom ...
     1  C   2.290        H    4 0.574    H    3 0.573    H    2 0.573    H    5 0.570
     2  H   0.610        C    1 0.573
     3  H   0.610        C    1 0.573
     4  H   0.610        C    1 0.574
     5  H   0.608        C    1 0.570

MOs/occ written to file <molden.input>


molecular dipole:
                 x           y           z       tot (Debye)
 q only:       -0.001      -0.000       0.000
   full:       -0.001      -0.001       0.001       0.004
molecular quadrupole (traceless):
                xx          xy          yy          xz          yz          zz
 q only:       -0.001      -0.000       0.000       0.001       0.000       0.001
  q+dip:       -0.003      -0.001       0.001       0.002      -0.000       0.002
   full:       -0.001      -0.000       0.001       0.001      -0.000       0.000

           -------------------------------------------------
          |                Geometry Summary                 |
           -------------------------------------------------

      molecular mass/u    :       16.0424989
   center of mass at/Å    :        0.0000237       0.0000106      -0.0000195
  moments of inertia/u·Å² :        0.5415042E+01   0.5417756E+01   0.5418831E+01
rotational constants/cm⁻¹ :        0.3113112E+01   0.3111552E+01   0.3110935E+01
Molecule has the following symmetry elements: 4*(C3) 3*(C2) 3*(S4) 6*(sigma) 
It seems to be the Td point group

           -------------------------------------------------
          |               Frequency Printout                |
           -------------------------------------------------
 projected vibrational frequencies (cm-1)
eigval :       -0.00    -0.00    -0.00    -0.00     0.00     0.00
eigval :    -3111.54 -3104.19 -3102.34 -1690.39 -1689.96   294.91
eigval :      304.34   309.00  1910.57
 reduced masses (amu)
   1:  2.76   2:  5.10   3:  4.25   4:  7.85   5:  6.59   6:  4.19   7:  1.75   8:  1.74
   9:  1.74  10:  1.01  11:  1.01  12:  3.04  13:  3.04  14:  3.04  15:  1.01
 IR intensities (amu)
   1:  0.01   2:  0.01   3:  0.02   4:  0.03   5:  0.02   6:  0.01   7:  0.95   8:  0.94
   9:  0.93  10:  0.02  11:  0.03  12:  0.63  13:  0.62  14:  0.61  15:  0.00
 Raman intensities (amu)
   1:  0.00   2:  0.00   3:  0.00   4:  0.00   5:  0.00   6:  0.00   7:  0.00   8:  0.00
   9:  0.00  10:  0.00  11:  0.00  12:  0.00  13:  0.00  14:  0.00  15:  0.00
 output can be read by thermo (or use thermo option).
 writing <g98.out> molden fake output.
 recommended (thermochemical) frequency scaling factor: 1.0
           -------------------------------------------------
          |             Thermodynamic Functions             |
           -------------------------------------------------

td  symmetry found (for desy threshold:  0.10E+00) used in thermo

          ...................................................
          :                      SETUP                      :
          :.................................................:
          :  # frequencies                           4      :
          :  # imaginary freq.                       5      :
          :  linear?                             false      :
          :  only rotor calc.                    false      :
          :  symmetry                               td      :
          :  rotational number                      12      :
          :  scaling factor                  1.0000000      :
          :  rotor cutoff                   50.0000000 cm⁻¹ :
          :  imag. cutoff                  -20.0000000 cm⁻¹ :
          :.................................................:

    mode    ω/cm⁻¹     T·S(HO)/kcal·mol⁻¹    T·S(FR)/kcal·mol⁻¹   T·S(vib)
   ------------------------------------------------------------------------
       1    294.91    -0.00000 ( 99.92%)     0.01603 (  0.08%)     0.00001
   ------------------------------------------------------------------------

   temp. (K)  partition function   enthalpy   heat capacity  entropy
                                   cal/mol     cal/K/mol   cal/K/mol   J/K/mol
 298.15  VIB   2.21                  785.162      5.022      4.209
         ROT   80.3                  888.752      2.981     11.696
         INT   177.                 1673.915      8.003     15.905
         TR   0.622E+26             1481.254      4.968     34.248
         TOT                        3155.1688    12.9712    50.1527   209.8387

   temp. (K)  partition function   enthalpy   heat capacity  entropy
                                   cal/mol     cal/K/mol   cal/K/mol   J/K/mol
 120.00  VIB   1.08                   70.833      2.199      0.752
         ROT   20.5                  357.707      2.981      8.983
         INT   22.2                  428.540      5.180      9.735
         TR   0.159E+26              596.178      4.968     29.729
         TOT                        1024.7182    10.1481    39.4635   165.1153

   temp. (K)  partition function   enthalpy   heat capacity  entropy
                                   cal/mol     cal/K/mol   cal/K/mol   J/K/mol
 100.00  VIB   1.04                   33.824      1.491      0.417
         ROT   15.6                  298.089      2.981      8.439
         INT   16.2                  331.913      4.472      8.856
         TR   0.121E+26              496.815      4.968     28.823
         TOT                         828.7277     9.4397    37.6791   157.6493

   temp. (K)  partition function   enthalpy   heat capacity  entropy
                                   cal/mol     cal/K/mol   cal/K/mol   J/K/mol
  80.00  VIB   1.01                   11.304      0.771      0.168
         ROT   11.2                  238.471      2.981      7.774
         INT   11.3                  249.775      3.752      7.942
         TR   0.864E+25              397.452      4.968     27.715
         TOT                         647.2273     8.7205    35.6573   149.1901

   temp. (K)  partition function   enthalpy   heat capacity  entropy
                                   cal/mol     cal/K/mol   cal/K/mol   J/K/mol
  60.00  VIB   1.00                    1.841      0.222      0.035
         ROT   7.25                  178.853      2.981      6.917
         INT   7.26                  180.694      3.203      6.952
         TR   0.561E+25              298.089      4.968     26.287
         TOT                         478.7833     8.1714    33.2383   139.0691

   temp. (K)  partition function   enthalpy   heat capacity  entropy
                                   cal/mol     cal/K/mol   cal/K/mol   J/K/mol
  40.00  VIB   1.00                    0.049      0.013      0.001
         ROT   3.94                  119.236      2.981      5.708
         INT   3.94                  119.285      2.994      5.709
         TR   0.305E+25              198.726      4.968     24.273
         TOT                         318.0109     7.9624    29.9818   125.4438

   temp. (K)  partition function   enthalpy   heat capacity  entropy
                                   cal/mol     cal/K/mol   cal/K/mol   J/K/mol
  20.00  VIB   1.00                    0.000      0.000     -0.002
         ROT   1.39                   59.618      2.981      3.642
         INT   1.39                   59.618      2.981      3.640
         TR   0.108E+25               99.363      4.968     20.831
         TOT                         158.9808     7.9490    24.4707   102.3856

   temp. (K)  partition function   enthalpy   heat capacity  entropy
                                   cal/mol     cal/K/mol   cal/K/mol   J/K/mol
  10.00  VIB   1.00                    0.000      0.000     -0.004
         ROT  0.493                   29.809      2.981      1.576
         INT  0.493                   29.809      2.981      1.572
         TR   0.382E+24               49.681      4.968     17.389
         TOT                          79.4904     7.9490    18.9610    79.3329

       T/K    H(0)-H(T)+PV         H(T)/Eh          T*S/Eh         G(T)/Eh
   ------------------------------------------------------------------------
    298.15    0.502808E-02    0.114498E-01    0.238291E-01   -0.123793E-01
    120.00    0.163299E-02    0.805473E-02    0.754669E-02    0.508036E-03
    100.00    0.132066E-02    0.774240E-02    0.600455E-02    0.173785E-02
     80.00    0.103142E-02    0.745316E-02    0.454588E-02    0.290728E-02
     60.00    0.762990E-03    0.718473E-02    0.317812E-02    0.400661E-02
     40.00    0.506783E-03    0.692852E-02    0.191116E-02    0.501736E-02
     20.00    0.253352E-03    0.667509E-02    0.779932E-03    0.589516E-02
     10.00    0.126676E-03    0.654841E-02    0.302163E-03    0.624625E-02 (used)
   ------------------------------------------------------------------------

         :::::::::::::::::::::::::::::::::::::::::::::::::::::
         ::                  THERMODYNAMIC                  ::
         :::::::::::::::::::::::::::::::::::::::::::::::::::::
         :: total free energy          -3.760431614440 Eh   ::
         ::.................................................::
         :: total energy               -3.766677862994 Eh   ::
         :: zero point energy           0.006421735627 Eh   ::
         :: G(RRHO) w/o ZPVE           -0.000175487073 Eh   ::
         :: G(RRHO) contrib.            0.006246248554 Eh   ::
         :::::::::::::::::::::::::::::::::::::::::::::::::::::
imag cut-off (cm-1) :    5.00
 found            5  significant imaginary frequencies
 writing imag mode distorted coords to xtbhess.xyz
 for further optimization.

optimized geometry written to: xtbopt.xyz


           -------------------------------------------------
          | TOTAL ENERGY               -3.766677862994 Eh   |
          | TOTAL ENTHALPY             -3.760129451351 Eh   |
          | TOTAL FREE ENERGY          -3.760431614440 Eh   |
          | GRADIENT NORM               0.000613786044 Eh/α |
          | HOMO-LUMO GAP               2.648271990800 eV   |
           -------------------------------------------------

------------------------------------------------------------------------
 * finished run on 2020/05/12 at 11:45:16.025     
------------------------------------------------------------------------
 total:
 * wall-time:     0 d,  0 h,  0 min,  0.054 sec
 *  cpu-time:     0 d,  0 h,  0 min,  0.054 sec
 * ratio c/w:     0.998 speedup
 SCF:
 * wall-time:     0 d,  0 h,  0 min,  0.002 sec
 *  cpu-time:     0 d,  0 h,  0 min,  0.002 sec
 * ratio c/w:     1.001 speedup
 ANC optimizer:
 * wall-time:     0 d,  0 h,  0 min,  0.008 sec
 *  cpu-time:     0 d,  0 h,  0 min,  0.008 sec
 * ratio c/w:     0.999 speedup
 numerical hessian:
 * wall-time:     0 d,  0 h,  0 min,  0.023 sec
 *  cpu-time:     0 d,  0 h,  0 min,  0.023 sec
 * ratio c/w:     0.998 speedup

