5
 energy: -3.766677862992 gnorm: 0.000612847854 xtb: 6.2.2 (9d81278992624c895f80dd42a50cac0aa55982e2)
C         0.00003459240079    0.00001541200613   -0.00002844465730
H        -0.88135760918088    1.11232614672872   -0.03343944545797
H        -0.56596209297414   -1.07431808363643   -0.73527737299263
H         0.20195689509340   -0.40275813717316    1.34592213193568
H         1.24532821466082    0.36473466207474   -0.57717686882778
