$hessian                                                                        
       -0.2866841970  -0.0004213117   0.0010887879   0.0871511971  -0.1470551652
        0.0044227040   0.0188864729   0.0913324403   0.0623122297  -0.0229714371
       -0.0118167827   0.0398776282   0.2036179641   0.0679608192  -0.1077013497
       -0.0004213117  -0.2850333590  -0.0001965019  -0.1463555818   0.1553776321
       -0.0055514102   0.0906018211   0.1434699330   0.1181772865  -0.0119983749
       -0.0047176142  -0.0812578815   0.0681734473  -0.0090965919  -0.0311714929
        0.0010887879  -0.0001965019  -0.2848663094   0.0041591641  -0.0051663143
       -0.0285970834   0.0620802995   0.1175903157   0.0512328265   0.0403743273
       -0.0806489409   0.2415658703  -0.1077025788  -0.0315785586   0.0206646960
        0.0871511971  -0.1463555818   0.0041591641  -0.1015421244   0.0922155263
       -0.0027527684   0.0378240809   0.0728768836   0.0354128070   0.0127127689
        0.0249446956  -0.0738210927  -0.0361459225  -0.0436815238   0.0370018900
       -0.1470551652   0.1553776321  -0.0051663143   0.0922155263  -0.1447570142
        0.0035045345  -0.0543142277  -0.0400989337  -0.0558191398   0.0143698778
       -0.0026001548   0.0944965797   0.0947839888   0.0320784705  -0.0370156602
        0.0044227040  -0.0055514102  -0.0285970834  -0.0027527684   0.0035045345
       -0.0286671495  -0.0154483652   0.0129829828   0.0227685490   0.0213387228
       -0.0251478675   0.0103536386  -0.0075602932   0.0142117604   0.0241420452
        0.0188864729   0.0906018211   0.0620802995   0.0378240809  -0.0543142277
       -0.0154483652  -0.0586096523  -0.0571462227  -0.0390881881   0.0186967356
        0.0141947122  -0.0482502059  -0.0167976370   0.0066639171   0.0407064597
        0.0913324403   0.1434699330   0.1175903157   0.0728768836  -0.0400989337
        0.0129829828  -0.0571462227  -0.1370062687  -0.0742653818  -0.0216996230
        0.0332686894  -0.0950492061  -0.0853634783   0.0003665800   0.0387412895
        0.0623122297   0.1181772865   0.0512328265   0.0354128070  -0.0558191398
        0.0227685490  -0.0390881881  -0.0742653818  -0.0791865519   0.0013438171
        0.0451364530  -0.0314120748  -0.0599806657  -0.0332292179   0.0365972511
       -0.0229714371  -0.0119983749   0.0403743273   0.0127127689   0.0143698778
        0.0213387228   0.0186967356  -0.0216996230   0.0013438171  -0.0323737851
        0.0075356297  -0.0254302725   0.0239357177   0.0117924904  -0.0376265948
       -0.0118167827  -0.0047176142  -0.0806489409   0.0249446956  -0.0026001548
       -0.0251478675   0.0141947122   0.0332686894   0.0451364530   0.0075356297
       -0.0437068720   0.0509570337  -0.0348582548   0.0177559515   0.0097033217
        0.0398776282  -0.0812578815   0.2415658703  -0.0738210927   0.0944965797
        0.0103536386  -0.0482502059  -0.0950492061  -0.0314120748  -0.0254302725
        0.0509570337  -0.1989152409   0.1076239429   0.0308534742  -0.0215921933
        0.2036179641   0.0681734473  -0.1077025788  -0.0361459225   0.0947839888
       -0.0075602932  -0.0167976370  -0.0853634783  -0.0599806657   0.0239357177
       -0.0348582548   0.1076239429  -0.1746101222  -0.0427357030   0.0676195948
        0.0679608192  -0.0090965919  -0.0315785586  -0.0436815238   0.0320784705
        0.0142117604   0.0066639171   0.0003665800  -0.0332292179   0.0117924904
        0.0177559515   0.0308534742  -0.0427357030  -0.0411044101   0.0197425419
       -0.1077013497  -0.0311714929   0.0206646960   0.0370018900  -0.0370156602
        0.0241420452   0.0407064597   0.0387412895   0.0365972511  -0.0376265948
        0.0097033217  -0.0215921933   0.0676195948   0.0197425419  -0.0598117991
