[Molden Format]
[Title]
[Atoms] AU
C      1     6  0.65370157415576E-04  0.29124467912808E-04 -0.53752607014274E-04
H      2     1 -0.16655243446797E+01  0.21019915835550E+01 -0.63191387812038E-01
H      3     1 -0.10695132534118E+01 -0.20301667604470E+01 -0.13894727316753E+01
H      4     1  0.38164318529750E+00 -0.76110250310673E+00  0.25434239784523E+01
H      5     1  0.23533290426365E+01  0.68924855553079E+00 -0.10907061063580E+01
[GTO]
           1 0
 s           4   1.0000000000000000     
   51.049363095579913      -0.16312063210127389     
   8.7911227406887544      -0.19911024581000730     
  0.70640422258929825       0.31882047753655751     
  0.26922813413411617       0.12706504184240380     
 p           4   1.0000000000000000     
   5.8263656140800002       0.73716451545209605     
   1.5106896018720002       0.68216371614850257     
  0.53256483288000001       0.35783053929253711     
  0.21202323690600003        5.3983030275847881E-002

           2 0
 s           3   1.0000000000000000     
   3.3702276975336001       0.27359110588908298     
  0.61389118221497996       0.26460540653860526     
  0.16614291148415999        8.2465947534082318E-002

           3 0
 s           3   1.0000000000000000     
   3.3702276975336001       0.27359110588908298     
  0.61389118221497996       0.26460540653860526     
  0.16614291148415999        8.2465947534082318E-002

           4 0
 s           3   1.0000000000000000     
   3.3702276975336001       0.27359110588908298     
  0.61389118221497996       0.26460540653860526     
  0.16614291148415999        8.2465947534082318E-002

           5 0
 s           3   1.0000000000000000     
   3.3702276975336001       0.27359110588908298     
  0.61389118221497996       0.26460540653860526     
  0.16614291148415999        8.2465947534082318E-002

[MO]
Sym=     1a
Ene=  -0.59607266004765946     
Spin= Alpha
Occup=     2.00000000
           1 -0.75434575043634777     
           2   4.7977543357839935E-005
           3   2.2230099389002066E-005
           4  -4.1592503973807298E-005
           5 -0.17827086686828772     
           6 -0.17827832804855415     
           7 -0.17833896229285279     
           8 -0.17808551587525659     
Sym=     2a
Ene=  -0.46150168651239848     
Spin= Alpha
Occup=     1.66796901
           1  -1.6039334912862666E-004
           2   3.6489695599780610E-002
           3  0.20449915184082107     
           4  0.55525613191784762     
           5  0.11478052543894685     
           6 -0.42158216048046099     
           7  0.43697427213475021     
           8 -0.13022143521157772     
Sym=     3a
Ene=  -0.46149766297401346     
Spin= Alpha
Occup=     1.66702905
           1   6.4643682773203763E-005
           2 -0.24558442770734207     
           3  0.51138490167453277     
           4 -0.17221164947504219     
           5  0.51409413841503215     
           6 -0.18439231808592682     
           7 -0.31677871692465998     
           8  -1.2902507922629831E-002
Sym=     4a
Ene=  -0.46148900513548924     
Spin= Alpha
Occup=     1.66500194
           1   3.3846697469567291E-004
           2  0.53838358305219403     
           3  0.21942811720434335     
           4 -0.11618475024606792     
           5 -0.14708626765546148     
           6 -0.29558125319340467     
           7  -8.8279097462638609E-002
           8  0.53104555041306201     
Sym=     5a
Ene=  -0.21127615038238787     
Spin= Alpha
Occup=     1.00000000
           1  0.84235575344925229     
           2   1.0264822645256965E-003
           3   4.8001649120344239E-004
           4  -9.0038674929746878E-004
           5 -0.48087405591543009     
           6 -0.48080770396641465     
           7 -0.48027037312439652     
           8 -0.48251116665436466     
Sym=     6a
Ene=  -0.11395394550624427     
Spin= Alpha
Occup=     0.00000000
           1   1.6978448695392446E-003
           2 -0.83186449506388838     
           3 -0.24681317195218874     
           4  0.26467663008684122     
           5 -0.28214117096627872     
           6 -0.33952748366974589     
           7 -0.18071419380229384     
           8  0.79894507958851502     
Sym=     7a
Ene=  -0.11378402396756740     
Spin= Alpha
Occup=     0.00000000
           1   1.3409169702421545E-004
           2  0.22720698563439148     
           3 -0.87269145142513704     
           4  -9.9735943829721174E-002
           5  0.73069035332235432     
           6 -0.55222808212464836     
           7 -0.16483116553830374     
           8  -1.3902346767495811E-002
Sym=     8a
Ene=  -0.11373213359022602     
Spin= Alpha
Occup=     0.00000000
           1   6.9864066549149703E-004
           2  0.28174460085127706     
           3  -2.5155280028174794E-002
           4  0.86209270316049202     
           5  0.19073610701772964     
           6  0.47930826464484250     
           7 -0.76862473078497673     
           8   9.7166740410148791E-002
