[Molden Format]
[Title]
[Atoms] AU
N      1     7  0.47215745833863E-01 -0.56822073482649E+00  0.34035806301465E-01
C      2     6  0.14030997160868E+01  0.18247548380969E+01 -0.94667924557590E-01
N      3     7 -0.11405378968291E+01  0.19512951756090E+01 -0.12608616893705E+00
H      4     1 -0.17008568842139E+00 -0.15084536091153E+01  0.17081810212564E+01
H      5     1 -0.13969187667342E+00 -0.16993775594868E+01 -0.15214608443340E+01
[GTO]
           1 0
 s           4   1.0000000000000000     
   63.594024466941008      -0.19234388414721629     
   10.951417231523665      -0.23478107924953728     
  0.87999310257376984       0.37593753901700888     
  0.33538715296521110       0.14982889271862770     
 p           4   1.0000000000000000     
   7.2965040481495080       0.97658666315667420     
   1.8918745450712575       0.90372226730345739     
  0.66694432110824120       0.47404958461536373     
  0.26552202674130870        7.1516067715011844E-002

           2 0
 s           4   1.0000000000000000     
   51.049363095579913      -0.16312063210127389     
   8.7911227406887544      -0.19911024581000730     
  0.70640422258929825       0.31882047753655751     
  0.26922813413411617       0.12706504184240380     
 p           4   1.0000000000000000     
   5.8263656140800002       0.73716451545209605     
   1.5106896018720002       0.68216371614850257     
  0.53256483288000001       0.35783053929253711     
  0.21202323690600003        5.3983030275847881E-002

           3 0
 s           4   1.0000000000000000     
   63.594024466941008      -0.19234388414721629     
   10.951417231523665      -0.23478107924953728     
  0.87999310257376984       0.37593753901700888     
  0.33538715296521110       0.14982889271862770     
 p           4   1.0000000000000000     
   7.2965040481495080       0.97658666315667420     
   1.8918745450712575       0.90372226730345739     
  0.66694432110824120       0.47404958461536373     
  0.26552202674130870        7.1516067715011844E-002

           4 0
 s           3   1.0000000000000000     
   3.3702276975336001       0.27359110588908298     
  0.61389118221497996       0.26460540653860526     
  0.16614291148415999        8.2465947534082318E-002

           5 0
 s           3   1.0000000000000000     
   3.3702276975336001       0.27359110588908298     
  0.61389118221497996       0.26460540653860526     
  0.16614291148415999        8.2465947534082318E-002

[MO]
Sym=     1a
Ene=  -0.70252716229669609     
Spin= Alpha
Occup=     2.00000000
           1 -0.50291542705272962     
           2   3.8384491176615236E-002
           3 -0.23332682595278187     
           4   1.4154674332790903E-002
           5 -0.22952052082058449     
           6  0.11793719416384600     
           7  0.10500378636986378     
           8  -5.0975338610100476E-003
           9 -0.27593122348775562     
          10 -0.13710620295610002     
          11  0.19773043764220730     
          12  -1.2979339800493411E-002
          13  -9.4751883943330686E-002
          14  -9.4751942121321903E-002
Sym=     2a
Ene=  -0.64513761886341814     
Spin= Alpha
Occup=     2.00000000
           1  0.36913481420936300     
           2  -2.6403260947879197E-002
           3 -0.45953083262031602     
           4   2.6917158565445323E-002
           5 -0.18894813684053799     
           6   9.3226562380566938E-002
           7  -8.0145533506195844E-003
           8   1.3511110892110427E-003
           9 -0.22744976110283202     
          10 -0.11277009561911965     
          11   1.0696638490353178E-002
          12  -1.6936193396062246E-003
          13  0.27745781156737453     
          14  0.27745787791901794     
Sym=     3a
Ene=  -0.60155638323106186     
Spin= Alpha
Occup=     2.00000000
           1   1.0572593684009654E-007
           2  -5.9945411439194483E-003
           3   3.7655759793286593E-002
           4  0.63697924708954679     
           5  -2.3745074871775497E-008
           6  -1.2884226779762079E-003
           7   8.0935213040409654E-003
           8  0.13690861143839278     
           9   1.6882062039990522E-008
          10  -1.6022014389871944E-003
          11   1.0064516973796315E-002
          12  0.17025013711671802     
          13  0.32951362341549989     
          14 -0.32951357218697042     
Sym=     4a
Ene=  -0.57004348352234657     
Spin= Alpha
Occup=     2.00000000
           1   6.8581554232230099E-002
           2  0.68589220875353363     
           3  -2.3075810170262997E-002
           4   7.8190238776158598E-003
           5  0.34152501501569682     
           6   8.7081711315398450E-002
           7 -0.15366507207299190     
           8   9.9036276861139087E-003
           9 -0.32026157650613568     
          10  0.18483376702353016     
          11  0.21468253080640898     
          12  -1.0951754490640075E-002
          13  -4.3102203308506811E-003
          14  -4.3102208120384634E-003
Sym=     5a
Ene=  -0.50057287787921123     
Spin= Alpha
Occup=     2.00000000
           1 -0.14290445474164704     
           2  -7.6866637688467276E-004
           3 -0.33297430808670653     
           4   1.9676935759901617E-002
           5  0.25323376983728646     
           6 -0.15509681685062143     
           7  0.35442008713296930     
           8  -2.2411570637355736E-002
           9  0.44830329640135141     
          10  0.14231550118108716     
          11  0.46227690702293012     
          12  -2.5988757702455675E-002
          13  0.12792088447824859     
          14  0.12792086195681654     
Sym=     6a
Ene=  -0.42653258571943847     
Spin= Alpha
Occup=     2.00000000
           1   5.5423018598659023E-002
           2  0.44364827377465821     
           3   7.8556328049694171E-003
           4   3.7107003829292048E-003
           5 -0.37137885296972423     
           6  -8.8297833004972195E-002
           7 -0.30510771428506811     
           8   1.7205928554378223E-002
           9  0.56419682710068819     
          10 -0.48632623640534373     
          11  0.18052296023743195     
          12  -1.5248458946667513E-002
          13  -3.0472543237704288E-002
          14  -3.0472453735297111E-002
Sym=     7a
Ene=  -0.39921111738702775     
Spin= Alpha
Occup=     1.99999770
           1   1.9576369231431166E-009
           2  -1.3971529762604781E-003
           3   8.7770821506937581E-003
           4  0.14847174320110046     
           5  -2.9256885306895983E-008
           6   4.7436456681572243E-003
           7  -2.9798519801342471E-002
           8 -0.50406566486438620     
           9   6.4624882850056597E-008
          10   6.9740095878613826E-003
          11  -4.3809296086375217E-002
          12 -0.74107097355528562     
          13  0.22346703905968901     
          14 -0.22346705981969853     
Sym=     8a
Ene=  -0.37454414986437840     
Spin= Alpha
Occup=     1.00000230
           1  -5.7124070203746435E-002
           2 -0.10319465841712612     
           3   1.5772987968098451E-002
           4  -1.9035863212335071E-003
           5  0.58762426487420394     
           6  0.62564494752684296     
           7   7.6199724699161739E-002
           8   1.3831817557490500E-003
           9  0.21411607150678677     
          10 -0.46649747878267350     
          11 -0.10137000160812529     
          12   1.6024973319392884E-003
          13   2.7861168575181738E-002
          14   2.7861163222945916E-002
Sym=     9a
Ene=  -0.23687124720204425     
Spin= Alpha
Occup=     1.00000000
           1   2.2185068630697439E-008
           2  -2.0316117860732628E-005
           3   1.2768411623404095E-004
           4   2.1600635614106634E-003
           5  -4.8117592288574105E-009
           6  -8.1541884291078288E-003
           7   5.1222542660460453E-002
           8  0.86647128360937109     
           9   2.4108971628930305E-009
          10   6.3186141976056378E-003
          11  -3.9691927324077426E-002
          12 -0.67142178440134026     
          13  -5.4780838852734978E-002
          14   5.4780820599592675E-002
Sym=    10a
Ene=  -0.12157943234928004     
Spin= Alpha
Occup=     0.00000000
           1 -0.49671610378457237     
           2  0.55514538774533506     
           3 -0.27592497535189087     
           4   2.1536044053973202E-002
           5   1.5017701021048073E-002
           6 -0.18396945357620287     
           7  0.36622928862443682     
           8  -2.3381401798479945E-002
           9  0.19247735881561268     
          10  -1.0439156114808437E-002
          11 -0.86328440419675190     
          12   5.0935883795708320E-002
          13  0.17628534896078568     
          14  0.17628538276419364     
Sym=    11a
Ene=   -7.4885499560403329E-002
Spin= Alpha
Occup=     0.00000000
           1  0.95350933155050988     
           2  0.23983326996491169     
           3  -1.9071540445536279E-002
           4   3.3845015286364686E-003
           5 -0.10931290806691633     
           6  -3.1621821204710056E-002
           7  0.71042214213648103     
           8  -4.2295109529391695E-002
           9 -0.10768049837512875     
          10 -0.21849652521477467     
          11  -4.5549490469155511E-002
          12   6.3649237311038721E-004
          13 -0.49297909412425039     
          14 -0.49297897481516822     
Sym=    12a
Ene=   0.10227735788784049     
Spin= Alpha
Occup=     0.00000000
           1  0.20681932025128175     
           2 -0.17004039421352016     
           3 -0.94358238350724533     
           4   5.4180250817243501E-002
           5  0.12242470360477609     
           6  0.15710958870934660     
           7 -0.51397322559693348     
           8   3.1862758053480336E-002
           9  0.39675014289894994     
          10  0.37819950606288560     
          11 -0.25804248782455713     
          12   1.8813710916460287E-002
          13 -0.55049343747763013     
          14 -0.55049427094576175     
Sym=    13a
Ene=   0.15169572329469697     
Spin= Alpha
Occup=     0.00000000
           1  -6.4999189604374534E-008
           2   9.6008696099636037E-003
           3  -6.0308565991651575E-002
           4  -1.0201780998436638     
           5   1.4701412031977262E-009
           6  -1.3812500433384610E-003
           7   8.6758202345309215E-003
           8  0.14675388704910111     
           9  -2.5961865131920402E-007
          10  -8.6470501474783100E-004
          11   5.4301346419438415E-003
          12   9.1853384030407964E-002
          13  0.85487049935686066     
          14 -0.85487003180986687     
Sym=    14a
Ene=   0.33831766688795739     
Spin= Alpha
Occup=     0.00000000
           1   8.1989123599278707E-002
           2  0.23307259375954079     
           3  0.31977104662229511     
           4  -1.6710351632530429E-002
           5 -0.76232065052518028     
           6  0.93764131518959892     
           7  0.22825522319544037     
           8  -4.6696263516288420E-003
           9  0.57038226898012534     
          10  0.77084957135025856     
          11   5.1023191458406253E-003
          12   6.9526844790030540E-003
          13  0.12856441875784438     
          14  0.12856422851095833     
