$hessian                                                                        
        0.0774755724  -0.0734536923   0.0032125413   0.0250208925   0.7016715103
        0.0007629369  -0.1024964649  -0.6282178181  -0.0039754783
       -0.0734536923  -0.3302173670  -0.0028944279  -0.2712153286   0.1015709289
       -0.0111871211   0.3446690209   0.2286464381   0.0140815490
        0.0032125413  -0.0028944279   0.0001331514   0.0011311724   0.0288047220
        0.0000355959  -0.0043437137  -0.0259102941  -0.0001687473
        0.0250208925  -0.2712153286   0.0011311724  -0.2916165361  -0.1412072797
       -0.0119338496   0.2665956436   0.4124226083   0.0108026773
        0.7016715103   0.1015709289   0.0288047220  -0.1412072797   0.0402355389
       -0.0058197473  -0.5604642307  -0.1418064678  -0.0229849747
        0.0007629369  -0.0111871211   0.0000355959  -0.0119338496  -0.0058197473
       -0.0004883544   0.0111709127   0.0170068683   0.0004527586
       -0.1024964649   0.3446690209  -0.0043437137   0.2665956436  -0.5604642307
        0.0111709127  -0.1640991786   0.2157952098  -0.0068271990
       -0.6282178181   0.2286464381  -0.0259102941   0.4124226083  -0.1418064678
        0.0170068683   0.2157952098  -0.0868399703   0.0089034257
       -0.0039754783   0.0140815490  -0.0001687473   0.0108026773  -0.0229849747
        0.0004527586  -0.0068271990   0.0089034257  -0.0002840113
