3
 energy: -5.987597617821 gnorm: 0.201512410711 xtb: 6.2.2 (9d81278992624c895f80dd42a50cac0aa55982e2)
C         0.86042300000000   -0.14994500000000    0.03542800000000
C        -0.30045400000000    0.82075100000000   -0.01266100000000
C        -0.55996900000000   -0.67080600000000   -0.02276800000000
3
 energy: -6.010819601084 gnorm: 0.073153218889 xtb: 6.2.2 (9d81278992624c895f80dd42a50cac0aa55982e2)
C         0.81194344983454   -0.14149717693866    0.03343183131273
C        -0.28352629482543    0.77450438564084   -0.01194769075458
C        -0.52841715500910   -0.63300720870218   -0.02148514055815
3
 energy: -6.012585609144 gnorm: 0.040103664713 xtb: 6.2.2 (9d81278992624c895f80dd42a50cac0aa55982e2)
C         0.78454788982111   -0.13672609472809    0.03230380704617
C        -0.27396413312985    0.74836494639760   -0.01154474910676
C        -0.51058375669126   -0.61163885166952   -0.02076005793941
3
 energy: -6.013156283914 gnorm: 0.003921224533 xtb: 6.2.2 (9d81278992624c895f80dd42a50cac0aa55982e2)
C         0.79424518165137   -0.13842009333676    0.03270309925869
C        -0.27735538500994    0.75760848804745   -0.01168764355107
C        -0.51688979664144   -0.61918839471069   -0.02101645570761
3
 energy: -6.013162191571 gnorm: 0.000227009150 xtb: 6.2.2 (9d81278992624c895f80dd42a50cac0aa55982e2)
C         0.79339958885708   -0.13828392745982    0.03266828578146
C        -0.27707509831674    0.75677700758789   -0.01167580791963
C        -0.51632449054034   -0.61849308012807   -0.02099347786183
3
 energy: -6.013162287281 gnorm: 0.000456646697 xtb: 6.2.2 (9d81278992624c895f80dd42a50cac0aa55982e2)
C         0.79340389191704   -0.13833107871662    0.03266848043388
C        -0.27713832143310    0.75668034143101   -0.01167837061501
C        -0.51626557048394   -0.61834926271439   -0.02099110981886
