[Molden Format]
[Title]
[Atoms] AU
C      1     6  0.14993147695673E+01 -0.26141557169505E+00  0.61729697842390E-01
C      2     6 -0.52370806755478E+00  0.14299211801542E+01 -0.22069587563194E-01
C      3     6 -0.97560670201911E+00 -0.11685056084624E+01 -0.39662000005145E-01
[GTO]
           1 0
 s           4   1.0000000000000000     
   51.049363095579913      -0.16312063210127389     
   8.7911227406887544      -0.19911024581000730     
  0.70640422258929825       0.31882047753655751     
  0.26922813413411617       0.12706504184240380     
 p           4   1.0000000000000000     
   5.8263656140800002       0.73716451545209605     
   1.5106896018720002       0.68216371614850257     
  0.53256483288000001       0.35783053929253711     
  0.21202323690600003        5.3983030275847881E-002

           2 0
 s           4   1.0000000000000000     
   51.049363095579913      -0.16312063210127389     
   8.7911227406887544      -0.19911024581000730     
  0.70640422258929825       0.31882047753655751     
  0.26922813413411617       0.12706504184240380     
 p           4   1.0000000000000000     
   5.8263656140800002       0.73716451545209605     
   1.5106896018720002       0.68216371614850257     
  0.53256483288000001       0.35783053929253711     
  0.21202323690600003        5.3983030275847881E-002

           3 0
 s           4   1.0000000000000000     
   51.049363095579913      -0.16312063210127389     
   8.7911227406887544      -0.19911024581000730     
  0.70640422258929825       0.31882047753655751     
  0.26922813413411617       0.12706504184240380     
 p           4   1.0000000000000000     
   5.8263656140800002       0.73716451545209605     
   1.5106896018720002       0.68216371614850257     
  0.53256483288000001       0.35783053929253711     
  0.21202323690600003        5.3983030275847881E-002

[MO]
Sym=     1a
Ene=  -0.71297650146133640     
Spin= Alpha
Occup=     2.00000000
           1 -0.37247091078243583     
           2  0.17460817246689039     
           3  -3.0440031726784899E-002
           4   7.1890277667253913E-003
           5 -0.37248268034139398     
           6  -6.1033441927188688E-002
           7  0.16666782256151433     
           8  -2.5719467019813935E-003
           9 -0.37249454489193229     
          10 -0.11380130638311198     
          11 -0.13630866048515283     
          12  -4.6263643942502566E-003
Sym=     2a
Ene=  -0.57076101754010766     
Spin= Alpha
Occup=     2.00000000
           1 -0.53590364622752118     
           2 -0.13899342599529418     
           3  0.13619931621811224     
           4  -5.7650124335102519E-003
           5  0.39035023059930235     
           6 -0.32851923831734653     
           7   4.0118075512537406E-003
           8  -1.3505687711716412E-002
           9  0.14564036386136139     
          10 -0.34832560575185989     
          11  0.23442126683573780     
          12  -1.4407068898859270E-002
Sym=     3a
Ene=  -0.57067552384853959     
Spin= Alpha
Occup=     2.00000000
           1 -0.14127923591650574     
           2 -0.11342597827211305     
           3 -0.40501813085686789     
           4  -4.5091484176731202E-003
           5 -0.39352872741000583     
           6 -0.24547570599536137     
           7 -0.21569735503493420     
           8  -1.0008889389734751E-002
           9  0.53489282930870163     
          10  -1.5548545097967449E-002
          11 -0.19608153827967165     
          12  -5.6485256849930115E-004
Sym=     4a
Ene=  -0.52332813564637570     
Spin= Alpha
Occup=     2.00000000
           1   1.0525822951322781E-007
           2  -2.0177970236741786E-002
           3   1.8583819729652928E-004
           4  0.49087258955279250     
           5   2.1809479771848795E-008
           6  -2.0188622255146536E-002
           7   1.8591970039227022E-004
           8  0.49113291368142536     
           9  -1.2761584049293950E-007
          10  -2.0199061676478482E-002
          11   1.8598191891654485E-004
          12  0.49138592688550914     
Sym=     5a
Ene=  -0.42467008266181561     
Spin= Alpha
Occup=     1.49003806
           1  0.37012123060721758     
           2  0.50328265638483893     
           3   4.5272892147418503E-002
           4   2.0670942368104156E-002
           5 -0.26772131027181961     
           6 -0.22172287167553673     
           7 -0.45758708304623669     
           8  -8.9409911592706285E-003
           9  -9.9510832361859994E-002
          10 -0.29680138366701397     
          11  0.41930296184719573     
          12  -1.2359129254971723E-002
Sym=     6a
Ene=  -0.42463494259618989     
Spin= Alpha
Occup=     1.48079922
           1   9.7991145553641232E-002
           2   4.1983676537275215E-002
           3 -0.51306816841359237     
           4   1.9200073270567424E-003
           5  0.27188549109784649     
           6 -0.46364789255658106     
           7  0.21239494105494114     
           8  -1.9139247949165109E-002
           9 -0.36701725001618490     
          10  0.41449262953703087     
          11  0.28500987961316676     
          12   1.6930362954480683E-002
Sym=     7a
Ene=  -0.42137779121763019     
Spin= Alpha
Occup=     1.02916272
           1  0.35681996701004554     
           2  0.45600370325638551     
           3  -7.8443119120855956E-002
           4   1.8774318780935034E-002
           5  0.35797641354904985     
           6 -0.15788500482250170     
           7  0.43718818263493808     
           8  -6.6555592917400186E-003
           9  0.35913077216323702     
          10 -0.29816596732778738     
          11 -0.35876027736429855     
          12  -1.2120696282934747E-002
Sym=     8a
Ene=  -0.29440066601954673     
Spin= Alpha
Occup=     0.00000000
           1  -2.6621104307540571E-008
           2   3.6016791079936446E-002
           3  -3.3161686072708961E-004
           4 -0.87618583808942130     
           5   8.9769320744261924E-009
           6  -2.6264961418682540E-002
           7   2.4184295304303859E-004
           8  0.63895096894307490     
           9  -5.7634282601974380E-009
          10  -9.7352165061727926E-003
          11   8.9610830381499270E-005
          12  0.23683108715526080     
Sym=     9a
Ene=  -0.29435812838751313     
Spin= Alpha
Occup=     0.00000000
           1  -2.3518417926751628E-009
           2   9.5498013283483243E-003
           3  -8.7977049111187530E-005
           4 -0.23231964380578352     
           5   1.1025203191285944E-009
           6   2.6423141702307917E-002
           7  -2.4330421460130270E-004
           8 -0.64279936267717519     
           9  -3.1167129463891042E-008
          10  -3.5956713253054599E-002
          11   3.3111649075944334E-004
          12  0.87472393202903731     
Sym=    10a
Ene=   -2.7909382903029401E-002
Spin= Alpha
Occup=     0.00000000
           1  -1.4301577211132778E-004
           2 -0.13311825408963007     
           3 -0.76652103285908757     
           4  -5.1819046224879112E-003
           5   2.8936080601641177E-004
           6  0.72989185825187208     
           7  0.26711249923783964     
           8   2.9902137274178116E-002
           9  -1.4635011639362256E-004
          10 -0.59640104243623926     
          11  0.49836886516178747     
          12  -2.4704524474623245E-002
Sym=    11a
Ene=   0.36549426548175068     
Spin= Alpha
Occup=     0.00000000
           1  0.85420374056945225     
           2 -0.90383155205025345     
           3  0.27219445737208692     
           4  -3.7256267729897291E-002
           5 -0.62218728195080464     
           6 -0.53044142796747273     
           7  0.53287223746622592     
           8  -2.2006213505124755E-002
           9 -0.23200087561349494     
          10 -0.49224693060773733     
          11   7.9818143801693081E-002
          12  -2.0264700227952414E-002
Sym=    12a
Ene=   0.36611614090826922     
Spin= Alpha
Occup=     0.00000000
           1  0.22539516937174317     
           2 -0.31717724799072783     
           3 -0.38048777351035867     
           4  -1.2893997919902063E-002
           5  0.62744780004732881     
           6  -5.7247243895239504E-002
           7 -0.75448850852325988     
           8  -2.0676606070238212E-003
           9 -0.85282768426869449     
          10 -0.50979904181412727     
          11 -0.79330454236012793     
          12  -2.0655737032057760E-002
