 Entering Gaussian System
 *********************************************
 Gaussian 98:
 frequency output generated by the xtb code
 *********************************************
                         Standard orientation:
 --------------------------------------------------------------------
  Center     Atomic     Atomic              Coordinates (Angstroms)
  Number     Number      Type              X           Y           Z
 --------------------------------------------------------------------
    1          6             0       -0.005753   -0.331625    0.019679
    2          6             0        0.656717    1.064064   -0.069711
    3          6             0       -0.619404    1.086900   -0.057929
    4          1             0       -0.006384   -0.855643    0.967173
    5          1             0       -0.025174   -0.963697   -0.859211
 --------------------------------------------------------------------
     1 basis functions        1 primitive gaussians
     1 alpha electrons        1 beta electrons

 Harmonic frequencies (cm**-1), IR intensities (KM/Mole),
 Raman scattering activities (A**4/amu), Raman depolarization ratios,
 reduced masses (AMU), force constants (mDyne/A) and normal coordinates:
                      1                      2                      3
                        a                      a                      a 
 Frequencies --  -377.0344               722.8366               935.1237
 Red. masses --     2.6263                11.5928                 3.5336
 Frc consts  --     0.0000                 0.0000                 0.0000
 IR Inten    --     0.0015                 0.4696                 0.2705
 Raman Activ --     0.0000                 0.0000                 0.0000
 Depolar     --     0.0000                 0.0000                 0.0000
 Atom AN      X      Y      Z        X      Y      Z        X      Y      Z
   1   6    -0.00  -0.00   0.00     0.41  -0.01  -0.00    -0.47   0.01   0.00
   2   6    -0.00  -0.02  -0.27    -0.26  -0.57   0.04     0.05  -0.04   0.00
   3   6     0.00   0.02   0.27    -0.24   0.58  -0.03     0.06   0.04  -0.00
   4   1    -0.65   0.01   0.01     0.14  -0.00  -0.00     0.62  -0.01  -0.01
   5   1     0.65  -0.01  -0.01     0.14  -0.00  -0.00     0.62  -0.01  -0.00
                      4                      5                      6
                        a                      a                      a 
 Frequencies --  1003.8368              1015.9420              1430.4261
 Red. masses --     3.4023                11.3446                 1.9131
 Frc consts  --     0.0000                 0.0000                 0.0000
 IR Inten    --     0.1866                 0.4142                 0.0645
 Raman Activ --     0.0000                 0.0000                 0.0000
 Depolar     --     0.0000                 0.0000                 0.0000
 Atom AN      X      Y      Z        X      Y      Z        X      Y      Z
   1   6    -0.00  -0.03  -0.42    -0.01  -0.75   0.04     0.00   0.27  -0.02
   2   6     0.00   0.01   0.14    -0.10   0.42  -0.02     0.06   0.03  -0.00
   3   6     0.00   0.01   0.14     0.11   0.42  -0.03    -0.06   0.03  -0.00
   4   1     0.01   0.58   0.22    -0.00  -0.17   0.02    -0.01  -0.59  -0.33
   5   1    -0.01  -0.55   0.29    -0.00  -0.17  -0.00    -0.01  -0.55   0.40
                      7                      8                      9
                        a                      a                      a 
 Frequencies --  1857.9004              3029.8393              3036.5705
 Red. masses --    11.9577                 1.4048                 2.1258
 Frc consts  --     0.0000                 0.0000                 0.0000
 IR Inten    --     0.4311                 0.1908                 0.2686
 Raman Activ --     0.0000                 0.0000                 0.0000
 Depolar     --     0.0000                 0.0000                 0.0000
 Atom AN      X      Y      Z        X      Y      Z        X      Y      Z
   1   6    -0.00  -0.13   0.01     0.00   0.19  -0.01    -0.00  -0.02  -0.32
   2   6     0.70   0.05  -0.01    -0.01   0.01  -0.00    -0.00  -0.00  -0.00
   3   6    -0.69   0.07   0.00     0.01   0.00  -0.00    -0.00  -0.00  -0.00
   4   1     0.00   0.02   0.04     0.00  -0.31   0.62    -0.00  -0.34   0.58
   5   1    -0.00   0.02  -0.05    -0.01  -0.38  -0.58     0.01   0.40   0.54
