[Molden Format]
[Title]
[Atoms] AU
C      1     6 -0.10871662417969E-01 -0.62668069102878E+00  0.37187779841422E-01
C      2     6  0.12410150596162E+01  0.20107893264122E+01 -0.13173500237625E+00
C      3     6 -0.11705046086538E+01  0.20539435149784E+01 -0.10946991779496E+00
H      4     1 -0.12063995360685E-01 -0.16169314540287E+01  0.18276912308352E+01
H      5     1 -0.47572903467657E-01 -0.18211225860690E+01 -0.16236740905087E+01
[GTO]
           1 0
 s           4   1.0000000000000000     
   51.049363095579913      -0.16312063210127389     
   8.7911227406887544      -0.19911024581000730     
  0.70640422258929825       0.31882047753655751     
  0.26922813413411617       0.12706504184240380     
 p           4   1.0000000000000000     
   5.8263656140800002       0.73716451545209605     
   1.5106896018720002       0.68216371614850257     
  0.53256483288000001       0.35783053929253711     
  0.21202323690600003        5.3983030275847881E-002

           2 0
 s           4   1.0000000000000000     
   51.049363095579913      -0.16312063210127389     
   8.7911227406887544      -0.19911024581000730     
  0.70640422258929825       0.31882047753655751     
  0.26922813413411617       0.12706504184240380     
 p           4   1.0000000000000000     
   5.8263656140800002       0.73716451545209605     
   1.5106896018720002       0.68216371614850257     
  0.53256483288000001       0.35783053929253711     
  0.21202323690600003        5.3983030275847881E-002

           3 0
 s           4   1.0000000000000000     
   51.049363095579913      -0.16312063210127389     
   8.7911227406887544      -0.19911024581000730     
  0.70640422258929825       0.31882047753655751     
  0.26922813413411617       0.12706504184240380     
 p           4   1.0000000000000000     
   5.8263656140800002       0.73716451545209605     
   1.5106896018720002       0.68216371614850257     
  0.53256483288000001       0.35783053929253711     
  0.21202323690600003        5.3983030275847881E-002

           4 0
 s           3   1.0000000000000000     
   3.3702276975336001       0.27359110588908298     
  0.61389118221497996       0.26460540653860526     
  0.16614291148415999        8.2465947534082318E-002

           5 0
 s           3   1.0000000000000000     
   3.3702276975336001       0.27359110588908298     
  0.61389118221497996       0.26460540653860526     
  0.16614291148415999        8.2465947534082318E-002

[MO]
Sym=     1a
Ene=  -0.67093355509649277     
Spin= Alpha
Occup=     2.00000000
           1  0.36697783325912925     
           2   2.8835620250187073E-003
           3  0.16621912119941556     
           4  -9.8635935663867573E-003
           5  0.37226469558516811     
           6 -0.14770200113171419     
           7  -8.7386387234479015E-002
           8   6.6900343635391676E-003
           9  0.37226421865083287     
          10  0.14457942994532325     
          11  -9.2616579508653499E-002
          12   3.9915024157364280E-003
          13   7.6270547495391139E-002
          14   7.6270549881554170E-002
Sym=     2a
Ene=  -0.59393830466681541     
Spin= Alpha
Occup=     2.00000000
           1  0.45831982170086893     
           2  -4.3602488234700150E-003
           3 -0.25137117895428207     
           4   1.4916584148143930E-002
           5 -0.24426077841035135     
           6  0.10164988541934826     
           7 -0.13708022699879144     
           8   7.0638418983065597E-003
           9 -0.24426072732043561     
          10 -0.10634109065556466     
          11 -0.13335788066178544     
          12   8.9841963380603105E-003
          13  0.27435419045160231     
          14  0.27435419493026231     
Sym=     3a
Ene=  -0.53155703715046276     
Spin= Alpha
Occup=     2.00000000
           1   3.9148251984618638E-009
           2   5.5148141138246362E-003
           3   3.1727092791275002E-002
           4  0.53627024019873715     
           5  -3.4476732811737807E-006
           6   2.4573269177296567E-003
           7   1.4138553863211620E-002
           8  0.23896230826464765     
           9   3.4437741791828795E-006
          10   2.4572873768786640E-003
          11   1.4136638609040459E-002
          12  0.23896198157899823     
          13  0.34076498899811630     
          14 -0.34076498808605044     
Sym=     4a
Ene=  -0.51789807141890210     
Spin= Alpha
Occup=     2.00000000
           1   5.9752102258672429E-007
           2 -0.44839662977916467     
           3   8.0238917186958927E-003
           4   4.1351887098565882E-003
           5 -0.47096408882545820     
           6 -0.27736153306266098     
           7  0.10081157329788995     
           8  -3.1122218109629145E-003
           9  0.47096335477555168     
          10 -0.28068510412305320     
          11  -9.0826249794902614E-002
          12   8.2597302319949613E-003
          13  -2.4226950903655912E-006
          14   2.1740816098973858E-006
Sym=     5a
Ene=  -0.49163368595600965     
Spin= Alpha
Occup=     2.00000000
           1   4.8180002839707317E-002
           2   7.3061550223303814E-003
           3  0.42115578900564066     
           4  -2.4991769576061518E-002
           5 -0.18574380143091396     
           6   8.7773445322060578E-002
           7 -0.44212517393903167     
           8   2.5253876690427803E-002
           9 -0.18574423048923408     
          10 -0.10305302387902211     
          11 -0.43870948100453766     
          12   2.7015637960895893E-002
          13 -0.19760144280296843     
          14 -0.19760143441659567     
Sym=     6a
Ene=  -0.41372708698239979     
Spin= Alpha
Occup=     1.99999850
           1   3.0697833301135083E-010
           2   2.2304563235247530E-003
           3   1.2842756689943441E-002
           4  0.21707538175562241     
           5   2.5321926202694801E-006
           6  -6.0328896107099067E-003
           7  -3.4689702907166033E-002
           8 -0.58637710635699192     
           9  -2.5355858101075024E-006
          10  -6.0329382180922941E-003
          11  -3.4693199429233289E-002
          12 -0.58637573892696027     
          13  0.27412844744347858     
          14 -0.27412844642711748     
Sym=     7a
Ene=  -0.38824104895989126     
Spin= Alpha
Occup=     1.00000150
           1   7.6622078345619445E-007
           2 -0.65295094102260587     
           3   1.1684318182695733E-002
           4   6.0255282308298531E-003
           5  0.32183373337666005     
           6  0.25020371729148128     
           7  0.35855110290174247     
           8  -2.3784194868108514E-002
           9 -0.32183155607453573     
          10  0.23760857686385553     
          11 -0.36728008707028775     
          12   1.9287322058522068E-002
          13  -1.6881876692571120E-006
          14   1.3413952666410356E-006
Sym=     8a
Ene=  -0.36587052001116271     
Spin= Alpha
Occup=     1.00000000
           1  -3.7857780484660450E-003
           2   6.0843784503636670E-004
           3   3.4975453357935463E-002
           4  -2.0754920535481346E-003
           5  0.38429325410293308     
           6  0.60990139121395093     
           7   1.8174296913667322E-002
           8  -7.3520857072293128E-003
           9  0.38429616979072462     
          10 -0.60889422015791517     
          11   3.9986954670170057E-002
          12   3.9007606833748516E-003
          13   1.5199829373055227E-002
          14   1.5199828510731704E-002
Sym=     9a
Ene=  -0.21473952589585285     
Spin= Alpha
Occup=     0.00000000
           1   3.8180318821259602E-007
           2  -5.0820858027508641E-009
           3  -1.4367038383640965E-007
           4  -1.5442356726254575E-007
           5   1.8692759608171165E-008
           6   8.3250719830615556E-003
           7   4.7857818486118024E-002
           8  0.80892202922894463     
           9   1.7943323580640114E-008
          10  -8.3250780901876174E-003
          11  -4.7857721036964923E-002
          12 -0.80892295841794803     
          13   2.8841209283470571E-008
          14  -3.8089161597262665E-007
Sym=    10a
Ene=   -6.1117514727769287E-002
Spin= Alpha
Occup=     0.00000000
           1  -1.2920395724864462E-006
           2  0.69008077388548994     
           3  -1.2347678162868190E-002
           4  -6.3683242068662176E-003
           5  -8.6767870847936426E-002
           6 -0.13862749639900654     
           7  0.75395611464964218     
           8  -4.3179692188838784E-002
           9   8.6767618378489619E-002
          10 -0.16469146332933590     
          11 -0.74852859852277032     
          12   4.5979098446922467E-002
          13  -7.0978109820485524E-007
          14   2.6478921157184902E-006
Sym=    11a
Ene=    3.9916125724621811E-002
Spin= Alpha
Occup=     0.00000000
           1  -1.0870905288426289     
           2  -6.5767161861220143E-003
           3 -0.37905319365271423     
           4   2.2493356947138467E-002
           5  0.24292632233082256     
           6 -0.10224235344796125     
           7 -0.45910321230277323     
           8   2.8214125483013684E-002
           9  0.24292616312675311     
          10   8.6255970535277990E-002
          11 -0.46247558201281147     
          12   2.6473186437272422E-002
          13  0.41423078434652150     
          14  0.41423076768028022     
Sym=    12a
Ene=   0.18648609101712216     
Spin= Alpha
Occup=     0.00000000
           1 -0.41983277257609425     
           2   1.8329580939040416E-002
           3   1.0567321309042792     
           4  -6.2707485198811114E-002
           5 -0.24194502858576131     
           6   7.0492295188347459E-002
           7  0.29586327647077315     
           8  -1.8229182497280207E-002
           9 -0.24194492108480592     
          10  -6.0186010416136033E-002
          11  0.29820333159687118     
          12  -1.7023255876184501E-002
          13  0.67574703031225669     
          14  0.67574692437504968     
Sym=    13a
Ene=   0.23442499190359889     
Spin= Alpha
Occup=     0.00000000
           1  -4.1526158438646542E-008
           2   1.1402604774911281E-002
           3   6.5574977640353541E-002
           4   1.1083876266764752     
           5  -2.3386780021840027E-007
           6  -1.2641081656927851E-003
           7  -7.2749827867488641E-003
           8 -0.12293928502142110     
           9   2.0751302937925854E-007
          10  -1.2640629246284227E-003
          11  -7.2718182057264248E-003
          12 -0.12293982012136143     
          13 -0.84740322201333418     
          14  0.84740332068495272     
Sym=    14a
Ene=   0.67186032082365277     
Spin= Alpha
Occup=     0.00000000
           1  -1.7358998155688503E-007
           2 -0.14215377822713049     
           3   2.5441473901031278E-003
           4   1.3132609034315081E-003
           5  0.87706972675171024     
           6 -0.98631608628576484     
           7  -3.5573931371142828E-002
           8   1.2255274957022005E-002
           9 -0.87706988567646305     
          10 -0.98447028387779589     
          11   7.0841295581325528E-002
          12   5.9405019809132291E-003
          13  -4.9759650407004574E-007
          14   9.7094401604185136E-007
