      -----------------------------------------------------------      
     |                   =====================                   |     
     |                           x T B                           |     
     |                   =====================                   |     
     |                         S. Grimme                         |     
     |          Mulliken Center for Theoretical Chemistry        |     
     |                    University of Bonn                     |     
      -----------------------------------------------------------      

   * xtb version 6.2.2 (9d81278992624c895f80dd42a50cac0aa55982e2) compiled by '@Darwin' on 04/03/2020

   xtb is free software: you can redistribute it and/or modify it under
   the terms of the GNU Lesser General Public License as published by
   the Free Software Foundation, either version 3 of the License, or
   (at your option) any later version.
   
   xtb is distributed in the hope that it will be useful,
   but WITHOUT ANY WARRANTY; without even the implied warranty of
   MERCHANTABILITY or FITNESS FOR A PARTICULAR PURPOSE.  See the
   GNU Lesser General Public License for more details.
   
   Cite this work as:
   * S. Grimme, C. Bannwarth, P. Shushkov, J. Chem. Theory Comput., 2017,
     13, 1989-2009. DOI: 10.1021/acs.jctc.7b00118
   * C. Bannwarth, S. Ehlert and S. Grimme., J. Chem. Theory Comput., 2019,
     15, 1652-1671. DOI: 10.1021/acs.jctc.8b01176
   * P. Pracht, E. Caldeweyher, S. Ehlert, S. Grimme, ChemRxiv, 2019, preprint.
     DOI: 10.26434/chemrxiv.8326202.v1
   
   for DFT-D4:
   * E. Caldeweyher, C. Bannwarth and S. Grimme, J. Chem. Phys., 2017,
     147, 034112. DOI: 10.1063/1.4993215
   * E. Caldeweyher, S. Ehlert, A. Hansen, H. Neugebauer, S. Spicher,
     C. Bannwarth and S. Grimme, J. Chem. Phys., 2019, 150, 154122.
     DOI: 10.1063/1.5090222
   
   for sTDA-xTB:
   * S. Grimme and C. Bannwarth, J. Chem. Phys., 2016, 145, 054103.
     DOI: 10.1063/1.4959605
   
   in the mass-spec context:
   * V. Asgeirsson, C. Bauer and S. Grimme, Chem. Sci., 2017, 8, 4879.
     DOI: 10.1039/c7sc00601b
   
   for metadynamics refer to:
   * S. Grimme, J. Chem. Theory Comput., 2019, 155, 2847-2862
     DOI: 10.1021/acs.jctc.9b00143
   
   with help from (in alphabetical order)
   C. Bannwarth, F. Bohle, G. Brandenburg, E. Caldeweyher, M. Checinski,
   S. Dohm, S. Ehlert, S. Ehrlich, F. März, H. Neugebauer, J. Pisarek,
   P. Pracht, P. Shushkov, and S. Spicher.
   
 * started run on 2020/05/12 at 11:44:25.762     

           -------------------------------------------------
          |                Calculation Setup                |
           -------------------------------------------------

          program call               : xtb --input H2C3_0_S_2.input H2C3_0_S_2.xyz --ohess --molden --namespace H2C3_0_S_2 output.out
          calculation namespace      : H2C3_0_S_2
          coordinate file            : H2C3_0_S_2.xyz
          number of atoms            :                     5
          number of electrons        :                    14
          charge                     :                     0
          spin                       :                   1.0
          first test random number   :      0.40737723645265

   ID    Z sym.   atoms
    1    6 C      1-3
    2    1 H      4, 5

           -------------------------------------------------
          |                 G F N 2 - x T B                 |
           -------------------------------------------------

        Reference                      10.1021/acs.jctc.8b01176
      * Hamiltonian:
        H0-scaling (s, p, d)           1.850000    2.230000    2.230000
        zeta-weighting                 0.500000
      * Dispersion:
        s8                             2.700000
        a1                             0.520000
        a2                             5.000000
        s9                             5.000000
      * Repulsion:
        kExp                           1.500000    1.000000
        rExp                           1.000000
      * Coulomb:
        alpha                          2.000000
        third order                    shell-resolved
        anisotropic                    true
        a3                             3.000000
        a5                             4.000000
        cn-shift                       1.200000
        cn-exp                         4.000000
        max-rad                        5.000000


          ...................................................
          :                      SETUP                      :
          :.................................................:
          :  # basis functions                  14          :
          :  # atomic orbitals                  14          :
          :  # shells                            8          :
          :  # electrons                        14          :
          :  max. iterations                   250          :
          :  Hamiltonian                  GFN2-xTB          :
          :  restarted?                      false          :
          :  GBSA solvation                  false          :
          :  PC potential                    false          :
          :  electronic temp.          300.0000000     K    :
          :  accuracy                    1.0000000          :
          :  -> integral cutoff          0.2500000E+02      :
          :  -> integral neglect         0.1000000E-07      :
          :  -> SCF convergence          0.1000000E-05 Eh   :
          :  -> wf. convergence          0.1000000E-03 e    :
          :  Broyden damping             0.4000000          :
          ...................................................

 iter      E             dE          RMSdq      gap      omega  full diag
   1     -7.0564284 -0.705643E+01  0.895E+00    0.36       0.0  T
   2     -7.0646381 -0.820973E-02  0.524E+00    0.43       1.0  T
   3     -7.0669624 -0.232425E-02  0.689E-01    0.48       1.0  T
   4     -7.0670922 -0.129822E-03  0.429E-01    0.47       1.0  T
   5     -6.9938727  0.732195E-01  0.283E+00    0.52       1.0  T
   6     -7.0670699 -0.731972E-01  0.164E-01    0.46       1.0  T
   7     -7.0672047 -0.134762E-03  0.374E-02    0.45       1.2  T
   8     -7.0672071 -0.239952E-05  0.313E-02    0.46       1.4  T
   9     -7.0672072 -0.174674E-06  0.321E-02    0.45       1.4  T
  10     -7.0672135 -0.626131E-05  0.622E-03    0.46       7.2  T
  11     -7.0672137 -0.169477E-06  0.398E-03    0.46      11.2  T
  12     -7.0672138 -0.958937E-07  0.148E-04    0.46     301.9  T
  13     -7.0672138 -0.651461E-10  0.105E-04    0.46     424.3  T

   *** convergence criteria satisfied after 13 iterations ***

         #    Occupation            Energy/Eh            Energy/eV
      -------------------------------------------------------------
         1        2.0000           -0.6722241             -18.2921
         2        2.0000           -0.6213448             -16.9077
         3        2.0000           -0.5783164             -15.7368
         4        2.0000           -0.5385984             -14.6560
         5        2.0000           -0.4729247             -12.8689
         6        2.0000           -0.4475925             -12.1796
         7        1.0000           -0.3653190              -9.9408
         8        0.9999           -0.3638631              -9.9012 (HOMO)
         9        0.0002           -0.3470503              -9.4437 (LUMO)
        10        0.0000           -0.3401303              -9.2554
        11                          0.0896795               2.4403
        12                          0.1099376               2.9916
        13                          0.1296357               3.5276
        14                          0.1608015               4.3756
      -------------------------------------------------------------
                  HL-Gap            0.0168128 Eh            0.4575 eV
             Fermi-level           -0.3809099 Eh          -10.3651 eV

 transition dipole moment (au) for excitation:           7           8
     X       Y       Z   
  -0.0000   0.0000   0.0000  total (au/Debye):    0.000   0.000
 dE (eV)             :    0.040
 oscillator strength :  0.11571E-14

 SCC (total)                   0 d,  0 h,  0 min,  0.004 sec
 SCC setup                      ...        0 min,  0.000 sec (  4.929%)
 Dispersion                     ...        0 min,  0.000 sec (  0.675%)
 integral evaluation            ...        0 min,  0.001 sec ( 18.332%)
 zeroth order Hamiltonian       ...        0 min,  0.000 sec (  0.491%)
 iterations                     ...        0 min,  0.002 sec ( 43.502%)
 molecular gradient             ...        0 min,  0.001 sec ( 17.121%)
 printout                       ...        0 min,  0.001 sec ( 14.542%)

         :::::::::::::::::::::::::::::::::::::::::::::::::::::
         ::                     SUMMARY                     ::
         :::::::::::::::::::::::::::::::::::::::::::::::::::::
         :: total energy              -7.008397214956 Eh    ::
         :: gradient norm              0.074422535039 Eh/a0 ::
         :: HOMO-LUMO gap              0.457498880547 eV    ::
         ::.................................................::
         :: SCC energy                -7.067213754988 Eh    ::
         :: -> isotropic ES           -0.031107174577 Eh    ::
         :: -> anisotropic ES         -0.001566707749 Eh    ::
         :: -> anisotropic XC          0.007291957249 Eh    ::
         :: -> dispersion             -0.001560720383 Eh    ::
         :: repulsion energy           0.058816484276 Eh    ::
         :: add. restraining           0.000000000000 Eh    ::
         :::::::::::::::::::::::::::::::::::::::::::::::::::::

      ----------------------------------------------------------- 
     |                   =====================                   |
     |                        A N C O P T                        |
     |                   =====================                   |
     |               Approximate Normal Coordinate               |
     |                Rational Function Optimizer                |
      ----------------------------------------------------------- 

          ...................................................
          :                      SETUP                      :
          :.................................................:
          :   optimization level            normal          :
          :   max. optcycles                   200          :
          :   ANC micro-cycles                  20          :
          :   degrees of freedom                 9          :
          :.................................................:
          :   RF solver                   davidson          :
          :   write xtbopt.log                true          :
          :   linear?                        false          :
          :   energy convergence         0.5000000E-05 Eh   :
          :   grad. convergence          0.1000000E-02 Eh/α :
          :   maximium RF displ.         1.0000000          :
          :   Hlow (freq-cutoff)         0.1000000E-01      :
          :   Hmax (freq-cutoff)         5.0000000          :
          :   S6 in model hess.         20.0000000          :
          ...................................................

generating ANC from model Hessian ...
Using Lindh-Hessian (1995)
 Shifting diagonal of input Hessian by    0.0000000000000000     
 Lowest  eigenvalues of input Hessian
   -0.000000   -0.000000   -0.000000   -0.000000    0.000000    0.000000
    0.064255    0.072760    0.081950    0.103926    0.108130    0.412356
    1.004706    1.024922    1.039179
 Highest eigenvalues
    0.103926    0.108130    0.412356    1.004706    1.024922    1.039179


........................................................................
.............................. CYCLE    1 ..............................
........................................................................
   1     -7.0672138 -0.706721E+01  0.605E-06    0.46       0.0  T
   2     -7.0672138  0.342544E-10  0.617E-05    0.46     725.4  T
   3     -7.0672138 -0.333964E-10  0.113E-05    0.46    3946.6  T
     SCC iter.                  ...        0 min,  0.001 sec
     gradient                   ...        0 min,  0.001 sec
 * total energy  :    -7.0083972 Eh     change        0.5277299E-09 Eh
   gradient norm :     0.0744240 Eh/α   predicted     0.0000000E+00 (-100.00%)
   displ. norm   :     0.2720837 α      lambda       -0.1403263E-01
   maximum displ.:     0.2075264 α      in ANC's #1, #6, #4, ...

........................................................................
.............................. CYCLE    2 ..............................
........................................................................
   1     -7.0912290 -0.709123E+01  0.112E+00    0.35       0.0  T
   2     -7.0919882 -0.759110E-03  0.681E-01    0.30       1.0  T
   3     -7.0920066 -0.184968E-04  0.340E-01    0.32       1.0  T
   4     -7.0921974 -0.190736E-03  0.431E-02    0.31       1.0  T
   5     -7.0915993  0.598080E-03  0.294E-01    0.31       1.0  T
   6     -7.0921989 -0.599600E-03  0.186E-02    0.31       2.4  T
   7     -7.0921999 -0.980485E-06  0.270E-03    0.31      16.6  T
   8     -7.0921999 -0.184343E-07  0.499E-04    0.31      89.7  T
   9     -7.0921999 -0.383444E-10  0.625E-05    0.31     715.8  T
     SCC iter.                  ...        0 min,  0.001 sec
     gradient                   ...        0 min,  0.001 sec
 * total energy  :    -7.0184806 Eh     change       -0.1008339E-01 Eh
   gradient norm :     0.0294386 Eh/α   predicted    -0.7535727E-02 ( -25.27%)
   displ. norm   :     0.2288417 α      lambda       -0.4367585E-02
   maximum displ.:     0.2039180 α      in ANC's #1, #6, #4, ...

........................................................................
.............................. CYCLE    3 ..............................
........................................................................
   1     -7.1044068 -0.710441E+01  0.976E-01    0.07       0.0  T
   2     -7.1044301 -0.233474E-04  0.594E-01    0.07       1.0  T
   3     -7.1043327  0.974709E-04  0.158E-01    0.08       1.0  T
   4     -7.0994751  0.485758E-02  0.953E-01    0.08       1.0  T
   5     -7.1044306 -0.495552E-02  0.591E-02    0.07       1.0  T
   6     -7.1044459 -0.152679E-04  0.118E-02    0.07       3.8  T
   7     -7.1044460 -0.841243E-07  0.494E-03    0.07       9.1  T
   8     -7.1044461 -0.112457E-06  0.753E-04    0.07      59.4  T
   9     -7.1044461  0.886940E-09  0.476E-04    0.07      93.9  T
     SCC iter.                  ...        0 min,  0.001 sec
     gradient                   ...        0 min,  0.001 sec
 * total energy  :    -7.0210091 Eh     change       -0.2528512E-02 Eh
   gradient norm :     0.0150560 Eh/α   predicted    -0.2298156E-02 (  -9.11%)
   displ. norm   :     0.4794689 α      lambda       -0.5233489E-02
   maximum displ.:     0.4623761 α      in ANC's #1, #4, #6, ...

........................................................................
.............................. CYCLE    4 ..............................
........................................................................
   1     -7.1231696 -0.712317E+01  0.320E+00    0.92       0.0  T
   2     -7.1262448 -0.307517E-02  0.181E+00    0.79       1.0  T
   3     -7.1253476  0.897238E-03  0.783E-01    0.83       1.0  T
   4     -7.1270197 -0.167214E-02  0.847E-02    0.78       1.0  T
   5     -7.1267044  0.315245E-03  0.226E-01    0.79       1.0  T
   6     -7.1270295 -0.325078E-03  0.261E-02    0.79       1.7  T
   7     -7.1270307 -0.117553E-05  0.486E-03    0.79       9.2  T
   8     -7.1270308 -0.100342E-06  0.109E-03    0.79      41.2  T
   9     -7.1270308 -0.349440E-09  0.106E-04    0.79     420.0  T
  10     -7.1270308 -0.298819E-10  0.341E-05    0.79    1309.6  T
     SCC iter.                  ...        0 min,  0.001 sec
     gradient                   ...        0 min,  0.001 sec
 * total energy  :    -7.0445002 Eh     change       -0.2349111E-01 Eh
   gradient norm :     0.0698209 Eh/α   predicted    -0.3218312E-02 ( -86.30%)
   displ. norm   :     0.8737816 α      lambda       -0.5922846E-01
   maximum displ.:     0.8146387 α      in ANC's #1, #4, #6, ...

........................................................................
.............................. CYCLE    5 ..............................
........................................................................
   1     -7.2396723 -0.723967E+01  0.829E+00    4.22       0.0  T
   2     -7.2418153 -0.214294E-02  0.505E+00    4.13       1.0  T
   3     -7.2400430  0.177226E-02  0.877E-01    3.98       1.0  T
   4     -7.2431618 -0.311879E-02  0.338E-01    3.98       1.0  T
   5     -7.2431537  0.811879E-05  0.944E-02    3.97       1.0  T
   6     -7.2431731 -0.194113E-04  0.249E-02    3.96       1.8  T
   7     -7.2431751 -0.197967E-05  0.742E-03    3.97       6.0  T
   8     -7.2431752 -0.161467E-06  0.487E-03    3.97       9.2  T
   9     -7.2431753 -0.707393E-07  0.112E-03    3.96      39.8  T
  10     -7.2431753 -0.409074E-08  0.132E-04    3.96     338.1  T
  11     -7.2431753 -0.150182E-10  0.845E-06    3.96    5289.9  T
     SCC iter.                  ...        0 min,  0.001 sec
     gradient                   ...        0 min,  0.001 sec
 * total energy  :    -7.1227104 Eh     change       -0.7821020E-01 Eh
   gradient norm :     0.0499599 Eh/α   predicted    -0.5222453E-01 ( -33.23%)
   displ. norm   :     0.7834392 α      lambda       -0.3762021E-01
   maximum displ.:     0.7215291 α      in ANC's #1, #4, #6, ...

........................................................................
.............................. CYCLE    6 ..............................
........................................................................
   1     -7.4170370 -0.741704E+01  0.656E+00    2.77       0.0  T
   2     -7.4174034 -0.366368E-03  0.387E+00    2.75       1.0  T
   3     -7.4175026 -0.991584E-04  0.157E-01    2.73       1.0  T
   4     -7.4175101 -0.751959E-05  0.436E-02    2.74       1.0  T
   5     -7.4175100  0.501408E-07  0.134E-02    2.74       3.3  T
   6     -7.4175101 -0.603011E-07  0.993E-04    2.74      45.0  T
   7     -7.4175101 -0.230677E-08  0.495E-04    2.74      90.4  T
     SCC iter.                  ...        0 min,  0.001 sec
     gradient                   ...        0 min,  0.001 sec
 * total energy  :    -6.2700461 Eh     change        0.8526643E+00 Eh
   gradient norm :     4.4083039 Eh/α   predicted    -0.3035531E-01 (-103.56%)
   displ. norm   :     0.4893293 α      lambda       -0.2138100E+01
   maximum displ.:     0.3366520 α      in ANC's #1, #6, #4, ...

........................................................................
.............................. CYCLE    7 ..............................
........................................................................
   1     -7.2757876 -0.727579E+01  0.415E+00    4.63       0.0  T
   2     -7.2760075 -0.219937E-03  0.243E+00    4.67       1.0  T
   3     -7.2760965 -0.889248E-04  0.188E-01    4.75       1.0  T
   4     -7.2761114 -0.149283E-04  0.114E-01    4.76       1.0  T
   5     -7.2761231 -0.116707E-04  0.363E-02    4.76       1.2  T
   6     -7.2761273 -0.423582E-05  0.166E-02    4.76       2.7  T
   7     -7.2761285 -0.118396E-05  0.174E-03    4.76      25.8  T
   8     -7.2761285 -0.308049E-09  0.105E-03    4.76      42.4  T
   9     -7.2761285 -0.665676E-08  0.117E-04    4.76     381.8  T
  10     -7.2761285 -0.478382E-10  0.280E-05    4.76    1596.7  T
     SCC iter.                  ...        0 min,  0.001 sec
     gradient                   ...        0 min,  0.001 sec
 * total energy  :    -7.0993327 Eh     change       -0.8292866E+00 Eh
   gradient norm :     0.2586521 Eh/α   predicted    -0.1325027E+01 (  59.78%)
   displ. norm   :     0.1275376 α      lambda       -0.1489542E-01
   maximum displ.:     0.1146907 α      in ANC's #1, #6, #8, ...

........................................................................
.............................. CYCLE    8 ..............................
........................................................................
   1     -7.2746592 -0.727466E+01  0.631E-01    4.58       0.0  T
   2     -7.2746664 -0.714299E-05  0.367E-01    4.59       1.0  T
   3     -7.2746631  0.327551E-05  0.372E-02    4.59       1.2  T
   4     -7.2746686 -0.549979E-05  0.140E-02    4.59       3.2  T
   5     -7.2746689 -0.266369E-06  0.343E-03    4.59      13.0  T
   6     -7.2746689  0.417780E-09  0.839E-04    4.59      53.3  T
   7     -7.2746689  0.164244E-08  0.771E-04    4.59      58.0  T
     SCC iter.                  ...        0 min,  0.000 sec
     gradient                   ...        0 min,  0.001 sec
 * total energy  :    -7.1119737 Eh     change       -0.1264100E-01 Eh
   gradient norm :     0.1844718 Eh/α   predicted    -0.7568856E-02 ( -40.12%)
   displ. norm   :     0.2445148 α      lambda       -0.2225756E-01
   maximum displ.:     0.2077999 α      in ANC's #1, #6, #8, ...

........................................................................
.............................. CYCLE    9 ..............................
........................................................................
   1     -7.2683998 -0.726840E+01  0.139E+00    4.23       0.0  T
   2     -7.2684589 -0.591109E-04  0.803E-01    4.24       1.0  T
   3     -7.2684393  0.196132E-04  0.100E-01    4.24       1.0  T
   4     -7.2684748 -0.355104E-04  0.346E-02    4.24       1.3  T
   5     -7.2684760 -0.116673E-05  0.834E-03    4.24       5.4  T
   6     -7.2684759  0.398792E-07  0.300E-03    4.24      14.9  T
   7     -7.2684760 -0.239714E-07  0.206E-03    4.24      21.7  T
   8     -7.2684760 -0.265624E-07  0.353E-04    4.24     126.8  T
   9     -7.2684760 -0.224700E-10  0.965E-06    4.24    4634.2  T
     SCC iter.                  ...        0 min,  0.001 sec
     gradient                   ...        0 min,  0.001 sec
 * total energy  :    -7.1225342 Eh     change       -0.1056053E-01 Eh
   gradient norm :     0.0689950 Eh/α   predicted    -0.1179415E-01 (  11.68%)
   displ. norm   :     0.0406624 α      lambda       -0.1510784E-02
   maximum displ.:     0.0260161 α      in ANC's #6, #8, #1, ...

........................................................................
.............................. CYCLE   10 ..............................
........................................................................
   1     -7.2635757 -0.726358E+01  0.168E-01    4.22       0.0  T
   2     -7.2635780 -0.224748E-05  0.995E-02    4.22       1.0  T
   3     -7.2635780 -0.213596E-07  0.183E-02    4.22       2.4  T
   4     -7.2635786 -0.642437E-06  0.871E-03    4.22       5.1  T
   5     -7.2635787 -0.949719E-07  0.304E-03    4.22      14.7  T
   6     -7.2635787  0.611921E-07  0.346E-03    4.22      12.9  T
   7     -7.2635787 -0.728661E-07  0.148E-04    4.22     302.3  T
   8     -7.2635787 -0.290434E-11  0.729E-05    4.22     613.6  T
     SCC iter.                  ...        0 min,  0.000 sec
     gradient                   ...        0 min,  0.001 sec
 * total energy  :    -7.1236084 Eh     change       -0.1074211E-02 Eh
   gradient norm :     0.0461819 Eh/α   predicted    -0.7566408E-03 ( -29.56%)
   displ. norm   :     0.0266555 α      lambda       -0.1018196E-02
   maximum displ.:     0.0218597 α      in ANC's #6, #8, #4, ...

........................................................................
.............................. CYCLE   11 ..............................
........................................................................
   1     -7.2556402 -0.725564E+01  0.117E-01    4.14       0.0  T
   2     -7.2556409 -0.666488E-06  0.724E-02    4.14       1.0  T
   3     -7.2556412 -0.313566E-06  0.860E-03    4.15       5.2  T
   4     -7.2556413 -0.519066E-07  0.563E-03    4.15       7.9  T
   5     -7.2556413 -0.322215E-07  0.171E-03    4.15      26.2  T
   6     -7.2556413  0.206191E-07  0.208E-03    4.15      21.5  T
   7     -7.2556413 -0.284668E-07  0.106E-04    4.15     421.4  T
   8     -7.2556413 -0.182077E-11  0.520E-05    4.15     859.2  T
     SCC iter.                  ...        0 min,  0.000 sec
     gradient                   ...        0 min,  0.001 sec
 * total energy  :    -7.1242155 Eh     change       -0.6070517E-03 Eh
   gradient norm :     0.0113656 Eh/α   predicted    -0.5094614E-03 ( -16.08%)
   displ. norm   :     0.0073792 α      lambda       -0.7632159E-04
   maximum displ.:     0.0053107 α      in ANC's #4, #6, #1, ...

........................................................................
.............................. CYCLE   12 ..............................
........................................................................
   1     -7.2533351 -0.725334E+01  0.516E-02    4.12       0.0  T
   2     -7.2533351 -0.494999E-07  0.304E-02    4.12       1.5  T
   3     -7.2533351 -0.166880E-07  0.248E-03    4.12      18.0  T
   4     -7.2533351  0.351916E-08  0.130E-03    4.12      34.4  T
   5     -7.2533351 -0.410035E-08  0.727E-04    4.12      61.5  T
   6     -7.2533351 -0.167916E-08  0.430E-04    4.12     103.9  T
     SCC iter.                  ...        0 min,  0.000 sec
     gradient                   ...        0 min,  0.001 sec
 * total energy  :    -7.1242583 Eh     change       -0.4282450E-04 Eh
   gradient norm :     0.0015653 Eh/α   predicted    -0.3816319E-04 ( -10.88%)
   displ. norm   :     0.0027943 α      lambda       -0.2590317E-05
   maximum displ.:     0.0018329 α      in ANC's #4, #1, #8, ...

........................................................................
.............................. CYCLE   13 ..............................
........................................................................
   1     -7.2529073 -0.725291E+01  0.200E-02    4.11       0.0  T
   2     -7.2529074 -0.188342E-07  0.115E-02    4.11       3.9  T
   3     -7.2529074  0.183902E-08  0.151E-03    4.11      29.6  T
   4     -7.2529074 -0.451605E-08  0.645E-04    4.11      69.3  T
   5     -7.2529074 -0.183303E-09  0.399E-04    4.11     111.9  T
     SCC iter.                  ...        0 min,  0.001 sec
     gradient                   ...        0 min,  0.001 sec
 * total energy  :    -7.1242596 Eh     change       -0.1294334E-05 Eh
   gradient norm :     0.0006820 Eh/α   predicted    -0.1293534E-05 (  -0.06%)
   displ. norm   :     0.0006075 α      lambda       -0.2572410E-06
   maximum displ.:     0.0004976 α      in ANC's #1, #4, #6, ...

   *** GEOMETRY OPTIMIZATION CONVERGED AFTER 13 ITERATIONS ***

------------------------------------------------------------------------
 total energy gain   :        -0.1158624 Eh      -72.7047 kcal/mol
 total RMSD          :         0.8499977 a0        0.4498 Å
 total power (kW/mol):       -23.3997396 (step)********** (real)
------------------------------------------------------------------------

 ANCopt (total)                0 d,  0 h,  0 min,  0.027 sec
 optimizer setup                ...        0 min,  0.000 sec (  0.437%)
 model hessian                  ...        0 min,  0.000 sec (  0.641%)
 ANC generation                 ...        0 min,  0.000 sec (  0.296%)
 coordinate transformation      ...        0 min,  0.000 sec (  0.109%)
 single point calculation       ...        0 min,  0.026 sec ( 94.160%)
 optimization log               ...        0 min,  0.000 sec (  1.207%)
 hessian update                 ...        0 min,  0.000 sec (  0.105%)
 rational function              ...        0 min,  0.000 sec (  1.244%)

================
 final structure:
================
5
 xtb: 6.2.2 (9d81278992624c895f80dd42a50cac0aa55982e2)
C        -0.00575136883695   -0.33162523543747    0.01967832857083
C         0.65671162076531    1.06406754639869   -0.06970701809987
C        -0.61940991039836    1.08689705934945   -0.05792925630684
H        -0.00638288794075   -0.85564507789883    0.96717112200388
H        -0.02516645358924   -0.96369529241184   -0.85921317616799

 Bond Distances (Angstroems)
 ---------------------------
C1-C2=1.5475         C1-C3=1.5475         C1-H4=1.0827         C1-H5=1.0827         C2-C1=1.5475         C2-C3=1.2764         
C3-C1=1.5475         C3-C2=1.2764         H4-C1=1.0827         H5-C1=1.0827         
 C  H  Rav=1.0827 sigma=0.0000  Rmin=1.0827  Rmax=1.0827     2
 C  C  Rav=1.4571 sigma=0.1278  Rmin=1.2764  Rmax=1.5475     3

 selected bond angles (degree)
 --------------------
C3-C1-C2= 48.71                H4-C1-C2=119.16                H4-C1-C3=119.16                H5-C1-C2=119.16                
H5-C1-C3=119.16                H5-C1-H4=115.33                C3-C2-C1= 65.64                C2-C3-C1= 65.64                

 selected dihedral angles (degree)
 ---------------------------------
C3-C2-C1-H4=255.37            C3-C2-C1-H5=104.63            C2-C3-C1-H4=104.63            C2-C3-C1-H5=255.37            
           -------------------------------------------------
          |                Final Singlepoint                |
           -------------------------------------------------

          ...................................................
          :                      SETUP                      :
          :.................................................:
          :  # basis functions                  14          :
          :  # atomic orbitals                  14          :
          :  # shells                            8          :
          :  # electrons                        14          :
          :  max. iterations                   250          :
          :  Hamiltonian                  GFN2-xTB          :
          :  restarted?                      false          :
          :  GBSA solvation                  false          :
          :  PC potential                    false          :
          :  electronic temp.          300.0000000     K    :
          :  accuracy                    1.0000000          :
          :  -> integral cutoff          0.2500000E+02      :
          :  -> integral neglect         0.1000000E-07      :
          :  -> SCF convergence          0.1000000E-05 Eh   :
          :  -> wf. convergence          0.1000000E-03 e    :
          :  Broyden damping             0.4000000          :
          ...................................................

 iter      E             dE          RMSdq      gap      omega  full diag
   1     -7.2529074 -0.725291E+01  0.132E-04    4.11       0.0  T
   2     -7.2529074  0.986233E-11  0.711E-05    4.11     628.6  T
   3     -7.2529074  0.489679E-10  0.113E-04    4.11     394.2  T

   *** convergence criteria satisfied after 3 iterations ***

         #    Occupation            Energy/Eh            Energy/eV
      -------------------------------------------------------------
         1        2.0000           -0.6709336             -18.2570
         2        2.0000           -0.5939383             -16.1619
         3        2.0000           -0.5315570             -14.4644
         4        2.0000           -0.5178981             -14.0927
         5        2.0000           -0.4916337             -13.3780
         6        2.0000           -0.4137271             -11.2581
         7        1.0000           -0.3882410             -10.5646
         8        1.0000           -0.3658705              -9.9558 (HOMO)
         9                         -0.2147395              -5.8434 (LUMO)
        10                         -0.0611175              -1.6631
        11                          0.0399161               1.0862
        12                          0.1864861               5.0745
        13                          0.2344250               6.3790
        14                          0.6718603              18.2823
      -------------------------------------------------------------
                  HL-Gap            0.1511310 Eh            4.1125 eV
             Fermi-level           -0.3456445 Eh           -9.4055 eV

 transition dipole moment (au) for excitation:           7           8
     X       Y       Z   
  -0.9356   0.0167   0.0086  total (au/Debye):    0.936   2.379
 dE (eV)             :    0.609
 oscillator strength :  0.18468E-01

 SCC (total)                   0 d,  0 h,  0 min,  0.002 sec
 SCC setup                      ...        0 min,  0.000 sec (  2.320%)
 Dispersion                     ...        0 min,  0.000 sec (  0.466%)
 integral evaluation            ...        0 min,  0.001 sec ( 30.089%)
 zeroth order Hamiltonian       ...        0 min,  0.000 sec (  0.466%)
 iterations                     ...        0 min,  0.000 sec ( 10.011%)
 molecular gradient             ...        0 min,  0.001 sec ( 30.954%)
 printout                       ...        0 min,  0.001 sec ( 25.372%)

         :::::::::::::::::::::::::::::::::::::::::::::::::::::
         ::                     SUMMARY                     ::
         :::::::::::::::::::::::::::::::::::::::::::::::::::::
         :: total energy              -7.124259589676 Eh    ::
         :: gradient norm              0.000682074713 Eh/a0 ::
         :: HOMO-LUMO gap              4.112484084042 eV    ::
         ::.................................................::
         :: SCC energy                -7.252907363246 Eh    ::
         :: -> isotropic ES           -0.002101744684 Eh    ::
         :: -> anisotropic ES          0.002015597028 Eh    ::
         :: -> anisotropic XC          0.004133183246 Eh    ::
         :: -> dispersion             -0.001531400149 Eh    ::
         :: repulsion energy           0.128647749011 Eh    ::
         :: add. restraining           0.000000000000 Eh    ::
         :::::::::::::::::::::::::::::::::::::::::::::::::::::

           ------------------------------------------------- 
          |                Numerical Hessian                |
           ------------------------------------------------- 
step length          :   0.00500
SCC accuracy         :   0.30000
Hessian scale factor :   1.00000
frozen atoms in %    :   0.00000    0
RMS gradient         :   0.00068
estimated CPU  time      0.00 min
estimated wall time      0.00 min

writing file <hessian>.

 projected vibrational frequencies (cm-1)
eigval :       -0.00    -0.00    -0.00     0.00     0.00     0.00
eigval :     -377.03   722.84   935.12  1003.84  1015.94  1430.43
eigval :     1857.90  3029.84  3036.57
           -------------------------------------------------
          |                Property Printout                |
           -------------------------------------------------

    * Orbital Energies and Occupations

         #    Occupation            Energy/Eh            Energy/eV
      -------------------------------------------------------------
         1        2.0000           -0.6709336             -18.2570
         2        2.0000           -0.5939383             -16.1619
         3        2.0000           -0.5315570             -14.4644
         4        2.0000           -0.5178981             -14.0927
         5        2.0000           -0.4916337             -13.3780
         6        2.0000           -0.4137271             -11.2581
         7        1.0000           -0.3882410             -10.5646
         8        1.0000           -0.3658705              -9.9558 (HOMO)
         9                         -0.2147395              -5.8434 (LUMO)
        10                         -0.0611175              -1.6631
        11                          0.0399161               1.0862
        12                          0.1864861               5.0745
        13                          0.2344250               6.3790
        14                          0.6718603              18.2822
      -------------------------------------------------------------
                  HL-Gap            0.1511310 Eh            4.1125 eV
             Fermi-level           -0.3456445 Eh           -9.4055 eV

     #   Z        covCN         q      C6AA      α(0)
     1   6 C      3.796     0.012    20.377     6.428
     2   6 C      1.954    -0.056    32.602     9.221
     3   6 C      1.954    -0.056    32.602     9.221
     4   1 H      0.925     0.050     2.314     2.379
     5   1 H      0.925     0.050     2.314     2.379

 Mol. C6AA /au·bohr⁶  :        359.279681
 Mol. C8AA /au·bohr⁸  :       9246.054568
 Mol. α(0) /au        :         29.627542


Wiberg/Mayer (AO) data.
largest (>0.10) Wiberg bond orders for each atom
          total WBO             WBO to atom ...
     1  C   3.524        H    5 0.977    H    4 0.977    C    2 0.785    C    3 0.785
     2  C   2.893        C    3 2.089    C    1 0.785
     3  C   2.893        C    2 2.089    C    1 0.785
     4  H   0.997        C    1 0.977
     5  H   0.997        C    1 0.977

MOs/occ written to file <molden.input>


molecular dipole:
                 x           y           z       tot (Debye)
 q only:       -0.007      -0.411       0.024
   full:       -0.011      -0.626       0.037       1.593
molecular quadrupole (traceless):
                xx          xy          yy          xz          yz          zz
 q only:       -0.233       0.000      -0.231       0.007       0.041       0.463
Molecule has the following symmetry elements: (C2) 2*(sigma) 
It seems to be the C2v point group
  q+dip:        0.576      -0.036      -1.518       0.006       0.146       0.942
   full:       -0.156      -0.015      -1.085       0.015       0.138       1.242

           -------------------------------------------------
          |                Geometry Summary                 |
           -------------------------------------------------

      molecular mass/u    :       38.0480892
   center of mass at/Å    :        0.0091264       0.5261188      -0.0312204
  moments of inertia/u·Å² :        0.1147077E+02   0.2200651E+02   0.3010299E+02
rotational constants/cm⁻¹ :        0.1469617E+01   0.7660293E+00   0.5599987E+00

 * 3 selected distances

     #   Z        #   Z                                     value/Å
     2   6 C      3   6 C                                 1.2763801 (max)
     1   6 C      4   1 H                                 1.0827464
     1   6 C      5   1 H                                 1.0827464 (min)

 * 2 distinct bonds (by element types)

   Z      Z             #   av. dist./Å        max./Å        min./Å
   1 H    6 C           2     1.0827464     1.0827464     1.0827464
   6 C    6 C           1     1.2763801     1.2763801     1.2763801

           -------------------------------------------------
          |               Frequency Printout                |
           -------------------------------------------------
 projected vibrational frequencies (cm-1)
eigval :       -0.00    -0.00    -0.00     0.00     0.00     0.00
eigval :     -377.03   722.84   935.12  1003.84  1015.94  1430.43
eigval :     1857.90  3029.84  3036.57
 reduced masses (amu)
   1: 11.07   2: 10.79   3: 11.53   4: 10.11   5:  8.76   6: 11.98   7:  2.63   8: 11.59
   9:  3.53  10:  3.40  11: 11.34  12:  1.91  13: 11.96  14:  1.40  15:  2.13
 IR intensities (amu)
   1:  0.03   2:  0.03   3:  0.11   4:  0.03   5:  0.31   6:  0.11   7:  0.00   8:  0.47
   9:  0.27  10:  0.19  11:  0.41  12:  0.06  13:  0.43  14:  0.19  15:  0.27
 Raman intensities (amu)
   1:  0.00   2:  0.00   3:  0.00   4:  0.00   5:  0.00   6:  0.00   7:  0.00   8:  0.00
   9:  0.00  10:  0.00  11:  0.00  12:  0.00  13:  0.00  14:  0.00  15:  0.00
 output can be read by thermo (or use thermo option).
 writing <g98.out> molden fake output.
 recommended (thermochemical) frequency scaling factor: 1.0
           -------------------------------------------------
          |             Thermodynamic Functions             |
           -------------------------------------------------

c2v symmetry found (for desy threshold:  0.10E+00) used in thermo

          ...................................................
          :                      SETUP                      :
          :.................................................:
          :  # frequencies                           8      :
          :  # imaginary freq.                       1      :
          :  linear?                             false      :
          :  only rotor calc.                    false      :
          :  symmetry                              c2v      :
          :  rotational number                       2      :
          :  scaling factor                  1.0000000      :
          :  rotor cutoff                   50.0000000 cm⁻¹ :
          :  imag. cutoff                  -20.0000000 cm⁻¹ :
          :.................................................:

    mode    ω/cm⁻¹     T·S(HO)/kcal·mol⁻¹    T·S(FR)/kcal·mol⁻¹   T·S(vib)
   ------------------------------------------------------------------------
   ------------------------------------------------------------------------

   temp. (K)  partition function   enthalpy   heat capacity  entropy
                                   cal/mol     cal/K/mol   cal/K/mol   J/K/mol
 298.15  VIB   1.06                  144.114      2.089      0.600
         ROT  0.333E+04              888.752      2.981     19.099
         INT  0.353E+04             1032.866      5.070     19.699
         TR   0.227E+27             1481.254      4.968     36.821
         TOT                        2514.1202    10.0383    56.5194   236.4772

   temp. (K)  partition function   enthalpy   heat capacity  entropy
                                   cal/mol     cal/K/mol   cal/K/mol   J/K/mol
 120.00  VIB   1.00                    0.424      0.032      0.004
         ROT   850.                  357.707      2.981     16.386
         INT   850.                  358.131      3.013     16.390
         TR   0.580E+26              596.178      4.968     32.302
         TOT                         954.3090     7.9814    48.6913   203.7245

   temp. (K)  partition function   enthalpy   heat capacity  entropy
                                   cal/mol     cal/K/mol   cal/K/mol   J/K/mol
 100.00  VIB   1.00                    0.070      0.007      0.001
         ROT   647.                  298.089      2.981     15.842
         INT   647.                  298.159      2.988     15.843
         TR   0.441E+26              496.815      4.968     31.396
         TOT                         794.9736     7.9565    47.2393   197.6493

   temp. (K)  partition function   enthalpy   heat capacity  entropy
                                   cal/mol     cal/K/mol   cal/K/mol   J/K/mol
  80.00  VIB   1.00                    0.005      0.001      0.000
         ROT   463.                  238.471      2.981     15.177
         INT   463.                  238.476      2.982     15.177
         TR   0.316E+26              397.452      4.968     30.288
         TOT                         635.9281     7.9498    45.4654   190.2271

   temp. (K)  partition function   enthalpy   heat capacity  entropy
                                   cal/mol     cal/K/mol   cal/K/mol   J/K/mol
  60.00  VIB   1.00                    0.000      0.000     -0.000
         ROT   301.                  178.853      2.981     14.320
         INT   301.                  178.853      2.981     14.320
         TR   0.205E+26              298.089      4.968     28.860
         TOT                         476.9425     7.9491    43.1792   180.6617

   temp. (K)  partition function   enthalpy   heat capacity  entropy
                                   cal/mol     cal/K/mol   cal/K/mol   J/K/mol
  40.00  VIB   1.00                    0.000      0.000     -0.000
         ROT   164.                  119.236      2.981     13.111
         INT   164.                  119.236      2.981     13.111
         TR   0.112E+26              198.726      4.968     26.846
         TOT                         317.9616     7.9490    39.9571   167.1805

   temp. (K)  partition function   enthalpy   heat capacity  entropy
                                   cal/mol     cal/K/mol   cal/K/mol   J/K/mol
  20.00  VIB   1.00                    0.000      0.000     -0.000
         ROT   57.8                   59.618      2.981     11.045
         INT   57.8                   59.618      2.981     11.045
         TR   0.395E+25               99.363      4.968     23.404
         TOT                         158.9808     7.9490    34.4489   144.1342

   temp. (K)  partition function   enthalpy   heat capacity  entropy
                                   cal/mol     cal/K/mol   cal/K/mol   J/K/mol
  10.00  VIB   1.00                    0.000      0.000     -0.000
         ROT   20.5                   29.809      2.981      8.979
         INT   20.5                   29.809      2.981      8.978
         TR   0.139E+25               49.681      4.968     19.962
         TOT                          79.4904     7.9490    28.9407   121.0879

       T/K    H(0)-H(T)+PV         H(T)/Eh          T*S/Eh         G(T)/Eh
   ------------------------------------------------------------------------
    298.15    0.400651E-02    0.336967E-01    0.268542E-01    0.684247E-02
    120.00    0.152079E-02    0.312110E-01    0.931135E-02    0.218996E-01
    100.00    0.126687E-02    0.309570E-01    0.752806E-02    0.234290E-01
     80.00    0.101342E-02    0.307036E-01    0.579629E-02    0.249073E-01
     60.00    0.760056E-03    0.304502E-01    0.412863E-02    0.263216E-01
     40.00    0.506704E-03    0.301969E-01    0.254703E-02    0.276498E-01
     20.00    0.253352E-03    0.299435E-01    0.109796E-02    0.288456E-01
     10.00    0.126676E-03    0.298168E-01    0.461199E-03    0.293556E-01 (used)
   ------------------------------------------------------------------------

         :::::::::::::::::::::::::::::::::::::::::::::::::::::
         ::                  THERMODYNAMIC                  ::
         :::::::::::::::::::::::::::::::::::::::::::::::::::::
         :: total free energy          -7.094903949231 Eh   ::
         ::.................................................::
         :: total energy               -7.124259589563 Eh   ::
         :: zero point energy           0.029690163620 Eh   ::
         :: G(RRHO) w/o ZPVE           -0.000334523288 Eh   ::
         :: G(RRHO) contrib.            0.029355640333 Eh   ::
         :::::::::::::::::::::::::::::::::::::::::::::::::::::
imag cut-off (cm-1) :    5.00
 found            1  significant imaginary frequency
 writing imag mode distorted coords to xtbhess.xyz
 for further optimization.

optimized geometry written to: xtbopt.xyz


           -------------------------------------------------
          | TOTAL ENERGY               -7.124259589563 Eh   |
          | TOTAL ENTHALPY             -7.094442749927 Eh   |
          | TOTAL FREE ENERGY          -7.094903949231 Eh   |
          | GRADIENT NORM               0.000682108297 Eh/α |
          | HOMO-LUMO GAP               4.112483673861 eV   |
           -------------------------------------------------

------------------------------------------------------------------------
 * finished run on 2020/05/12 at 11:44:25.866     
------------------------------------------------------------------------
 total:
 * wall-time:     0 d,  0 h,  0 min,  0.103 sec
 *  cpu-time:     0 d,  0 h,  0 min,  0.102 sec
 * ratio c/w:     0.999 speedup
 SCF:
 * wall-time:     0 d,  0 h,  0 min,  0.004 sec
 *  cpu-time:     0 d,  0 h,  0 min,  0.004 sec
 * ratio c/w:     0.993 speedup
 ANC optimizer:
 * wall-time:     0 d,  0 h,  0 min,  0.030 sec
 *  cpu-time:     0 d,  0 h,  0 min,  0.030 sec
 * ratio c/w:     0.999 speedup
 numerical hessian:
 * wall-time:     0 d,  0 h,  0 min,  0.052 sec
 *  cpu-time:     0 d,  0 h,  0 min,  0.052 sec
 * ratio c/w:     0.999 speedup

