5
 energy: -7.124259589676 gnorm: 0.000682074713 xtb: 6.2.2 (9d81278992624c895f80dd42a50cac0aa55982e2)
C        -0.00575303652999   -0.33162517097351    0.01967892744197
C         0.65671694886643    1.06406398618805   -0.06971116760356
C        -0.61940442162481    1.08690020145104   -0.05792899115116
H        -0.00638399200962   -0.85564335645070    0.96717263765938
H        -0.02517449870726   -0.96369666022011   -0.85921140634837
