$hessian                                                                        
        0.1278820577   0.0067577921   0.0033824071  -0.0369389003  -0.0506521350
        0.0031630658  -0.0316328429   0.0466630794  -0.0026477603  -0.0296166254
       -0.0001287277  -0.0001637168  -0.0296936890  -0.0026400088  -0.0037339957
        0.0067577921   0.5066939610  -0.0000020662  -0.1062670992  -0.1468562394
        0.0084155022   0.1022809531  -0.1523195551   0.0065985051  -0.0001761009
       -0.0909194374   0.0988993888  -0.0025955452  -0.1165987291  -0.1139113299
        0.0033824071  -0.0000020662   0.5080187724   0.0064880344   0.0079475250
       -0.0236132329  -0.0059201679   0.0070716947  -0.0234334117  -0.0001285005
        0.1023519303  -0.2433669524  -0.0038217731  -0.1173690838  -0.2176051754
       -0.0369389003  -0.1062670992   0.0064880344   0.7880005509   0.0699543708
       -0.0122172416  -0.7540442508   0.0290499172   0.0061678328   0.0014492599
        0.0036831902  -0.0012866320   0.0015333404   0.0035796210   0.0008480063
       -0.0506521350  -0.1468562394   0.0079475250   0.0699543708   0.1684258822
       -0.0104685104  -0.0016800408   0.0105830322   0.0001681430  -0.0089673291
       -0.0152384093   0.0037943402  -0.0086548660  -0.0169142657  -0.0014414978
        0.0031630658   0.0084155022  -0.0236132329  -0.0122172416  -0.0104685104
        0.0047161169   0.0079888006  -0.0001086729   0.0133991775  -0.0025756661
        0.0127464318   0.0019434636   0.0036410413  -0.0105847506   0.0035544748
       -0.0316328429   0.1022809531  -0.0059201679  -0.7540442508  -0.0016800408
        0.0079888006   0.7823678715  -0.0920942374  -0.0025695589   0.0017016466
       -0.0040710395   0.0013909528   0.0016075756  -0.0044356353  -0.0008900266
        0.0466630794  -0.1523195551   0.0070716947   0.0290499172   0.0105830322
       -0.0001086729  -0.0920942374   0.1741856735  -0.0091044589   0.0084259295
       -0.0153745273   0.0036590135   0.0079553114  -0.0170746233  -0.0015175764
       -0.0026477603   0.0065985051  -0.0234334117   0.0061678328   0.0001681430
        0.0133991775  -0.0025695589  -0.0091044589   0.0045345821   0.0030325608
        0.0127146045   0.0018628415  -0.0039830744  -0.0103767938   0.0036368107
       -0.0296166254  -0.0001761009  -0.0001285005   0.0014492599  -0.0089673291
       -0.0025756661   0.0017016466   0.0084259295   0.0030325608   0.0109322706
        0.0007818509   0.0002824876   0.0155334483  -0.0000643505  -0.0006108818
       -0.0001287277  -0.0909194374   0.1023519303   0.0036831902  -0.0152384093
        0.0127464318  -0.0040710395  -0.0153745273   0.0127146045   0.0007818509
        0.1141219246  -0.1151357365  -0.0002652738   0.0074104495  -0.0126772302
       -0.0001637168   0.0988993888  -0.2433669524  -0.0012866320   0.0037943402
        0.0019434636   0.0013909528   0.0036590135   0.0018628415   0.0002824876
       -0.1151357365   0.2649773363  -0.0002230916   0.0087829939  -0.0254166890
       -0.0296936890  -0.0025955452  -0.0038217731   0.0015333404  -0.0086548660
        0.0036410413   0.0016075756   0.0079553114  -0.0039830744   0.0155334483
       -0.0002652738  -0.0002230916   0.0110193248   0.0035603736   0.0043868977
       -0.0026400088  -0.1165987291  -0.1173690838   0.0035796210  -0.0169142657
       -0.0105847506  -0.0044356353  -0.0170746233  -0.0103767938  -0.0000643505
        0.0074104495   0.0087829939   0.0035603736   0.1431771688   0.1295476343
       -0.0037339957  -0.1139113299  -0.2176051754   0.0008480063  -0.0014414978
        0.0035544748  -0.0008900266  -0.0015175764   0.0036368107  -0.0006108818
       -0.0126772302  -0.0254166890   0.0043868977   0.1295476343   0.2358305789
