5
 energy: -7.008397214428 gnorm: 0.074424035228 xtb: 6.2.2 (9d81278992624c895f80dd42a50cac0aa55982e2)
C        -0.00161700000000   -0.09326500000000    0.00553400000000
C         1.24943400000000    0.75707400000000   -0.05764100000000
C        -1.22240900000000    0.80129400000000   -0.03483100000000
H        -0.00340300000000   -0.67905900000000    0.94766600000000
H        -0.02200400000000   -0.78604500000000   -0.86072800000000
5
 energy: -7.018480600626 gnorm: 0.029438639996 xtb: 6.2.2 (9d81278992624c895f80dd42a50cac0aa55982e2)
C        -0.00206353487984   -0.11901164287726    0.00706183265687
C         1.15136812922825    0.77679508933545   -0.05779888469756
C        -1.12372008926165    0.81749515224834   -0.03680463263652
H        -0.00348302233649   -0.68409984028540    0.94876031939300
H        -0.02210048275027   -0.79117975842113   -0.86121863471578
5
 energy: -7.021009112392 gnorm: 0.015055968907 xtb: 6.2.2 (9d81278992624c895f80dd42a50cac0aa55982e2)
C        -0.00240684525696   -0.13881189031758    0.00823677241700
C         1.07437821414849    0.80610671272913   -0.05874095970178
C        -1.04576121224569    0.84403427216122   -0.03917662389623
H        -0.00384382903376   -0.70240136458710    0.94515898683037
H        -0.02236532761209   -0.80892872998566   -0.85547817564936
5
 energy: -7.044500217783 gnorm: 0.069820897392 xtb: 6.2.2 (9d81278992624c895f80dd42a50cac0aa55982e2)
C        -0.00341080001826   -0.19690265317678    0.01168384365203
C         0.93523065184419    0.89471476220016   -0.06255170720991
C        -0.90361989854129    0.92759863192807   -0.04558253052230
H        -0.00483615714779   -0.75942792076012    0.94878511095624
H        -0.02336279613685   -0.86598382019133   -0.85233471687606
5
 energy: -7.122710417858 gnorm: 0.049959885960 xtb: 6.2.2 (9d81278992624c895f80dd42a50cac0aa55982e2)
C        -0.00550958543174   -0.31783699853487    0.01886012915366
C         0.67024232944656    1.04303833413741   -0.06860090508539
C        -0.63365339110926    1.06635320514630   -0.05656839460690
H        -0.00607646926534   -0.84135337714029    0.97309410602669
H        -0.02500188364022   -0.95020216360855   -0.86678493548807
5
 energy: -6.270046075734 gnorm: 4.408303936787 xtb: 6.2.2 (9d81278992624c895f80dd42a50cac0aa55982e2)
C        -0.00741274480542   -0.42738765101374    0.02536082448789
C         0.42559939022579    1.16807561263080   -0.07348172261662
C        -0.38483061531749    1.18256911228709   -0.06600339460758
H        -0.00714006867612   -0.90677538412880    0.98425934007680
H        -0.02621496142676   -1.01648268977535   -0.87013504734049
5
 energy: -7.099332680431 gnorm: 0.258652084821 xtb: 6.2.2 (9d81278992624c895f80dd42a50cac0aa55982e2)
C        -0.00699560184239   -0.40337552160099    0.02393596615617
C         0.60698736110051    1.15012605471083   -0.07428558081261
C        -0.56672948018099    1.17111948975094   -0.06345500889000
H        -0.00711412833414   -0.90420261224464    0.98205835244332
H        -0.02614715074298   -1.01366841061614   -0.86825372889686
5
 energy: -7.111973679175 gnorm: 0.184471755836 xtb: 6.2.2 (9d81278992624c895f80dd42a50cac0aa55982e2)
C        -0.00655158274558   -0.37785181002885    0.02242133929711
C         0.61850959674904    1.11424987804582   -0.07228176813197
C        -0.57948493014826    1.13567246263852   -0.06122661710985
H        -0.00671724118682   -0.88128877469470    0.98093813046395
H        -0.02575484266838   -0.99078275596079   -0.86985108451924
5
 energy: -7.122534204526 gnorm: 0.068995034393 xtb: 6.2.2 (9d81278992624c895f80dd42a50cac0aa55982e2)
C        -0.00547424311697   -0.31585383213753    0.01874242060089
C         0.64457982191014    1.04901378105265   -0.06869087574487
C        -0.60778863866625    1.07139266877706   -0.05713233226842
H        -0.00633138796194   -0.84863280945540    0.96029134125106
H        -0.02498455216497   -0.95592080823678   -0.85321055383865
5
 energy: -7.123608415785 gnorm: 0.046181932255 xtb: 6.2.2 (9d81278992624c895f80dd42a50cac0aa55982e2)
C        -0.00570182751254   -0.32846066669077    0.01949060217856
C         0.64673970335673    1.05899793076262   -0.06930384671518
C        -0.60961761149831    1.08147368235960   -0.05770980823616
H        -0.00632441635445   -0.85202394728647    0.96622573205716
H        -0.02509484799144   -0.95998799914498   -0.85870267928437
5
 energy: -7.124215467486 gnorm: 0.011365593073 xtb: 6.2.2 (9d81278992624c895f80dd42a50cac0aa55982e2)
C        -0.00579396295012   -0.33366066706097    0.01979919351356
C         0.65370184630650    1.06419980654710   -0.06968345278632
C        -0.61640285729845    1.08693228641904   -0.05796269316358
H        -0.00635045305980   -0.85465820878775    0.96800973804468
H        -0.02515357299814   -0.96281421711741   -0.86016278560835
5
 energy: -7.124258291987 gnorm: 0.001565301118 xtb: 6.2.2 (9d81278992624c895f80dd42a50cac0aa55982e2)
C        -0.00577171867215   -0.33266388150563    0.01973998876433
C         0.65615658259592    1.06446227359907   -0.06972441413809
C        -0.61884225166629    1.08727380962861   -0.05795762755487
H        -0.00637598824935   -0.85549595985147    0.96742576996748
H        -0.02516562400812   -0.96357724187058   -0.85948371703886
5
 energy: -7.124259586321 gnorm: 0.000681962410 xtb: 6.2.2 (9d81278992624c895f80dd42a50cac0aa55982e2)
C        -0.00575136883695   -0.33162523543747    0.01967832857083
C         0.65671162076531    1.06406754639869   -0.06970701809987
C        -0.61940991039836    1.08689705934945   -0.05792925630684
H        -0.00638288794075   -0.85564507789883    0.96717112200388
H        -0.02516645358924   -0.96369529241184   -0.85921317616799
