$hessian                                                                        
        0.3575447661   0.0173505136   0.0344489787  -0.1966470290  -0.1175609328
        0.0419906447   0.0271447667  -0.0161056912  -0.0065389107  -0.1804419014
        0.1273863744  -0.0687276800  -0.0076006025  -0.0110702640  -0.0011730327
        0.0173505136   0.3688631187  -0.0882168479  -0.1551027400  -0.0730189303
        0.0313476366   0.0015703348  -0.2156903815  -0.0135809612   0.1323615687
       -0.0837093149   0.0727955641   0.0038203228   0.0035555080  -0.0023453917
        0.0344489787  -0.0882168479   0.0748222455   0.0423457712   0.0038537905
       -0.0396940201  -0.0058432090   0.0369234151   0.0451198923  -0.0716197756
        0.0469606887  -0.0783516362   0.0006682348   0.0004789536  -0.0018964815
       -0.1966470290  -0.1551027400   0.0423457712   0.8518126353  -0.0201810894
       -0.0543145178  -0.1805250320   0.1643644622   0.0281575835  -0.1321461164
        0.0011642603  -0.0379727570  -0.3424944579   0.0097551068   0.0217839200
       -0.1175609328  -0.0730189303   0.0038537905  -0.0201810894   0.2305617479
       -0.0054846605   0.1267778544  -0.0920014764  -0.0019791245   0.0009880490
       -0.0308939731   0.0034531303   0.0099761187  -0.0346473681   0.0001568642
        0.0419906447   0.0313476366  -0.0396940201  -0.0543145178  -0.0054846605
        0.0692170740   0.0294942080  -0.0295865847  -0.0367503613  -0.0410731011
        0.0036085536   0.0234483372   0.0239027661   0.0001150550  -0.0162210299
        0.0271447667   0.0015703348  -0.0058432090  -0.1805250320   0.1267778544
        0.0294942080   0.3558293460  -0.0129907203   0.0399829957  -0.1953105608
       -0.1269450118  -0.0615932194  -0.0071385200   0.0115875429  -0.0020407753
       -0.0161056912  -0.2156903815   0.0369234151   0.1643644622  -0.0920014764
       -0.0295865847  -0.0129907203   0.3833924412   0.0589619020  -0.1318907716
       -0.0789274474  -0.0682951459  -0.0033772790   0.0032268641   0.0019964135
       -0.0065389107  -0.0135809612   0.0451198923   0.0281575835  -0.0019791245
       -0.0367503613   0.0399829957   0.0589619020   0.0618618041  -0.0624716076
       -0.0424109863  -0.0682185990   0.0008699390  -0.0009908300  -0.0020127361
       -0.1804419014   0.1323615687  -0.0716197756  -0.1321461164   0.0009880490
       -0.0410731011  -0.1953105608  -0.1318907716  -0.0624716076   0.5133142349
       -0.0018299933   0.1698329163  -0.0054156564   0.0003711471   0.0053315681
        0.1273863744  -0.0837093149   0.0469606887   0.0011642603  -0.0308939731
        0.0036085536  -0.1269450118  -0.0789274474  -0.0424109863  -0.0018299933
        0.1928821779  -0.0083262842   0.0002243704   0.0006485576   0.0001680283
       -0.0687276800   0.0727955641  -0.0783516362  -0.0379727570   0.0034531303
        0.0234483372  -0.0615932194  -0.0682951459  -0.0682185990   0.1698329163
       -0.0083262842   0.1148216149  -0.0015392599   0.0003727357   0.0083002832
       -0.0076006025   0.0038203228   0.0006682348  -0.3424944579   0.0099761187
        0.0239027661  -0.0071385200  -0.0033772790   0.0008699390  -0.0054156564
        0.0002243704  -0.0015392599   0.3626492368  -0.0106435329  -0.0239016800
       -0.0110702640   0.0035555080   0.0004789536   0.0097551068  -0.0346473681
        0.0001150550   0.0115875429   0.0032268641  -0.0009908300   0.0003711471
        0.0006485576   0.0003727357  -0.0106435329   0.0272164384   0.0000240857
       -0.0011730327  -0.0023453917  -0.0018964815   0.0217839200   0.0001568642
       -0.0162210299  -0.0020407753   0.0019964135  -0.0020127361   0.0053315681
        0.0001680283   0.0083002832  -0.0239016800   0.0000240857   0.0118299644
