$hessian                                                                        
        0.8046427784  -0.0000031601  -0.0000021068  -0.8046427784   0.0000031601
        0.0000021068
       -0.0000031601  -0.0001766906  -0.0000000119   0.0000031601   0.0001766906
        0.0000000119
       -0.0000021068  -0.0000000119  -0.0001767445   0.0000021068   0.0000000119
        0.0001767445
       -0.8046427784   0.0000031601   0.0000021068   0.8046427784  -0.0000031601
       -0.0000021068
        0.0000031601   0.0001766906   0.0000000119  -0.0000031601  -0.0001766906
       -0.0000000119
        0.0000021068   0.0000000119   0.0001767445  -0.0000021068  -0.0000000119
       -0.0001767445
