[Molden Format]
[Title]
[Atoms] AU
N      1     7  0.14199820595168E+01 -0.11502254886600E+01  0.12666017347536E+01
C      2     6 -0.52370922458042E+00  0.18154201512934E+00 -0.91637639541697E-01
N      3     7  0.21268350581401E+01 -0.82254675653651E-01 -0.64088681295003E+00
H      4     1 -0.18485271759710E+01 -0.91314805681133E+00 -0.11950264777378E+01
H      5     1 -0.11745788273795E+01  0.19640862059858E+01  0.66094919546928E+00
[GTO]
           1 0
 s           4   1.0000000000000000     
   63.594024466941008      -0.19234388414721629     
   10.951417231523665      -0.23478107924953728     
  0.87999310257376984       0.37593753901700888     
  0.33538715296521110       0.14982889271862770     
 p           4   1.0000000000000000     
   7.2965040481495080       0.97658666315667420     
   1.8918745450712575       0.90372226730345739     
  0.66694432110824120       0.47404958461536373     
  0.26552202674130870        7.1516067715011844E-002

           2 0
 s           4   1.0000000000000000     
   51.049363095579913      -0.16312063210127389     
   8.7911227406887544      -0.19911024581000730     
  0.70640422258929825       0.31882047753655751     
  0.26922813413411617       0.12706504184240380     
 p           4   1.0000000000000000     
   5.8263656140800002       0.73716451545209605     
   1.5106896018720002       0.68216371614850257     
  0.53256483288000001       0.35783053929253711     
  0.21202323690600003        5.3983030275847881E-002

           3 0
 s           4   1.0000000000000000     
   63.594024466941008      -0.19234388414721629     
   10.951417231523665      -0.23478107924953728     
  0.87999310257376984       0.37593753901700888     
  0.33538715296521110       0.14982889271862770     
 p           4   1.0000000000000000     
   7.2965040481495080       0.97658666315667420     
   1.8918745450712575       0.90372226730345739     
  0.66694432110824120       0.47404958461536373     
  0.26552202674130870        7.1516067715011844E-002

           4 0
 s           3   1.0000000000000000     
   3.3702276975336001       0.27359110588908298     
  0.61389118221497996       0.26460540653860526     
  0.16614291148415999        8.2465947534082318E-002

           5 0
 s           3   1.0000000000000000     
   3.3702276975336001       0.27359110588908298     
  0.61389118221497996       0.26460540653860526     
  0.16614291148415999        8.2465947534082318E-002

[MO]
Sym=     1a
Ene=  -0.74410095727131997     
Spin= Alpha
Occup=     2.00000000
           1  0.37265364388895955     
           2  -4.0445870097394324E-002
           3  0.14209244933906504     
           4 -0.20519605670635499     
           5  0.25824246082016866     
           6  0.16677592721034332     
           7  -5.7905381864578408E-002
           8   2.9365462822605552E-002
           9  0.37266689084294019     
          10 -0.17825807158462176     
          11  -6.6099888497151940E-002
          12  0.16668982996406362     
          13   2.8967983405886490E-002
          14   2.9028258340066424E-002
Sym=     2a
Ene=  -0.62923861810060899     
Spin= Alpha
Occup=     2.00000000
           1  0.21405971876937258     
           2  0.32683773006675099     
           3  -2.9395736726103846E-002
           4  -7.2830398764172660E-002
           5 -0.46601322267740586     
           6   8.4995890327649412E-002
           7  -2.9767614627405976E-002
           8   1.5020375593698331E-002
           9  0.21384883126572901     
          10  0.23622609843270304     
          11 -0.16648887270375315     
          12  0.17192170058937711     
          13 -0.20820852773129406     
          14 -0.20846695555253494     
Sym=     3a
Ene=  -0.59564031635898096     
Spin= Alpha
Occup=     2.00000000
           1   6.3049870650192094E-004
           2  -9.5019690175186772E-002
           3 -0.40481183640308482     
           4 -0.26138870320176011     
           5   2.2746441175376526E-004
           6  -7.0869734245149502E-002
           7 -0.30317049862999967     
           8 -0.19527714620040720     
           9  -7.9430151616338002E-004
          10  -9.4599272725358882E-002
          11 -0.40490161947740744     
          12 -0.26143501639551925     
          13  0.17761086298048887     
          14 -0.17756445260438131     
Sym=     4a
Ene=  -0.58435876815485688     
Spin= Alpha
Occup=     2.00000000
           1 -0.53088356181252672     
           2  0.18396965052402703     
           3   8.0057482589887444E-002
           4 -0.19191067272252857     
           5  -1.6073228472644505E-004
           6  0.11049735556739974     
           7  0.16693391518198400     
           8 -0.29912196522829820     
           9  0.53109649933247305     
          10  -2.8065449052016109E-002
          11  0.15360488790406679     
          12 -0.22908282265092469     
          13   1.9330828459491250E-004
          14   7.4042454434279032E-005
Sym=     5a
Ene=  -0.54465472729696207     
Spin= Alpha
Occup=     2.00000000
           1   9.3935422079082495E-002
           2  0.39704801143101748     
           3  -7.8202098399980255E-002
           4  -2.2687250097520505E-002
           5  0.16994105605960669     
           6 -0.39768506190326258     
           7  0.13809262383509732     
           8  -7.0040054384907457E-002
           9   9.3118953925060408E-002
          10  0.33252096737640496     
          11 -0.17563299535269561     
          12  0.15140896377806581     
          13  0.27783533944076005     
          14  0.27771635209078688     
Sym=     6a
Ene=  -0.47643213430490233     
Spin= Alpha
Occup=     2.00000000
           1   8.6339882765887766E-004
           2  -7.9542686265140314E-002
           3 -0.34328337977328105     
           4 -0.22104879665953456     
           5  -6.2945719512620804E-005
           6   8.4553532871692760E-002
           7  0.36116606951205410     
           8  0.23236488025563845     
           9  -7.9722737182292029E-004
          10  -8.0645581200826488E-002
          11 -0.34274815927700958     
          12 -0.22131588663709939     
          13 -0.40340245625702226     
          14  0.40328253762701738     
Sym=     7a
Ene=  -0.45558563531029611     
Spin= Alpha
Occup=     2.00000000
           1  0.44122860213626175     
           2 -0.11563637508726284     
           3 -0.28497788139442781     
           4  0.48270968673100817     
           5   7.2589315486010185E-003
           6   2.4610773309779996E-002
           7  -8.5829616358273318E-003
           8   4.2745034890097353E-003
           9  0.44118428793932546     
          10  0.23429282318043448     
          11  0.24383119694173658     
          12 -0.46174734780568610     
          13   1.7609511905558557E-002
          14   1.7516762253220068E-002
Sym=     8a
Ene=  -0.43903521100272275     
Spin= Alpha
Occup=     2.00000000
           1 -0.30852038120207431     
           2 -0.36532455401992409     
           3  0.23126341391849303     
           4 -0.22719332783744542     
           5   3.7569687118957633E-004
           6 -0.17967872215165132     
           7 -0.27033446910281583     
           8  0.48536749838797366     
           9  0.30860464951490468     
          10  0.47832234950024344     
          11  -6.1731418837496520E-002
          12  -7.8652580366675565E-002
          13  -6.5859368721932719E-004
          14   6.0741555238692281E-004
Sym=     9a
Ene=  -0.33212616928047112     
Spin= Alpha
Occup=     0.00000000
           1  -1.5624465561703139E-006
           2 -0.15243360847230505     
           3 -0.65284829963143165     
           4 -0.42200911249380330     
           5  -1.0681773015307277E-004
           6   2.4014301279515097E-005
           7  -1.0161555264790973E-004
           8  -3.3770436887107353E-005
           9  -3.3441770968045259E-006
          10  0.15241888801540746     
          11  0.65290332977112131     
          12  0.42203667227163394     
          13   2.6284911983131802E-005
          14   4.7024590152057962E-005
Sym=    10a
Ene=  -0.10210708396675240     
Spin= Alpha
Occup=     0.00000000
           1 -0.11580922794357264     
           2  0.68221501711974541     
           3 -0.14458788297931383     
           4  -2.3125779742814077E-002
           5   1.2249566668418874E-003
           6 -0.24717413008061595     
           7 -0.37182029295169355     
           8  0.66672871759872965     
           9  0.11580505685547468     
          10 -0.58241268990503270     
          11  0.29463512028790168     
          12 -0.24586685478862738     
          13  -1.7320026893054928E-004
          14  -1.3086670383869207E-003
Sym=    11a
Ene=    6.7074698971057001E-002
Spin= Alpha
Occup=     0.00000000
           1  0.21841343881997391     
           2 -0.33848890553378980     
           3  0.16574247205162715     
           4 -0.13456873136620542     
           5  -1.1743133398551588     
           6 -0.22066712330224680     
           7   7.7746970174616709E-002
           8  -3.6831469498441190E-002
           9  0.21844729386957717     
          10 -0.39135813137123798     
          11   8.7543934818343827E-002
          12   5.2074120510899134E-003
          13  0.53432643942486424     
          14  0.53142251531581075     
Sym=    12a
Ene=   0.19023118401061387     
Spin= Alpha
Occup=     0.00000000
           1  0.30100439540142826     
           2 -0.30468362648881753     
           3  0.15588745095427428     
           4 -0.13038539640072425     
           5  0.20777328930580197     
           6  -1.0588079453785486     
           7  0.36516968623064988     
           8 -0.18905792923136464     
           9  0.30131185338054794     
          10 -0.35776226393757832     
          11   7.4456144248533890E-002
          12   1.5007080035880915E-002
          13 -0.58650184188890764     
          14 -0.58106332622071866     
Sym=    13a
Ene=   0.24765652454867038     
Spin= Alpha
Occup=     0.00000000
           1  -7.7114949278571745E-005
           2   2.6915206969479043E-002
           3  0.11039721173496853     
           4   7.0681825145061217E-002
           5  -3.2065107543731044E-003
           6 -0.21422363986885845     
           7 -0.93004430963601148     
           8 -0.59828911531350604     
           9  -1.0897076151502672E-003
          10   2.6032066020308765E-002
          11  0.11068323241987671     
          12   7.0238286916199461E-002
          13 -0.84656225547495567     
          14  0.85275026218665895     
Sym=    14a
Ene=   0.36733121279766218     
Spin= Alpha
Occup=     0.00000000
           1 -0.74131827358263314     
           2 -0.23710569146539906     
           3 -0.45652972994808833     
           4  0.79210859717953408     
           5  -2.6392877115134777E-004
           6  -4.4528655277145057E-002
           7  -6.8525109590412067E-002
           8  0.12015636944285864     
           9  0.74115223572076638     
          10 -0.34279660170336140     
          11 -0.41980114325361184     
          12  0.77345914430331786     
          13  -4.9549408064384888E-004
          14   1.1686817425027285E-003
