 Entering Gaussian System
 *********************************************
 Gaussian 98:
 frequency output generated by the xtb code
 *********************************************
                         Standard orientation:
 --------------------------------------------------------------------
  Center     Atomic     Atomic              Coordinates (Angstroms)
  Number     Number      Type              X           Y           Z
 --------------------------------------------------------------------
    1          6             0        0.703209   -0.357114    0.069139
    2          7             0       -0.629829   -0.431147   -0.060470
    3          6             0       -0.073380    0.788260   -0.008668
 --------------------------------------------------------------------
     1 basis functions        1 primitive gaussians
     1 alpha electrons        1 beta electrons

 Harmonic frequencies (cm**-1), IR intensities (KM/Mole),
 Raman scattering activities (A**4/amu), Raman depolarization ratios,
 reduced masses (AMU), force constants (mDyne/A) and normal coordinates:
                      1                      2                      3
                        a                      a                      a 
 Frequencies --   336.9574              1068.3953              1737.5739
 Red. masses --    12.6375                12.6011                12.6812
 Frc consts  --     0.0000                 0.0000                 0.0000
 IR Inten    --     3.4780                 1.3935                 0.1291
 Raman Activ --     0.0000                 0.0000                 0.0000
 Depolar     --     0.0000                 0.0000                 0.0000
 Atom AN      X      Y      Z        X      Y      Z        X      Y      Z
   1   6    -0.58  -0.03  -0.06    -0.05   0.59  -0.01    -0.53   0.22  -0.05
   2   7     0.31  -0.46   0.03    -0.45  -0.31  -0.04     0.48   0.33   0.05
   3   6     0.24   0.53   0.02     0.53  -0.26   0.05     0.01  -0.58   0.00
