5
 energy: -10.231477662167 gnorm: 0.000616520112 xtb: 6.2.2 (9d81278992624c895f80dd42a50cac0aa55982e2)
C        -1.70167984366124   -0.00627738695546    0.00673083223618
C        -0.52209419889604   -0.18779952454174   -0.73682310684805
C         0.72615506183974    0.00448926770835   -0.00327774974963
C        -0.51764135000207    0.18468557173689    0.74079222613330
C         2.01526133071613    0.00490207204497   -0.00742320177529
