 Entering Gaussian System
 *********************************************
 Gaussian 98:
 frequency output generated by the xtb code
 *********************************************
                         Standard orientation:
 --------------------------------------------------------------------
  Center     Atomic     Atomic              Coordinates (Angstroms)
  Number     Number      Type              X           Y           Z
 --------------------------------------------------------------------
    1          6             0        0.156657   -1.834681   -0.075973
    2          7             0       -0.250049    0.567242   -0.092052
    3          6             0       -0.232601    1.799742    0.107983
    4          6             0        0.325993   -0.532301    0.060042
 --------------------------------------------------------------------
     1 basis functions        1 primitive gaussians
     1 alpha electrons        1 beta electrons

 Harmonic frequencies (cm**-1), IR intensities (KM/Mole),
 Raman scattering activities (A**4/amu), Raman depolarization ratios,
 reduced masses (AMU), force constants (mDyne/A) and normal coordinates:
                      1                      2                      3
                        a                      a                      a 
 Frequencies --    40.8694               231.7309               468.9172
 Red. masses --    12.6760                12.4729                12.7011
 Frc consts  --     0.0000                 0.0000                 0.0000
 IR Inten    --     0.5118                 0.3785                 0.0643
 Raman Activ --     0.0000                 0.0000                 0.0000
 Depolar     --     0.0000                 0.0000                 0.0000
 Atom AN      X      Y      Z        X      Y      Z        X      Y      Z
   1   6    -0.19   0.01   0.42    -0.47   0.08  -0.15     0.18  -0.37   0.07
   2   7     0.23   0.06  -0.53     0.39  -0.04   0.28     0.49   0.23   0.23
   3   6    -0.21  -0.10   0.50    -0.45  -0.03  -0.23    -0.26   0.32  -0.06
   4   6     0.15   0.03  -0.35     0.50  -0.00   0.08    -0.45  -0.19  -0.25
                      4                      5                      6
                        a                      a                      a 
 Frequencies --  1100.0603              1403.9063              1714.7790
 Red. masses --    12.4086                12.4264                12.8121
 Frc consts  --     0.0000                 0.0000                 0.0000
 IR Inten    --     0.3333                 1.1777                 0.3853
 Raman Activ --     0.0000                 0.0000                 0.0000
 Depolar     --     0.0000                 0.0000                 0.0000
 Atom AN      X      Y      Z        X      Y      Z        X      Y      Z
   1   6    -0.07  -0.65  -0.06    -0.01  -0.35  -0.02     0.06   0.26   0.03
   2   7    -0.33   0.26  -0.15     0.05   0.44   0.09    -0.14   0.62   0.02
   3   6     0.01   0.41   0.07     0.03  -0.64  -0.08    -0.02  -0.25  -0.05
   4   6     0.42  -0.04   0.15    -0.07   0.50   0.01     0.11  -0.67   0.00
