4
 energy: -8.751333952074 gnorm: 0.173916127389 xtb: 6.2.2 (9d81278992624c895f80dd42a50cac0aa55982e2)
C        -0.79000200000000   -1.09030000000000   -0.11363500000000
N         0.00202700000000    0.00716400000000    0.40969000000000
C        -0.54836400000000    1.22513200000000   -0.15531800000000
C         1.33633900000000   -0.14199500000000   -0.14073700000000
4
 energy: -8.783991014793 gnorm: 0.097499241645 xtb: 6.2.2 (9d81278992624c895f80dd42a50cac0aa55982e2)
C        -0.78578299138201   -1.08399415550963   -0.06783029504704
N         0.00134639196193    0.00475625141155    0.27192671112664
C        -0.54536998662850    1.21972719161288   -0.10930187727574
C         1.32980658604859   -0.14048828751479   -0.09479453880386
4
 energy: -8.794388571368 gnorm: 0.042471487623 xtb: 6.2.2 (9d81278992624c895f80dd42a50cac0aa55982e2)
C        -0.75488770873993   -1.04108979740353   -0.03801958604581
N         0.00089600282070    0.00315604071226    0.17980602268535
C        -0.52391037445554    1.17246945392557   -0.07786271033758
C         1.27790208037476   -0.13453469723430   -0.06392372630196
4
 energy: -8.796935845575 gnorm: 0.013535490376 xtb: 6.2.2 (9d81278992624c895f80dd42a50cac0aa55982e2)
C        -0.77814851014748   -1.07295243244239   -0.01676321380946
N         0.00061812379788    0.00212760777661    0.11802557826554
C        -0.54013397092656    1.20923169620428   -0.05781557152909
C         1.31766435727616   -0.13840587153850   -0.04344679292699
4
 energy: -8.797096396746 gnorm: 0.002547967846 xtb: 6.2.2 (9d81278992624c895f80dd42a50cac0aa55982e2)
C        -0.77403496771877   -1.06738754776396   -0.01702568374958
N         0.00074950139865    0.00237418084361    0.11823298639293
C        -0.53781360293564    1.20315498868951   -0.05774585883601
C         1.31109906925576   -0.13814062176916   -0.04346144380734
4
 energy: -8.797137838452 gnorm: 0.007731524057 xtb: 6.2.2 (9d81278992624c895f80dd42a50cac0aa55982e2)
C        -0.77224871790962   -1.06562330099406   -0.01614614324564
N         0.00162320743516    0.00396451455706    0.11391998551949
C        -0.54024110123891    1.20262912088997   -0.05598432500331
C         1.31086661171336   -0.14096933445297   -0.04178951727055
4
 energy: -8.798140633970 gnorm: 0.038971630493 xtb: 6.2.2 (9d81278992624c895f80dd42a50cac0aa55982e2)
C        -0.76382793009017   -1.05794807364172   -0.01886861657317
N         0.00669341039643    0.01332677116656    0.11277520977142
C        -0.55505072469833    1.20192000276160   -0.05381875368560
C         1.31218524439206   -0.15729770028644   -0.04008783951265
4
 energy: -8.807150448443 gnorm: 0.050776431448 xtb: 6.2.2 (9d81278992624c895f80dd42a50cac0aa55982e2)
C        -0.72477971610152   -1.02053285970084   -0.03219760758001
N         0.03155556834797    0.05760971151506    0.10825712759580
C        -0.62454969047754    1.19644983181631   -0.04394236509809
C         1.31777383823109   -0.23352568363053   -0.03211715491771
4
 energy: -8.812831348588 gnorm: 0.044530684967 xtb: 6.2.2 (9d81278992624c895f80dd42a50cac0aa55982e2)
C        -0.68795486295107   -0.98355530915200   -0.04469608938731
N         0.05926637296889    0.10405618286320    0.09839419456729
C        -0.68830670654797    1.18443247347425   -0.03197452670485
C         1.31699519653015   -0.30493234718545   -0.02172357847514
4
 energy: -8.815893284865 gnorm: 0.025857490576 xtb: 6.2.2 (9d81278992624c895f80dd42a50cac0aa55982e2)
C        -0.65771057370642   -0.96253458461755   -0.05785031715447
N         0.08620175233631    0.15335445610779    0.08990006472440
C        -0.72336165290215    1.16432915433515   -0.01969279518290
C         1.29487047427225   -0.35514802582539   -0.01235695238704
4
 energy: -8.816841900909 gnorm: 0.009726919983 xtb: 6.2.2 (9d81278992624c895f80dd42a50cac0aa55982e2)
C        -0.64555496835140   -0.96763036219880   -0.06200551123894
N         0.09701676381055    0.17987652888958    0.07917449063063
C        -0.72572243893490    1.15827419511164   -0.01076306800213
C         1.27426064347574   -0.37051936180242   -0.00640591138956
4
 energy: -8.817126743562 gnorm: 0.003046729998 xtb: 6.2.2 (9d81278992624c895f80dd42a50cac0aa55982e2)
C        -0.63572582897450   -0.97857074907446   -0.06118987064642
N         0.10142949938438    0.19754356212631    0.06286875431014
C        -0.72765104963940    1.16410489484279   -0.00158432185680
C         1.26194737922952   -0.38307670789464   -0.00009456180693
4
 energy: -8.817275588166 gnorm: 0.004899475602 xtb: 6.2.2 (9d81278992624c895f80dd42a50cac0aa55982e2)
C        -0.62326763336471   -0.99172804742984   -0.05817237928440
N         0.09953504118439    0.21017848796431    0.04647419591709
C        -0.72507964515155    1.17455708701984    0.00701218007132
C         1.24881223733187   -0.39300652755430    0.00468600329600
4
 energy: -8.818173271166 gnorm: 0.021504461854 xtb: 6.2.2 (9d81278992624c895f80dd42a50cac0aa55982e2)
C        -0.57619285367171   -1.03089379723793   -0.05013820929648
N         0.08694416684849    0.24669537377719    0.00455500831806
C        -0.71630070238280    1.21120592885919    0.03069359420961
C         1.20554938920602   -0.42700650539844    0.01488960676880
4
 energy: -8.839800769525 gnorm: 0.121529447729 xtb: 6.2.2 (9d81278992624c895f80dd42a50cac0aa55982e2)
C        -0.43371341612325   -1.13895962600750   -0.03150947333021
N         0.05225266887838    0.35428546954076   -0.10523505007356
C        -0.69418138673978    1.31534681741629    0.09565838097311
C         1.07564213398465   -0.53067166094956    0.04108614243065
4
 energy: -8.852323656934 gnorm: 0.233781502818 xtb: 6.2.2 (9d81278992624c895f80dd42a50cac0aa55982e2)
C        -0.21270619536511   -1.24632882028248   -0.03312814794689
N         0.02034680275926    0.48788713896532   -0.17382565382482
C        -0.66683075770828    1.43578315425037    0.15239624994819
C         0.85919015031414   -0.67734047293321    0.05455755182352
4
 energy: -8.868700772929 gnorm: 0.101590515066 xtb: 6.2.2 (9d81278992624c895f80dd42a50cac0aa55982e2)
C        -0.32949141043806   -1.25469099068553   -0.01359996834700
N         0.01086935154758    0.40253684881598   -0.16793918744856
C        -0.63133609791961    1.42188424186967    0.13091878315863
C         0.94995815681010   -0.56972910000013    0.05062037263692
4
 energy: -8.870972818624 gnorm: 0.078308814725 xtb: 6.2.2 (9d81278992624c895f80dd42a50cac0aa55982e2)
C        -0.31686897300011   -1.24488423122471   -0.03738996483494
N         0.00583928048009    0.36662779641933   -0.06922286995580
C        -0.58907377340849    1.41233557599810    0.08948525144435
C         0.90010346592850   -0.53407814119272    0.01712758334639
4
 energy: -8.877207716097 gnorm: 0.059098898488 xtb: 6.2.2 (9d81278992624c895f80dd42a50cac0aa55982e2)
C        -0.25873090672620   -1.32100721981735   -0.02322921910313
N        -0.01359959983373    0.41578021770142   -0.13328570739331
C        -0.57457776352864    1.48369588185473    0.12381672517214
C         0.84690827008858   -0.57846787973880    0.03269820132430
4
 energy: -8.879047099241 gnorm: 0.037977650916 xtb: 6.2.2 (9d81278992624c895f80dd42a50cac0aa55982e2)
C        -0.27042414486302   -1.34560441681262   -0.02130914176831
N        -0.01806345390036    0.42528301920243   -0.14196782076662
C        -0.56222630446186    1.49022920886567    0.12936451783027
C         0.85071390322524   -0.56990681125548    0.03391244470467
4
 energy: -8.883736578273 gnorm: 0.065869866720 xtb: 6.2.2 (9d81278992624c895f80dd42a50cac0aa55982e2)
C        -0.27276728242412   -1.42999344952261   -0.02402564786176
N        -0.02620604766768    0.46746777213693   -0.15408954537648
C        -0.51667018832075    1.52199218363213    0.14377529862389
C         0.81564351841256   -0.55946550624645    0.03433989461435
4
 energy: -8.891582787779 gnorm: 0.058016247200 xtb: 6.2.2 (9d81278992624c895f80dd42a50cac0aa55982e2)
C        -0.27198435214474   -1.45740058381374   -0.00918298521621
N         0.03111388546461    0.50853986186189   -0.18845157737698
C        -0.54141017830324    1.51341068992042    0.16353538748993
C         0.78228064498338   -0.56454896796856    0.03409917510326
4
 energy: -8.906871216158 gnorm: 0.074332249924 xtb: 6.2.2 (9d81278992624c895f80dd42a50cac0aa55982e2)
C        -0.20856127363242   -1.66111083456865    0.02698306353570
N         0.17686897179332    0.67305656982357   -0.27259272409302
C        -0.56706821015841    1.54505416765415    0.21265658033982
C         0.59876051199751   -0.55699890290907    0.03295308021750
4
 energy: -8.912593974018 gnorm: 0.050712771687 xtb: 6.2.2 (9d81278992624c895f80dd42a50cac0aa55982e2)
C        -0.17196077861100   -1.67994708288597    0.01015742492729
N         0.12089706854705    0.64093200792223   -0.23193199716552
C        -0.51893281641725    1.57259648199167    0.19044313970883
C         0.56999652648120   -0.53358040702792    0.03133143252940
4
 energy: -8.915464432581 gnorm: 0.046064422726 xtb: 6.2.2 (9d81278992624c895f80dd42a50cac0aa55982e2)
C        -0.13458021009664   -1.70778555672723    0.00439727206172
N         0.09655092949182    0.63274535173741   -0.23157945515887
C        -0.49256950525706    1.60251451213820    0.19095484611704
C         0.53059878586187   -0.52747330714839    0.03622733698011
4
 energy: -8.921294029658 gnorm: 0.048518999497 xtb: 6.2.2 (9d81278992624c895f80dd42a50cac0aa55982e2)
C        -0.01098226596347   -1.77799818575542   -0.01262016429204
N         0.01015829314835    0.60159578170690   -0.24869896247459
C        -0.41320276274561    1.70291117996045    0.20235112966465
C         0.41402673556073   -0.52650777591194    0.05896799710198
4
 energy: -8.922271797750 gnorm: 0.029392507642 xtb: 6.2.2 (9d81278992624c895f80dd42a50cac0aa55982e2)
C         0.01877260930993   -1.79808684667704   -0.01108899670745
N         0.00584095096627    0.61552642853238   -0.26384513565987
C        -0.40196166680498    1.71572754114981    0.21044023895147
C         0.37734810652878   -0.53316612300516    0.06449389341585
4
 energy: -8.922594711521 gnorm: 0.026322362010 xtb: 6.2.2 (9d81278992624c895f80dd42a50cac0aa55982e2)
C         0.03649319801963   -1.78682031685105   -0.01047326233494
N        -0.00430671632921    0.61638968689098   -0.27491210352852
C        -0.39349762440255    1.71215507344923    0.21557599393879
C         0.36131114271213   -0.54172344348916    0.06980937192466
4
 energy: -8.923001016705 gnorm: 0.013375729500 xtb: 6.2.2 (9d81278992624c895f80dd42a50cac0aa55982e2)
C         0.06408370629852   -1.81002331496485   -0.01278654796791
N        -0.01924144433161    0.62193257098850   -0.27895994094967
C        -0.37324884072441    1.72551259594131    0.21745673265574
C         0.32840657875750   -0.53742085196496    0.07428975626184
4
 energy: -8.923228013095 gnorm: 0.009994611246 xtb: 6.2.2 (9d81278992624c895f80dd42a50cac0aa55982e2)
C         0.07118472391639   -1.81107265765403   -0.01604728286009
N        -0.03379935993163    0.61685288619659   -0.27359755520381
C        -0.36247133896025    1.72860284012680    0.21409909367498
C         0.32508597497549   -0.53438206866936    0.07554574438891
4
 energy: -8.923537473939 gnorm: 0.011388981400 xtb: 6.2.2 (9d81278992624c895f80dd42a50cac0aa55982e2)
C         0.08868232385290   -1.81259834922688   -0.02396446888168
N        -0.07106392825405    0.60564270628754   -0.26155126286960
C        -0.33755285412701    1.73815874827217    0.20640461119110
C         0.31993445852816   -0.53120210533283    0.07911112056018
4
 energy: -8.923758755804 gnorm: 0.010217986132 xtb: 6.2.2 (9d81278992624c895f80dd42a50cac0aa55982e2)
C         0.10514686324018   -1.81587672233241   -0.03247113811786
N        -0.11053741936267    0.59606358187845   -0.24666139518721
C        -0.31332496788688    1.75022239474104    0.19709398676457
C         0.31871552400938   -0.53040825428708    0.08203854654050
4
 energy: -8.923936756985 gnorm: 0.003988507618 xtb: 6.2.2 (9d81278992624c895f80dd42a50cac0aa55982e2)
C         0.11881931533582   -1.81905786733154   -0.04393607965832
N        -0.16051662488832    0.58584702001421   -0.21990135672256
C        -0.28578883594374    1.76371431339257    0.18081978512160
C         0.32748614549625   -0.53050246607524    0.08301765125928
4
 energy: -8.923967976577 gnorm: 0.003497101658 xtb: 6.2.2 (9d81278992624c895f80dd42a50cac0aa55982e2)
C         0.11672296207344   -1.82025606629813   -0.04529224684242
N        -0.16347638931975    0.58637460796404   -0.21198105479561
C        -0.28540660171250    1.76467424131395    0.17638124545422
C         0.33216002895882   -0.53079178297986    0.08089205618381
4
 energy: -8.923986331958 gnorm: 0.006800535522 xtb: 6.2.2 (9d81278992624c895f80dd42a50cac0aa55982e2)
C         0.12269440591969   -1.82796658645789   -0.05066475069814
N        -0.18053415319508    0.58310624156067   -0.19294270911279
C        -0.27658044167110    1.77629905730145    0.16586458974310
C         0.33442018894649   -0.53143771240422    0.07774287006783
4
 energy: -8.924010844615 gnorm: 0.003191210875 xtb: 6.2.2 (9d81278992624c895f80dd42a50cac0aa55982e2)
C         0.11877698105549   -1.82593367603704   -0.04883867644413
N        -0.17109720850210    0.58468606864483   -0.19464388358981
C        -0.28266944856537    1.77331931722817    0.16711093476802
C         0.33498967601199   -0.53207070983597    0.07637162526592
4
 energy: -8.924022849008 gnorm: 0.002049453762 xtb: 6.2.2 (9d81278992624c895f80dd42a50cac0aa55982e2)
C         0.12082008230260   -1.82575860923227   -0.04992812418708
N        -0.17454251132159    0.58348347027770   -0.19029958274608
C        -0.28071279758159    1.77486988967318    0.16469742079397
C         0.33443522660058   -0.53259375071860    0.07553028613918
4
 energy: -8.924048017215 gnorm: 0.002355268321 xtb: 6.2.2 (9d81278992624c895f80dd42a50cac0aa55982e2)
C         0.13159037885258   -1.82836311550905   -0.05455955382281
N        -0.19065556316284    0.57970356876563   -0.17414139384800
C        -0.27007180131372    1.78221873770145    0.15559001082575
C         0.32913698562399   -0.53355819095803    0.07311093684506
4
 energy: -8.924060932428 gnorm: 0.003161150578 xtb: 6.2.2 (9d81278992624c895f80dd42a50cac0aa55982e2)
C         0.14122568860703   -1.83098975622100   -0.05916333736674
N        -0.20740979855507    0.57640087560476   -0.15873456723750
C        -0.25891716391502    1.78823430096921    0.14675218542075
C         0.32510127386307   -0.53364442035297    0.07114571918349
4
 energy: -8.924071393269 gnorm: 0.001999207415 xtb: 6.2.2 (9d81278992624c895f80dd42a50cac0aa55982e2)
C         0.14771362289447   -1.83250656387492   -0.06258802846542
N        -0.21959550844234    0.57432738772327   -0.14638884359682
C        -0.25050639948980    1.79127537417204    0.13961896946034
C         0.32238828503768   -0.53309519802039    0.06935790260189
4
 energy: -8.924080557658 gnorm: 0.000677957431 xtb: 6.2.2 (9d81278992624c895f80dd42a50cac0aa55982e2)
C         0.15235193634455   -1.83302334087174   -0.06713786748614
N        -0.23458864914320    0.57138207904258   -0.12808973459458
C        -0.24119899997630    1.79360496876761    0.12909142371687
C         0.32343571277496   -0.53196270693844    0.06613617836384
4
 energy: -8.924083624052 gnorm: 0.001093139000 xtb: 6.2.2 (9d81278992624c895f80dd42a50cac0aa55982e2)
C         0.15498133800513   -1.83396663886729   -0.07003020710942
N        -0.24248344502752    0.56939428770247   -0.11474722081143
C        -0.23668089730298    1.79637629332237    0.12165104266590
C         0.32418300432537   -0.53180294215755    0.06312638525494
4
 energy: -8.924082943757 gnorm: 0.001964471789 xtb: 6.2.2 (9d81278992624c895f80dd42a50cac0aa55982e2)
C         0.15491828981589   -1.83394579499375   -0.07309548575516
N        -0.24735521514624    0.56754245051741   -0.09545893499948
C        -0.23454767749886    1.79791059602212    0.11110047404780
C         0.32698460282921   -0.53150625154578    0.05745394670684
4
 energy: -8.924086553987 gnorm: 0.000499172344 xtb: 6.2.2 (9d81278992624c895f80dd42a50cac0aa55982e2)
C         0.15666646863177   -1.83468036499250   -0.07597593360866
N        -0.25005161579539    0.56724040824623   -0.09205215862062
C        -0.23261046318889    1.79974070070518    0.10798572035279
C         0.32599561035251   -0.53229974395891    0.06004237187649
