      -----------------------------------------------------------      
     |                   =====================                   |     
     |                           x T B                           |     
     |                   =====================                   |     
     |                         S. Grimme                         |     
     |          Mulliken Center for Theoretical Chemistry        |     
     |                    University of Bonn                     |     
      -----------------------------------------------------------      

   * xtb version 6.2.2 (9d81278992624c895f80dd42a50cac0aa55982e2) compiled by '@Darwin' on 04/03/2020

   xtb is free software: you can redistribute it and/or modify it under
   the terms of the GNU Lesser General Public License as published by
   the Free Software Foundation, either version 3 of the License, or
   (at your option) any later version.
   
   xtb is distributed in the hope that it will be useful,
   but WITHOUT ANY WARRANTY; without even the implied warranty of
   MERCHANTABILITY or FITNESS FOR A PARTICULAR PURPOSE.  See the
   GNU Lesser General Public License for more details.
   
   Cite this work as:
   * S. Grimme, C. Bannwarth, P. Shushkov, J. Chem. Theory Comput., 2017,
     13, 1989-2009. DOI: 10.1021/acs.jctc.7b00118
   * C. Bannwarth, S. Ehlert and S. Grimme., J. Chem. Theory Comput., 2019,
     15, 1652-1671. DOI: 10.1021/acs.jctc.8b01176
   * P. Pracht, E. Caldeweyher, S. Ehlert, S. Grimme, ChemRxiv, 2019, preprint.
     DOI: 10.26434/chemrxiv.8326202.v1
   
   for DFT-D4:
   * E. Caldeweyher, C. Bannwarth and S. Grimme, J. Chem. Phys., 2017,
     147, 034112. DOI: 10.1063/1.4993215
   * E. Caldeweyher, S. Ehlert, A. Hansen, H. Neugebauer, S. Spicher,
     C. Bannwarth and S. Grimme, J. Chem. Phys., 2019, 150, 154122.
     DOI: 10.1063/1.5090222
   
   for sTDA-xTB:
   * S. Grimme and C. Bannwarth, J. Chem. Phys., 2016, 145, 054103.
     DOI: 10.1063/1.4959605
   
   in the mass-spec context:
   * V. Asgeirsson, C. Bauer and S. Grimme, Chem. Sci., 2017, 8, 4879.
     DOI: 10.1039/c7sc00601b
   
   for metadynamics refer to:
   * S. Grimme, J. Chem. Theory Comput., 2019, 155, 2847-2862
     DOI: 10.1021/acs.jctc.9b00143
   
   with help from (in alphabetical order)
   C. Bannwarth, F. Bohle, G. Brandenburg, E. Caldeweyher, M. Checinski,
   S. Dohm, S. Ehlert, S. Ehrlich, F. März, H. Neugebauer, J. Pisarek,
   P. Pracht, P. Shushkov, and S. Spicher.
   
 * started run on 2020/05/12 at 11:45:21.435     

           -------------------------------------------------
          |                Calculation Setup                |
           -------------------------------------------------

          program call               : xtb --input H2C1N2_4_S_2.input H2C1N2_4_S_2.xyz --ohess --molden --namespace H2C1N2_4_S_2 output.out
          calculation namespace      : H2C1N2_4_S_2
          coordinate file            : H2C1N2_4_S_2.xyz
          number of atoms            :                     5
          number of electrons        :                    16
          charge                     :                     0
          spin                       :                   1.0
          first test random number   :      0.26143428543192

   ID    Z sym.   atoms
    1    7 N      1, 3
    2    6 C      2
    3    1 H      4, 5

           -------------------------------------------------
          |                 G F N 2 - x T B                 |
           -------------------------------------------------

        Reference                      10.1021/acs.jctc.8b01176
      * Hamiltonian:
        H0-scaling (s, p, d)           1.850000    2.230000    2.230000
        zeta-weighting                 0.500000
      * Dispersion:
        s8                             2.700000
        a1                             0.520000
        a2                             5.000000
        s9                             5.000000
      * Repulsion:
        kExp                           1.500000    1.000000
        rExp                           1.000000
      * Coulomb:
        alpha                          2.000000
        third order                    shell-resolved
        anisotropic                    true
        a3                             3.000000
        a5                             4.000000
        cn-shift                       1.200000
        cn-exp                         4.000000
        max-rad                        5.000000


          ...................................................
          :                      SETUP                      :
          :.................................................:
          :  # basis functions                  14          :
          :  # atomic orbitals                  14          :
          :  # shells                            8          :
          :  # electrons                        16          :
          :  max. iterations                   250          :
          :  Hamiltonian                  GFN2-xTB          :
          :  restarted?                      false          :
          :  GBSA solvation                  false          :
          :  PC potential                    false          :
          :  electronic temp.          300.0000000     K    :
          :  accuracy                    1.0000000          :
          :  -> integral cutoff          0.2500000E+02      :
          :  -> integral neglect         0.1000000E-07      :
          :  -> SCF convergence          0.1000000E-05 Eh   :
          :  -> wf. convergence          0.1000000E-03 e    :
          :  Broyden damping             0.4000000          :
          ...................................................

 iter      E             dE          RMSdq      gap      omega  full diag
   1     -8.6277075 -0.862771E+01  0.545E+00    1.52       0.0  T
   2     -8.3668507  0.260857E+00  0.853E+00    1.03       1.0  T
   3     -8.7034084 -0.336558E+00  0.424E+00    0.74       1.0  T
   4     -8.7566031 -0.531947E-01  0.152E+00    0.85       1.0  T
   5     -8.7598124 -0.320931E-02  0.773E-01    0.75       1.0  T
   6     -8.7598906 -0.782315E-04  0.611E-01    0.77       1.0  T
   7     -8.7605361 -0.645517E-03  0.293E-01    0.77       1.0  T
   8     -8.7606233 -0.871943E-04  0.124E-01    0.77       1.0  T
   9     -8.7605515  0.718353E-04  0.128E-01    0.77       1.0  T
  10     -8.7606269 -0.754103E-04  0.330E-02    0.77       1.4  T
  11     -8.7606312 -0.431671E-05  0.687E-03    0.77       6.5  T
  12     -8.7606313 -0.960498E-07  0.151E-03    0.77      29.5  T
  13     -8.7606313 -0.102359E-08  0.702E-04    0.77      63.7  T
  14     -8.7606313 -0.119956E-08  0.228E-04    0.77     196.4  T

   *** convergence criteria satisfied after 14 iterations ***

         #    Occupation            Energy/Eh            Energy/eV
      -------------------------------------------------------------
         1        2.0000           -0.6625065             -18.0277
       ...           ...                  ...                  ...
         3        2.0000           -0.5602467             -15.2451
         4        2.0000           -0.5305601             -14.4373
         5        2.0000           -0.5175269             -14.0826
         6        2.0000           -0.4944947             -13.4559
         7        1.9986           -0.4161760             -11.3247
         8        1.0014           -0.4036845             -10.9848
         9        1.0000           -0.3548344              -9.6555 (HOMO)
        10        0.0000           -0.3265907              -8.8870 (LUMO)
        11                          0.0130819               0.3560
        12                          0.0708848               1.9289
        13                          0.0943414               2.5672
        14                          0.1437464               3.9115
      -------------------------------------------------------------
                  HL-Gap            0.0282437 Eh            0.7686 eV
             Fermi-level           -0.3753214 Eh          -10.2130 eV

 transition dipole moment (au) for excitation:           8           9
     X       Y       Z   
  -0.9358  -0.4448  -0.1263  total (au/Debye):    1.044   2.653
 dE (eV)             :    1.329
 oscillator strength :  0.50182E-01

 SCC (total)                   0 d,  0 h,  0 min,  0.004 sec
 SCC setup                      ...        0 min,  0.000 sec (  2.621%)
 Dispersion                     ...        0 min,  0.000 sec (  0.409%)
 integral evaluation            ...        0 min,  0.001 sec ( 21.281%)
 zeroth order Hamiltonian       ...        0 min,  0.000 sec (  0.513%)
 iterations                     ...        0 min,  0.001 sec ( 36.060%)
 molecular gradient             ...        0 min,  0.001 sec ( 21.144%)
 printout                       ...        0 min,  0.001 sec ( 17.641%)

         :::::::::::::::::::::::::::::::::::::::::::::::::::::
         ::                     SUMMARY                     ::
         :::::::::::::::::::::::::::::::::::::::::::::::::::::
         :: total energy              -8.713988648837 Eh    ::
         :: gradient norm              0.216560377127 Eh/a0 ::
         :: HOMO-LUMO gap              0.768550120091 eV    ::
         ::.................................................::
         :: SCC energy                -8.760631320595 Eh    ::
         :: -> isotropic ES            0.003276571703 Eh    ::
         :: -> anisotropic ES          0.000049548973 Eh    ::
         :: -> anisotropic XC          0.012019643650 Eh    ::
         :: -> dispersion             -0.001434897526 Eh    ::
         :: repulsion energy           0.046642680963 Eh    ::
         :: add. restraining           0.000000000000 Eh    ::
         :::::::::::::::::::::::::::::::::::::::::::::::::::::

      ----------------------------------------------------------- 
     |                   =====================                   |
     |                        A N C O P T                        |
     |                   =====================                   |
     |               Approximate Normal Coordinate               |
     |                Rational Function Optimizer                |
      ----------------------------------------------------------- 

          ...................................................
          :                      SETUP                      :
          :.................................................:
          :   optimization level            normal          :
          :   max. optcycles                   200          :
          :   ANC micro-cycles                  20          :
          :   degrees of freedom                 9          :
          :.................................................:
          :   RF solver                   davidson          :
          :   write xtbopt.log                true          :
          :   linear?                        false          :
          :   energy convergence         0.5000000E-05 Eh   :
          :   grad. convergence          0.1000000E-02 Eh/α :
          :   maximium RF displ.         1.0000000          :
          :   Hlow (freq-cutoff)         0.1000000E-01      :
          :   Hmax (freq-cutoff)         5.0000000          :
          :   S6 in model hess.         20.0000000          :
          ...................................................

generating ANC from model Hessian ...
Using Lindh-Hessian (1995)
 Shifting diagonal of input Hessian by    0.0000000000000000     
 Lowest  eigenvalues of input Hessian
   -0.000000    0.000000    0.000000    0.000000    0.000000    0.000000
    0.011851    0.014755    0.076666    0.113591    0.170755    0.752274
    0.983509    1.065386    1.305104
 Highest eigenvalues
    0.113591    0.170755    0.752274    0.983509    1.065386    1.305104


........................................................................
.............................. CYCLE    1 ..............................
........................................................................
   1     -8.7606313 -0.876063E+01  0.170E-04    0.77       0.0  T
   2     -8.7606313  0.222968E-08  0.578E-04    0.77      77.4  T
   3     -8.7606313 -0.231139E-08  0.873E-05    0.77     512.3  T
     SCC iter.                  ...        0 min,  0.000 sec
     gradient                   ...        0 min,  0.001 sec
 * total energy  :    -8.7139886 Eh     change        0.9902514E-09 Eh
   gradient norm :     0.2165573 Eh/α   predicted     0.0000000E+00 (-100.00%)
   displ. norm   :     0.4181712 α      lambda       -0.5810460E-01
   maximum displ.:     0.2525349 α      in ANC's #1, #3, #8, ...

........................................................................
.............................. CYCLE    2 ..............................
........................................................................
   1     -8.8173415 -0.881734E+01  0.201E+00    1.85       0.0  T
   2     -8.8077610  0.958048E-02  0.189E+00    1.79       1.0  T
   3     -8.8058760  0.188501E-02  0.177E+00    1.84       1.0  T
   4     -8.8187963 -0.129204E-01  0.628E-01    1.83       1.0  T
   5     -8.8205364 -0.174005E-02  0.177E-01    1.82       1.0  T
   6     -8.8205274  0.899940E-05  0.153E-01    1.82       1.0  T
   7     -8.8205435 -0.160897E-04  0.208E-02    1.82       2.1  T
   8     -8.8205447 -0.124631E-05  0.426E-03    1.82      10.5  T
   9     -8.8205448 -0.700707E-07  0.354E-03    1.82      12.6  T
  10     -8.8205448 -0.189466E-07  0.373E-04    1.82     120.0  T
  11     -8.8205448 -0.849916E-10  0.129E-04    1.82     347.8  T
     SCC iter.                  ...        0 min,  0.001 sec
     gradient                   ...        0 min,  0.001 sec
 * total energy  :    -8.7557015 Eh     change       -0.4171289E-01 Eh
   gradient norm :     0.1360894 Eh/α   predicted    -0.3413259E-01 ( -18.17%)
   displ. norm   :     0.5097117 α      lambda       -0.5702433E-01
   maximum displ.:     0.2640469 α      in ANC's #8, #6, #2, ...

........................................................................
.............................. CYCLE    3 ..............................
........................................................................
   1     -8.9048268 -0.890483E+01  0.292E+00    2.18       0.0  T
   2     -8.9086948 -0.386803E-02  0.193E+00    2.14       1.0  T
   3     -8.9121480 -0.345318E-02  0.114E+00    2.11       1.0  T
   4     -8.9143965 -0.224850E-02  0.285E-01    2.10       1.0  T
   5     -8.9146471 -0.250588E-03  0.944E-02    2.09       1.0  T
   6     -8.9146548 -0.770276E-05  0.174E-02    2.09       2.6  T
   7     -8.9146550 -0.166124E-06  0.628E-03    2.09       7.1  T
   8     -8.9146551 -0.104646E-06  0.131E-03    2.09      34.0  T
   9     -8.9146551 -0.127502E-09  0.172E-04    2.09     259.7  T
  10     -8.9146551 -0.616502E-10  0.578E-05    2.09     773.1  T
     SCC iter.                  ...        0 min,  0.001 sec
     gradient                   ...        0 min,  0.001 sec
 * total energy  :    -8.7467493 Eh     change        0.8952237E-02 Eh
   gradient norm :     0.2781485 Eh/α   predicted    -0.3591979E-01 (-501.24%)
   displ. norm   :     0.3102552 α      lambda       -0.7138070E-01
   maximum displ.:     0.2352144 α      in ANC's #3, #8, #5, ...

........................................................................
.............................. CYCLE    4 ..............................
........................................................................
   1     -8.8653326 -0.886533E+01  0.179E+00    1.94       0.0  T
   2     -8.8618319  0.350072E-02  0.159E+00    1.89       1.0  T
   3     -8.8728232 -0.109914E-01  0.644E-01    1.97       1.0  T
   4     -8.8742016 -0.137838E-02  0.296E-01    1.95       1.0  T
   5     -8.8743190 -0.117403E-03  0.595E-02    1.97       1.0  T
   6     -8.8743190 -0.212335E-07  0.254E-02    1.97       1.8  T
   7     -8.8743206 -0.151892E-05  0.404E-03    1.97      11.1  T
   8     -8.8743206  0.147415E-08  0.171E-03    1.97      26.1  T
   9     -8.8743206 -0.663486E-08  0.317E-04    1.97     141.3  T
  10     -8.8743206 -0.860432E-10  0.604E-05    1.97     740.9  T
     SCC iter.                  ...        0 min,  0.001 sec
     gradient                   ...        0 min,  0.001 sec
 * total energy  :    -8.7774800 Eh     change       -0.3073068E-01 Eh
   gradient norm :     0.0700839 Eh/α   predicted    -0.3912583E-01 (  27.32%)
   displ. norm   :     0.2466620 α      lambda       -0.8422496E-02
   maximum displ.:     0.1613916 α      in ANC's #2, #3, #6, ...

........................................................................
.............................. CYCLE    5 ..............................
........................................................................
   1     -8.8800250 -0.888003E+01  0.151E+00    2.56       0.0  T
   2     -8.8802581 -0.233072E-03  0.778E-01    2.54       1.0  T
   3     -8.8798063  0.451748E-03  0.307E-01    2.55       1.0  T
   4     -8.8803193 -0.512943E-03  0.106E-01    2.54       1.0  T
   5     -8.8803499 -0.306446E-04  0.277E-02    2.54       1.6  T
   6     -8.8803507 -0.781656E-06  0.133E-02    2.54       3.4  T
   7     -8.8803509 -0.190799E-06  0.149E-03    2.54      30.0  T
   8     -8.8803509 -0.799385E-09  0.569E-04    2.54      78.6  T
   9     -8.8803509 -0.345878E-09  0.583E-05    2.54     766.7  T
     SCC iter.                  ...        0 min,  0.001 sec
     gradient                   ...        0 min,  0.001 sec
 * total energy  :    -8.7833446 Eh     change       -0.5864579E-02 Eh
   gradient norm :     0.0470868 Eh/α   predicted    -0.4467467E-02 ( -23.82%)
   displ. norm   :     0.3251275 α      lambda       -0.7673142E-02
   maximum displ.:     0.2028258 α      in ANC's #3, #4, #2, ...

........................................................................
.............................. CYCLE    6 ..............................
........................................................................
   1     -8.8807150 -0.888071E+01  0.130E+00    2.37       0.0  T
   2     -8.8808544 -0.139463E-03  0.710E-01    2.39       1.0  T
   3     -8.8802896  0.564838E-03  0.326E-01    2.35       1.0  T
   4     -8.8808599 -0.570360E-03  0.118E-01    2.39       1.0  T
   5     -8.8809374 -0.774080E-04  0.251E-02    2.38       1.8  T
   6     -8.8809375 -0.121236E-06  0.444E-03    2.38      10.1  T
   7     -8.8809375 -0.114907E-07  0.138E-03    2.38      32.3  T
   8     -8.8809375 -0.419512E-08  0.517E-04    2.38      86.5  T
   9     -8.8809375 -0.592649E-09  0.562E-05    2.38     795.1  T
     SCC iter.                  ...        0 min,  0.001 sec
     gradient                   ...        0 min,  0.001 sec
 * total energy  :    -8.7859978 Eh     change       -0.2653236E-02 Eh
   gradient norm :     0.0289472 Eh/α   predicted    -0.4242129E-02 (  59.89%)
   displ. norm   :     0.1917194 α      lambda       -0.2769562E-02
   maximum displ.:     0.1503755 α      in ANC's #2, #1, #3, ...

........................................................................
.............................. CYCLE    7 ..............................
........................................................................
   1     -8.8922736 -0.889227E+01  0.642E-01    2.64       0.0  T
   2     -8.8921136  0.159983E-03  0.370E-01    2.65       1.0  T
   3     -8.8917044  0.409195E-03  0.407E-01    2.61       1.0  T
   4     -8.8925303 -0.825854E-03  0.314E-02    2.63       1.4  T
   5     -8.8925321 -0.180285E-05  0.137E-02    2.63       3.3  T
   6     -8.8925320  0.516300E-07  0.580E-03    2.63       7.7  T
   7     -8.8925321 -0.101018E-06  0.688E-04    2.63      65.0  T
   8     -8.8925321  0.361755E-10  0.309E-04    2.63     144.8  T
     SCC iter.                  ...        0 min,  0.001 sec
     gradient                   ...        0 min,  0.001 sec
 * total energy  :    -8.7873320 Eh     change       -0.1334254E-02 Eh
   gradient norm :     0.0289226 Eh/α   predicted    -0.1435682E-02 (   7.60%)
   displ. norm   :     0.0615247 α      lambda       -0.8883815E-03
   maximum displ.:     0.0370772 α      in ANC's #5, #2, #4, ...

........................................................................
.............................. CYCLE    8 ..............................
........................................................................
   1     -8.8929762 -0.889298E+01  0.319E-01    2.56       0.0  T
   2     -8.8928514  0.124872E-03  0.247E-01    2.58       1.0  T
   3     -8.8930168 -0.165412E-03  0.162E-01    2.57       1.0  T
   4     -8.8931139 -0.970767E-04  0.153E-02    2.57       2.9  T
   5     -8.8931139 -0.864632E-07  0.633E-03    2.57       7.1  T
   6     -8.8931140 -0.279892E-07  0.194E-03    2.57      23.1  T
   7     -8.8931140 -0.349535E-08  0.416E-04    2.57     107.5  T
   8     -8.8931140 -0.166352E-09  0.161E-04    2.57     277.5  T
     SCC iter.                  ...        0 min,  0.001 sec
     gradient                   ...        0 min,  0.001 sec
 * total energy  :    -8.7876404 Eh     change       -0.3083173E-03 Eh
   gradient norm :     0.0077147 Eh/α   predicted    -0.4458705E-03 (  44.61%)
   displ. norm   :     0.0750863 α      lambda       -0.2376278E-03
   maximum displ.:     0.0569049 α      in ANC's #1, #3, #2, ...

........................................................................
.............................. CYCLE    9 ..............................
........................................................................
   1     -8.8920678 -0.889207E+01  0.274E-01    2.56       0.0  T
   2     -8.8920585  0.927844E-05  0.145E-01    2.56       1.0  T
   3     -8.8919783  0.802493E-04  0.156E-01    2.55       1.0  T
   4     -8.8921065 -0.128275E-03  0.249E-02    2.56       1.8  T
   5     -8.8921081 -0.152873E-05  0.690E-03    2.56       6.5  T
   6     -8.8921081 -0.416241E-07  0.149E-03    2.56      30.0  T
   7     -8.8921081 -0.124974E-08  0.283E-04    2.56     157.9  T
   8     -8.8921081 -0.250749E-09  0.993E-05    2.56     450.3  T
     SCC iter.                  ...        0 min,  0.001 sec
     gradient                   ...        0 min,  0.001 sec
 * total energy  :    -8.7877831 Eh     change       -0.1427274E-03 Eh
   gradient norm :     0.0048436 Eh/α   predicted    -0.1194828E-03 ( -16.29%)
   displ. norm   :     0.0472535 α      lambda       -0.8775524E-04
   maximum displ.:     0.0414242 α      in ANC's #1, #5, #6, ...

........................................................................
.............................. CYCLE   10 ..............................
........................................................................
   1     -8.8930806 -0.889308E+01  0.171E-01    2.53       0.0  T
   2     -8.8930710  0.957431E-05  0.928E-02    2.54       1.0  T
   3     -8.8930493  0.217658E-04  0.101E-01    2.53       1.0  T
   4     -8.8931011 -0.518820E-04  0.119E-02    2.53       3.8  T
   5     -8.8931013 -0.166714E-06  0.423E-03    2.53      10.6  T
   6     -8.8931013 -0.404862E-08  0.128E-03    2.53      34.8  T
   7     -8.8931013 -0.316591E-08  0.148E-04    2.53     301.3  T
   8     -8.8931013 -0.239329E-10  0.691E-05    2.53     647.3  T
     SCC iter.                  ...        0 min,  0.001 sec
     gradient                   ...        0 min,  0.001 sec
 * total energy  :    -8.7878264 Eh     change       -0.4332790E-04 Eh
   gradient norm :     0.0050775 Eh/α   predicted    -0.4397658E-04 (   1.50%)
   displ. norm   :     0.0415526 α      lambda       -0.3860061E-04
   maximum displ.:     0.0289453 α      in ANC's #1, #2, #3, ...

........................................................................
.............................. CYCLE   11 ..............................
........................................................................
   1     -8.8923754 -0.889238E+01  0.173E-01    2.54       0.0  T
   2     -8.8923355  0.399025E-04  0.122E-01    2.54       1.0  T
   3     -8.8923866 -0.510413E-04  0.895E-02    2.53       1.0  T
   4     -8.8924200 -0.334382E-04  0.110E-02    2.54       4.1  T
   5     -8.8924201 -0.124315E-06  0.393E-03    2.54      11.4  T
   6     -8.8924201 -0.104345E-07  0.913E-04    2.54      49.0  T
   7     -8.8924201 -0.485807E-09  0.103E-04    2.54     433.5  T
     SCC iter.                  ...        0 min,  0.000 sec
     gradient                   ...        0 min,  0.001 sec
 * total energy  :    -8.7878480 Eh     change       -0.2159541E-04 Eh
   gradient norm :     0.0024046 Eh/α   predicted    -0.1933409E-04 ( -10.47%)
   displ. norm   :     0.0170906 α      lambda       -0.1334878E-04
   maximum displ.:     0.0137135 α      in ANC's #1, #2, #4, ...

........................................................................
.............................. CYCLE   12 ..............................
........................................................................
   1     -8.8925141 -0.889251E+01  0.630E-02    2.54       0.0  T
   2     -8.8925079  0.622797E-05  0.484E-02    2.54       1.0  T
   3     -8.8925167 -0.880215E-05  0.312E-02    2.54       1.4  T
   4     -8.8925205 -0.379525E-05  0.318E-03    2.54      14.1  T
   5     -8.8925205 -0.907554E-08  0.757E-04    2.54      59.1  T
   6     -8.8925205 -0.687608E-09  0.353E-04    2.54     126.8  T
     SCC iter.                  ...        0 min,  0.000 sec
     gradient                   ...        0 min,  0.001 sec
 * total energy  :    -8.7878555 Eh     change       -0.7508986E-05 Eh
   gradient norm :     0.0007872 Eh/α   predicted    -0.6675203E-05 ( -11.10%)
   displ. norm   :     0.0123707 α      lambda       -0.2995499E-05
   maximum displ.:     0.0092473 α      in ANC's #2, #5, #3, ...

........................................................................
.............................. CYCLE   13 ..............................
........................................................................
   1     -8.8925833 -0.889258E+01  0.425E-02    2.55       0.0  T
   2     -8.8925822  0.109591E-05  0.270E-02    2.55       1.7  T
   3     -8.8925818  0.433493E-06  0.243E-02    2.55       1.8  T
   4     -8.8925848 -0.297844E-05  0.275E-03    2.55      16.2  T
   5     -8.8925848 -0.136975E-07  0.970E-04    2.55      46.1  T
   6     -8.8925848 -0.971346E-09  0.348E-04    2.55     128.7  T
     SCC iter.                  ...        0 min,  0.001 sec
     gradient                   ...        0 min,  0.001 sec
 * total energy  :    -8.7878568 Eh     change       -0.1287859E-05 Eh
   gradient norm :     0.0008280 Eh/α   predicted    -0.1497317E-05 (  16.26%)
   displ. norm   :     0.0055609 α      lambda       -0.1114589E-05
   maximum displ.:     0.0046101 α      in ANC's #1, #3, #4, ...

   *** GEOMETRY OPTIMIZATION CONVERGED AFTER 13 ITERATIONS ***

------------------------------------------------------------------------
 total energy gain   :        -0.0738682 Eh      -46.3530 kcal/mol
 total RMSD          :         0.4957676 a0        0.2623 Å
 total power (kW/mol):       -14.9185261 (step)-6273.1109 (real)
------------------------------------------------------------------------

 ANCopt (total)                0 d,  0 h,  0 min,  0.031 sec
 optimizer setup                ...        0 min,  0.000 sec (  0.242%)
 model hessian                  ...        0 min,  0.000 sec (  0.304%)
 ANC generation                 ...        0 min,  0.000 sec (  0.184%)
 coordinate transformation      ...        0 min,  0.000 sec (  0.109%)
 single point calculation       ...        0 min,  0.029 sec ( 95.182%)
 optimization log               ...        0 min,  0.000 sec (  1.282%)
 hessian update                 ...        0 min,  0.000 sec (  0.120%)
 rational function              ...        0 min,  0.000 sec (  1.083%)

================
 final structure:
================
5
 xtb: 6.2.2 (9d81278992624c895f80dd42a50cac0aa55982e2)
N         0.07243129717814   -0.35795994339407    0.51843433868254
C        -1.14067475604378   -0.46677480123443    0.25092859674697
N         1.05829767596568    0.27685924111884    0.01000646111316
H        -1.68959881298718   -0.07607496755231   -0.59941295199455
H         1.69954459588714    0.62395047106197    0.72525155545189

 Bond Distances (Angstroems)
 ---------------------------
N1-C2=1.2470         N1-N3=1.2781         C2-N1=1.2470         C2-H4=1.0849         N3-N1=1.2781         N3-H5=1.0214         
H4-C2=1.0849         H5-N3=1.0214         
 C  H  Rav=1.0849 sigma=0.0000  Rmin=1.0849  Rmax=1.0849     1
 N  H  Rav=1.0214 sigma=0.0000  Rmin=1.0214  Rmax=1.0214     1
 N  C  Rav=1.2470 sigma=0.0000  Rmin=1.2470  Rmax=1.2470     1
 N  N  Rav=1.2781 sigma=0.0000  Rmin=1.2781  Rmax=1.2781     1

 selected bond angles (degree)
 --------------------
N3-N1-C2=135.11                H4-C2-N1=128.97                H5-N3-N1=111.99                

 selected dihedral angles (degree)
 ---------------------------------
H4-C2-N1-N3=  5.81            H5-N3-N1-C2=143.39            
           -------------------------------------------------
          |                Final Singlepoint                |
           -------------------------------------------------

          ...................................................
          :                      SETUP                      :
          :.................................................:
          :  # basis functions                  14          :
          :  # atomic orbitals                  14          :
          :  # shells                            8          :
          :  # electrons                        16          :
          :  max. iterations                   250          :
          :  Hamiltonian                  GFN2-xTB          :
          :  restarted?                      false          :
          :  GBSA solvation                  false          :
          :  PC potential                    false          :
          :  electronic temp.          300.0000000     K    :
          :  accuracy                    1.0000000          :
          :  -> integral cutoff          0.2500000E+02      :
          :  -> integral neglect         0.1000000E-07      :
          :  -> SCF convergence          0.1000000E-05 Eh   :
          :  -> wf. convergence          0.1000000E-03 e    :
          :  Broyden damping             0.4000000          :
          ...................................................

 iter      E             dE          RMSdq      gap      omega  full diag
   1     -8.8925848 -0.889258E+01  0.103E-04    2.55       0.0  T
   2     -8.8925848  0.297184E-11  0.495E-05    2.55     903.0  T
   3     -8.8925848  0.351719E-11  0.575E-05    2.55     777.7  T

   *** convergence criteria satisfied after 3 iterations ***

         #    Occupation            Energy/Eh            Energy/eV
      -------------------------------------------------------------
         1        2.0000           -0.6848647             -18.6361
       ...           ...                  ...                  ...
         3        2.0000           -0.5618306             -15.2882
         4        2.0000           -0.5513682             -15.0035
         5        2.0000           -0.5312415             -14.4558
         6        2.0000           -0.4973518             -13.5336
         7        2.0000           -0.4054090             -11.0317
         8        1.0000           -0.3841119             -10.4522
         9        1.0000           -0.3238750              -8.8131 (HOMO)
        10                         -0.2301942              -6.2639 (LUMO)
        11                          0.0907732               2.4701
        12                          0.1856799               5.0526
        13                          0.2231541               6.0723
        14                          0.6467564              17.5991
      -------------------------------------------------------------
                  HL-Gap            0.0936808 Eh            2.5492 eV
             Fermi-level           -0.3358975 Eh           -9.1402 eV

 transition dipole moment (au) for excitation:           8           9
     X       Y       Z   
  -0.9695  -0.3758   0.0408  total (au/Debye):    1.041   2.645
 dE (eV)             :    1.639
 oscillator strength :  0.61499E-01

 SCC (total)                   0 d,  0 h,  0 min,  0.002 sec
 SCC setup                      ...        0 min,  0.000 sec (  2.227%)
 Dispersion                     ...        0 min,  0.000 sec (  0.482%)
 integral evaluation            ...        0 min,  0.001 sec ( 31.293%)
 zeroth order Hamiltonian       ...        0 min,  0.000 sec (  0.443%)
 iterations                     ...        0 min,  0.000 sec ( 10.026%)
 molecular gradient             ...        0 min,  0.001 sec ( 30.203%)
 printout                       ...        0 min,  0.001 sec ( 24.901%)

         :::::::::::::::::::::::::::::::::::::::::::::::::::::
         ::                     SUMMARY                     ::
         :::::::::::::::::::::::::::::::::::::::::::::::::::::
         :: total energy              -8.787856813448 Eh    ::
         :: gradient norm              0.000864897498 Eh/a0 ::
         :: HOMO-LUMO gap              2.549183341946 eV    ::
         ::.................................................::
         :: SCC energy                -8.892584803817 Eh    ::
         :: -> isotropic ES            0.003673394277 Eh    ::
         :: -> anisotropic ES         -0.000283772747 Eh    ::
         :: -> anisotropic XC          0.013626669353 Eh    ::
         :: -> dispersion             -0.001447911593 Eh    ::
         :: repulsion energy           0.104728018740 Eh    ::
         :: add. restraining           0.000000000000 Eh    ::
         :::::::::::::::::::::::::::::::::::::::::::::::::::::

           ------------------------------------------------- 
          |                Numerical Hessian                |
           ------------------------------------------------- 
step length          :   0.00500
SCC accuracy         :   0.30000
Hessian scale factor :   1.00000
frozen atoms in %    :   0.00000    0
RMS gradient         :   0.00086
estimated CPU  time      0.00 min
estimated wall time      0.00 min

writing file <hessian>.

 projected vibrational frequencies (cm-1)
eigval :       -0.00    -0.00    -0.00     0.00     0.00     0.00
eigval :      318.94   528.49   676.28   919.43  1166.26  1270.02
eigval :     1709.99  2911.22  3248.26
           -------------------------------------------------
          |                Property Printout                |
           -------------------------------------------------

    * Orbital Energies and Occupations

         #    Occupation            Energy/Eh            Energy/eV
      -------------------------------------------------------------
         1        2.0000           -0.6848647             -18.6361
         2        2.0000           -0.6387936             -17.3825
         3        2.0000           -0.5618304             -15.2882
         4        2.0000           -0.5513683             -15.0035
         5        2.0000           -0.5312414             -14.4558
         6        2.0000           -0.4973518             -13.5336
         7        2.0000           -0.4054091             -11.0317
         8        1.0000           -0.3841119             -10.4522
         9        1.0000           -0.3238751              -8.8131 (HOMO)
        10                         -0.2301944              -6.2639 (LUMO)
        11                          0.0907735               2.4701
        12                          0.1856797               5.0526
        13                          0.2231541               6.0723
        14                          0.6467561              17.5991
      -------------------------------------------------------------
                  HL-Gap            0.0936807 Eh            2.5492 eV
             Fermi-level           -0.3358976 Eh           -9.1402 eV

     #   Z        covCN         q      C6AA      α(0)
     1   7 N      1.891     0.033    21.343     6.849
     2   6 C      1.851    -0.065    32.910     9.267
     3   7 N      1.856    -0.206    26.317     7.604
     4   1 H      0.925     0.074     2.047     2.237
     5   1 H      0.860     0.165     1.306     1.791

 Mol. C6AA /au·bohr⁶  :        325.335806
 Mol. C8AA /au·bohr⁸  :       7307.944563
 Mol. α(0) /au        :         27.747133


Wiberg/Mayer (AO) data.
largest (>0.10) Wiberg bond orders for each atom
          total WBO             WBO to atom ...
     1  N   3.153        C    2 1.771    N    3 1.378
     2  C   2.856        N    1 1.771    H    4 0.899    N    3 0.152
     3  N   2.462        N    1 1.378    H    5 0.928    C    2 0.152
     4  H   0.907        C    2 0.899
     5  H   0.962        N    3 0.928

MOs/occ written to file <molden.input>


molecular dipole:
                 x           y           z       tot (Debye)
Molecule has no symmetry elements
It seems to be the C1 point group
 q only:        0.025       0.110       0.140
   full:        0.090       0.258       0.114       0.752
molecular quadrupole (traceless):
                xx          xy          yy          xz          yz          zz
 q only:        1.042       0.472      -0.733       1.580       0.422      -0.310
  q+dip:        1.202       0.216      -1.119       4.185       1.048      -0.083
   full:        0.639       0.036      -0.183       3.829       1.390      -0.456

           -------------------------------------------------
          |                Geometry Summary                 |
           -------------------------------------------------

      molecular mass/u    :       42.0400238
   center of mass at/Å    :        0.0510816      -0.1472413       0.2507704
  moments of inertia/u·Å² :        0.3894458E+01   0.4118499E+02   0.4454180E+02
rotational constants/cm⁻¹ :        0.4328621E+01   0.4093150E+00   0.3784677E+00

 * 2 selected distances

     #   Z        #   Z                                     value/Å
     1   7 N      2   6 C                                 1.2470069 (min)
     1   7 N      3   7 N                                 1.2780559 (max)

 * 2 distinct bonds (by element types)

   Z      Z             #   av. dist./Å        max./Å        min./Å
   6 C    7 N           1     1.2470069     1.2470069     1.2470069
   7 N    7 N           1     1.2780559     1.2780559     1.2780559

           -------------------------------------------------
          |               Frequency Printout                |
           -------------------------------------------------
 projected vibrational frequencies (cm-1)
eigval :       -0.00    -0.00    -0.00     0.00     0.00     0.00
eigval :      318.94   528.49   676.28   919.43  1166.26  1270.02
eigval :     1709.99  2911.22  3248.26
 reduced masses (amu)
   1: 11.89   2:  7.96   3: 13.07   4: 12.55   5: 12.77   6: 11.25   7:  6.62   8:  7.69
   9:  5.42  10:  4.16  11:  2.97  12: 13.44  13: 12.69  14:  1.82  15:  1.83
 IR intensities (amu)
   1:  0.21   2:  0.09   3:  0.21   4:  0.08   5:  0.12   6:  0.26   7:  0.51   8:  0.17
   9:  0.61  10:  0.48  11:  0.55  12:  0.98  13:  0.75  14:  0.22  15:  0.09
 Raman intensities (amu)
   1:  0.00   2:  0.00   3:  0.00   4:  0.00   5:  0.00   6:  0.00   7:  0.00   8:  0.00
   9:  0.00  10:  0.00  11:  0.00  12:  0.00  13:  0.00  14:  0.00  15:  0.00
 output can be read by thermo (or use thermo option).
 writing <g98.out> molden fake output.
 recommended (thermochemical) frequency scaling factor: 1.0
           -------------------------------------------------
          |             Thermodynamic Functions             |
           -------------------------------------------------

c1  symmetry found (for desy threshold:  0.10E+00) used in thermo

          ...................................................
          :                      SETUP                      :
          :.................................................:
          :  # frequencies                           9      :
          :  # imaginary freq.                       0      :
          :  linear?                             false      :
          :  only rotor calc.                    false      :
          :  symmetry                               c1      :
          :  rotational number                       1      :
          :  scaling factor                  1.0000000      :
          :  rotor cutoff                   50.0000000 cm⁻¹ :
          :  imag. cutoff                  -20.0000000 cm⁻¹ :
          :.................................................:

    mode    ω/cm⁻¹     T·S(HO)/kcal·mol⁻¹    T·S(FR)/kcal·mol⁻¹   T·S(vib)
   ------------------------------------------------------------------------
   ------------------------------------------------------------------------

   temp. (K)  partition function   enthalpy   heat capacity  entropy
                                   cal/mol     cal/K/mol   cal/K/mol   J/K/mol
 298.15  VIB   1.46                  506.700      4.601      2.454
         ROT  0.646E+04              888.752      2.981     20.415
         INT  0.944E+04             1395.452      7.582     22.869
         TR   0.264E+27             1481.254      4.968     37.118
         TOT                        2876.7064    12.5499    59.9875   250.9877

   temp. (K)  partition function   enthalpy   heat capacity  entropy
                                   cal/mol     cal/K/mol   cal/K/mol   J/K/mol
 120.00  VIB   1.02                   23.669      0.849      0.246
         ROT  0.165E+04              357.707      2.981     17.702
         INT  0.169E+04              381.375      3.830     17.948
         TR   0.673E+26              596.178      4.968     32.599
         TOT                         977.5534     8.7978    50.5465   211.4864

   temp. (K)  partition function   enthalpy   heat capacity  entropy
                                   cal/mol     cal/K/mol   cal/K/mol   J/K/mol
 100.00  VIB   1.01                   10.238      0.503      0.124
         ROT  0.125E+04              298.089      2.981     17.158
         INT  0.127E+04              308.327      3.484     17.283
         TR   0.512E+26              496.815      4.968     31.693
         TOT                         805.1417     8.4524    48.9761   204.9159

   temp. (K)  partition function   enthalpy   heat capacity  entropy
                                   cal/mol     cal/K/mol   cal/K/mol   J/K/mol
  80.00  VIB   1.00                    3.075      0.227      0.045
         ROT   897.                  238.471      2.981     16.493
         INT   900.                  241.547      3.208     16.539
         TR   0.367E+26              397.452      4.968     30.585
         TOT                         638.9986     8.1764    47.1239   197.1666

   temp. (K)  partition function   enthalpy   heat capacity  entropy
                                   cal/mol     cal/K/mol   cal/K/mol   J/K/mol
  60.00  VIB   1.00                    0.440      0.057      0.008
         ROT   583.                  178.853      2.981     15.636
         INT   583.                  179.293      3.037     15.644
         TR   0.238E+26              298.089      4.968     29.157
         TOT                         477.3824     8.0056    44.8009   187.4471

   temp. (K)  partition function   enthalpy   heat capacity  entropy
                                   cal/mol     cal/K/mol   cal/K/mol   J/K/mol
  40.00  VIB   1.00                    0.010      0.003     -0.000
         ROT   317.                  119.236      2.981     14.427
         INT   317.                  119.245      2.984     14.427
         TR   0.130E+26              198.726      4.968     27.143
         TOT                         317.9711     7.9518    41.5705   173.9311

   temp. (K)  partition function   enthalpy   heat capacity  entropy
                                   cal/mol     cal/K/mol   cal/K/mol   J/K/mol
  20.00  VIB   1.00                    0.000      0.000     -0.001
         ROT   112.                   59.618      2.981     12.361
         INT   112.                   59.618      2.981     12.360
         TR   0.458E+25               99.363      4.968     23.701
         TOT                         158.9808     7.9490    36.0616   150.8817

   temp. (K)  partition function   enthalpy   heat capacity  entropy
                                   cal/mol     cal/K/mol   cal/K/mol   J/K/mol
  10.00  VIB   1.00                    0.000      0.000     -0.001
         ROT   39.7                   29.809      2.981     10.295
         INT   39.7                   29.809      2.981     10.293
         TR   0.162E+25               49.681      4.968     20.259
         TOT                          79.4904     7.9490    30.5529   127.8334

       T/K    H(0)-H(T)+PV         H(T)/Eh          T*S/Eh         G(T)/Eh
   ------------------------------------------------------------------------
    298.15    0.458432E-02    0.336285E-01    0.285020E-01    0.512647E-02
    120.00    0.155783E-02    0.306020E-01    0.966611E-02    0.209359E-01
    100.00    0.128308E-02    0.303272E-01    0.780483E-02    0.225224E-01
     80.00    0.101831E-02    0.300625E-01    0.600774E-02    0.240547E-01
     60.00    0.760757E-03    0.298049E-01    0.428369E-02    0.255212E-01
     40.00    0.506719E-03    0.295509E-01    0.264987E-02    0.269010E-01
     20.00    0.253352E-03    0.292975E-01    0.114936E-02    0.281481E-01
     10.00    0.126676E-03    0.291708E-01    0.486892E-03    0.286839E-01 (used)
   ------------------------------------------------------------------------

         :::::::::::::::::::::::::::::::::::::::::::::::::::::
         ::                  THERMODYNAMIC                  ::
         :::::::::::::::::::::::::::::::::::::::::::::::::::::
         :: total free energy          -8.759172879774 Eh   ::
         ::.................................................::
         :: total energy               -8.787856813628 Eh   ::
         :: zero point energy           0.029044149668 Eh   ::
         :: G(RRHO) w/o ZPVE           -0.000360215815 Eh   ::
         :: G(RRHO) contrib.            0.028683933853 Eh   ::
         :::::::::::::::::::::::::::::::::::::::::::::::::::::

optimized geometry written to: xtbopt.xyz


           -------------------------------------------------
          | TOTAL ENERGY               -8.787856813628 Eh   |
          | TOTAL ENTHALPY             -8.758685987944 Eh   |
          | TOTAL FREE ENERGY          -8.759172879774 Eh   |
          | GRADIENT NORM               0.000864815947 Eh/α |
          | HOMO-LUMO GAP               2.549181108527 eV   |
           -------------------------------------------------

------------------------------------------------------------------------
 * finished run on 2020/05/12 at 11:45:21.553     
------------------------------------------------------------------------
 total:
 * wall-time:     0 d,  0 h,  0 min,  0.117 sec
 *  cpu-time:     0 d,  0 h,  0 min,  0.117 sec
 * ratio c/w:     0.999 speedup
 SCF:
 * wall-time:     0 d,  0 h,  0 min,  0.004 sec
 *  cpu-time:     0 d,  0 h,  0 min,  0.004 sec
 * ratio c/w:     0.999 speedup
 ANC optimizer:
 * wall-time:     0 d,  0 h,  0 min,  0.034 sec
 *  cpu-time:     0 d,  0 h,  0 min,  0.034 sec
 * ratio c/w:     0.999 speedup
 numerical hessian:
 * wall-time:     0 d,  0 h,  0 min,  0.062 sec
 *  cpu-time:     0 d,  0 h,  0 min,  0.062 sec
 * ratio c/w:     0.999 speedup

