$hessian                                                                        
        0.8560920808   0.1810123602   0.0722244566  -0.5612928868  -0.0351147683
       -0.1462032885  -0.2182238327  -0.1437296041   0.0709974474  -0.0336714812
        0.0078039613  -0.0111118103  -0.0429038802  -0.0099719490   0.0140931948
        0.1810123602   0.1701402642  -0.0790297287  -0.0146387145  -0.0503337727
       -0.0179429950  -0.1489771423  -0.1325181328   0.0756112354   0.0056035522
        0.0192031210   0.0184196528  -0.0230000556  -0.0064914796   0.0029418355
        0.0722244566  -0.0790297287   0.1876065668  -0.1592168682  -0.0173766951
       -0.0594006031   0.1191037173   0.1058357570  -0.1219009541  -0.0232306167
        0.0095637209  -0.0190442904  -0.0088806889  -0.0189930542   0.0127392808
       -0.5612928868  -0.0146387145  -0.1592168682   0.7451798579   0.0331478802
        0.2253201806  -0.1132938915  -0.0449143646   0.0381598868  -0.0751687875
        0.0378183531  -0.1028589103   0.0045757080  -0.0114131542  -0.0014042889
       -0.0351147683  -0.0503337727  -0.0173766951   0.0331478802   0.1070561702
       -0.0669826233  -0.0377434862   0.0093662618   0.0104207801   0.0389354602
       -0.0626530004   0.0722534668   0.0007749141  -0.0034356589   0.0016850714
       -0.1462032885  -0.0179429950  -0.0594006031   0.2253201806  -0.0669826233
        0.2297545732   0.0130637524   0.0078830745   0.0021316573  -0.0904742003
        0.0760631486  -0.1744205148  -0.0017064441   0.0009793953   0.0019348873
       -0.2182238327  -0.1489771423   0.1191037173  -0.1132938915  -0.0377434862
        0.0130637524   0.4625542714   0.2566084175   0.0299943535   0.0044493050
        0.0032072558  -0.0036201172  -0.1354858521  -0.0730950449  -0.1585417060
       -0.1437296041  -0.1325181328   0.1058357570  -0.0449143646   0.0093662618
        0.0078830745   0.2566084175   0.1832660765  -0.0145739138   0.0038791310
       -0.0079178266  -0.0140459826  -0.0718435798  -0.0521963789  -0.0850989351
        0.0709974474   0.0756112354  -0.1219009541   0.0381598868   0.0104207801
        0.0021316573   0.0299943535  -0.0145739138   0.3176885627  -0.0045042644
       -0.0072846174   0.0108711814  -0.1346474233  -0.0641734843  -0.2087904473
       -0.0336714812   0.0056035522  -0.0232306167  -0.0751687875   0.0389354602
       -0.0904742003   0.0044493050   0.0038791310  -0.0045042644   0.1049695268
       -0.0478633632   0.1172175235  -0.0005785631  -0.0005547802   0.0009915580
        0.0078039613   0.0192031210   0.0095637209   0.0378183531  -0.0626530004
        0.0760631486   0.0032072558  -0.0079178266  -0.0072846174  -0.0478633632
        0.0496585254  -0.0792184480  -0.0009662070   0.0017091806   0.0008761959
       -0.0111118103   0.0184196528  -0.0190442904  -0.1028589103   0.0722534668
       -0.1744205148  -0.0036201172  -0.0140459826   0.0108711814   0.1172175235
       -0.0792184480   0.1832340293   0.0003733143   0.0025913109  -0.0006404054
       -0.0429038802  -0.0230000556  -0.0088806889   0.0045757080   0.0007749141
       -0.0017064441  -0.1354858521  -0.0718435798  -0.1346474233  -0.0005785631
       -0.0009662070   0.0003733143   0.1743925875   0.0950349283   0.1448612421
       -0.0099719490  -0.0064914796  -0.0189930542  -0.0114131542  -0.0034356589
        0.0009793953  -0.0730950449  -0.0521963789  -0.0641734843  -0.0005547802
        0.0017091806   0.0025913109   0.0950349283   0.0604143369   0.0795958323
        0.0140931948   0.0029418355   0.0127392808  -0.0014042889   0.0016850714
        0.0019348873  -0.1585417060  -0.0850989351  -0.2087904473   0.0009915580
        0.0008761959  -0.0006404054   0.1448612421   0.0795958323   0.1947566846
