[Molden Format]
[Title]
[Atoms] AU
N      1     7  0.13687517975920E+00 -0.67644520062874E+00  0.97969952564406E+00
C      2     6 -0.21555656494710E+01 -0.88206434025496E+00  0.47419534453693E+00
N      3     7  0.19998953857236E+01  0.52317765382688E+00  0.18901575148497E-01
H      4     1 -0.31928834274403E+01 -0.14374609935896E+00 -0.11327148135611E+01
H      5     1  0.32116844825472E+01  0.11790809719361E+01  0.13705134153300E+01
[GTO]
           1 0
 s           4   1.0000000000000000     
   63.594024466941008      -0.19234388414721629     
   10.951417231523665      -0.23478107924953728     
  0.87999310257376984       0.37593753901700888     
  0.33538715296521110       0.14982889271862770     
 p           4   1.0000000000000000     
   7.2965040481495080       0.97658666315667420     
   1.8918745450712575       0.90372226730345739     
  0.66694432110824120       0.47404958461536373     
  0.26552202674130870        7.1516067715011844E-002

           2 0
 s           4   1.0000000000000000     
   51.049363095579913      -0.16312063210127389     
   8.7911227406887544      -0.19911024581000730     
  0.70640422258929825       0.31882047753655751     
  0.26922813413411617       0.12706504184240380     
 p           4   1.0000000000000000     
   5.8263656140800002       0.73716451545209605     
   1.5106896018720002       0.68216371614850257     
  0.53256483288000001       0.35783053929253711     
  0.21202323690600003        5.3983030275847881E-002

           3 0
 s           4   1.0000000000000000     
   63.594024466941008      -0.19234388414721629     
   10.951417231523665      -0.23478107924953728     
  0.87999310257376984       0.37593753901700888     
  0.33538715296521110       0.14982889271862770     
 p           4   1.0000000000000000     
   7.2965040481495080       0.97658666315667420     
   1.8918745450712575       0.90372226730345739     
  0.66694432110824120       0.47404958461536373     
  0.26552202674130870        7.1516067715011844E-002

           4 0
 s           3   1.0000000000000000     
   3.3702276975336001       0.27359110588908298     
  0.61389118221497996       0.26460540653860526     
  0.16614291148415999        8.2465947534082318E-002

           5 0
 s           3   1.0000000000000000     
   3.3702276975336001       0.27359110588908298     
  0.61389118221497996       0.26460540653860526     
  0.16614291148415999        8.2465947534082318E-002

[MO]
Sym=     1a
Ene=  -0.68486465056597656     
Spin= Alpha
Occup=     2.00000000
           1 -0.54832312853274134     
           2  -9.1415485088817167E-002
           3 -0.12995526564885718     
           4  0.11116382778340962     
           5 -0.16816133358509855     
           6 -0.12971444589939016     
           7  -3.5734260111115350E-002
           8  -7.0966571019078530E-003
           9 -0.37787486777500884     
          10  0.21353358415591145     
          11  0.10852343770186761     
          12 -0.10838749561703789     
          13  -2.4030423734401490E-002
          14  -5.7268847696467257E-002
Sym=     2a
Ene=  -0.63879360281559838     
Spin= Alpha
Occup=     2.00000000
           1 -0.19674702465445357     
           2  0.41454604416394114     
           3  0.11252919392919955     
           4   7.6667195271298387E-003
           5 -0.43165023265479713     
           6 -0.14906684034812170     
           7  -8.5555176370173611E-003
           8  -4.2038641619568655E-002
           9  0.36275665789122374     
          10   1.4807372682737593E-002
          11  -4.0599937025727686E-002
          12  0.11174150528928778     
          13  -9.7134184441922039E-002
          14  0.13485004454715688     
Sym=     3a
Ene=  -0.56183042879758016     
Spin= Alpha
Occup=     2.00000000
           1 -0.18338951629856065     
           2 -0.21722009867124556     
           3  0.18196525971317404     
           4  0.16473200115987308     
           5  0.28812948291017115     
           6 -0.10424909526123323     
           7   9.0699695286131254E-002
           8   1.7555970809639009E-002
           9  0.27473606921887928     
          10  0.27696303895734964     
          11  0.34417277192391504     
          12  0.13962241253132848     
          13  0.17853410335922595     
          14  0.36176151357721242     
Sym=     4a
Ene=  -0.55136834073111218     
Spin= Alpha
Occup=     2.00000000
           1 -0.30335863939480096     
           2   4.6808529805597771E-002
           3  0.18719045757799127     
           4 -0.43701256571239250     
           5  0.14569539067609313     
           6 -0.17879849097178149     
           7  0.10800920327219440     
           8 -0.29631054045074912     
           9  0.13635383847696536     
          10 -0.20521114917479089     
          11  -5.1004671668135101E-003
          12 -0.24062323050501047     
          13  0.29315843134123054     
          14 -0.14755840796513570     
Sym=     5a
Ene=  -0.53124138701019585     
Spin= Alpha
Occup=     2.00000000
           1  -1.0662491611472796E-002
           2 -0.11923037027172671     
           3  0.58131358172139980     
           4  0.17645211547634326     
           5 -0.17526977543321096     
           6   2.6586617679427792E-002
           7  0.25902044044131162     
           8  0.12841036772575543     
           9 -0.18688753864049043     
          10 -0.37135805720526294     
          11  0.28852197710217631     
          12   8.5081120519969564E-002
          13 -0.11450286330798992     
          14 -0.14446490218523172     
Sym=     6a
Ene=  -0.49735184677360855     
Spin= Alpha
Occup=     2.00000000
           1  0.12973906629346027     
           2  0.30017386642210425     
           3   1.1804767904350994E-002
           4  0.35526588864024139     
           5  0.17495012748063818     
           6 -0.33625915433123804     
           7   5.2195665550405848E-002
           8  -5.7826677127772258E-002
           9 -0.34406719876560143     
          10  -6.3324480178337125E-002
          11 -0.25014505648433638     
          12  0.38664936550103485     
          13  0.32885369401740572     
          14  -6.0241824320242846E-002
Sym=     7a
Ene=  -0.40540907543800903     
Spin= Alpha
Occup=     1.99998644
           1   5.1970360843025150E-003
           2   4.7944346980439305E-002
           3   5.5510300040160658E-002
           4  0.32227840638648125     
           5  0.20895974289352304     
           6 -0.32621472865654694     
           7   6.0497831224956528E-002
           8  0.47714449638843859     
           9  0.39355068422505396     
          10   4.2315997403975805E-002
          11 -0.19595251390940768     
          12 -0.52605541468888439     
          13  -1.9188279020676661E-002
          14 -0.23781648410665623     
Sym=     8a
Ene=  -0.38411191633939240     
Spin= Alpha
Occup=     1.00001356
           1   3.7655448580293911E-002
           2  0.15457281403584239     
           3 -0.20187528004440514     
           4   8.3444543818943701E-002
           5  0.15072477361406222     
           6 -0.19118373016049028     
           7 -0.59839166237305375     
           8   2.1858781600735778E-002
           9   8.4266544620029790E-002
          10 -0.44201717217263065     
          11  0.57916232037249071     
          12  -1.9065942840317688E-003
          13  -6.6006225667036298E-003
          14  -6.0884082049441700E-002
Sym=     9a
Ene=  -0.32387511391142287     
Spin= Alpha
Occup=     1.00000000
           1  0.33754299869932358     
           2   9.9254956115554141E-002
           3 -0.27340147850224172     
           4  0.48307361139571503     
           5 -0.38246206361572743     
           6  0.19274564934734800     
           7  0.29214739197987366     
           8 -0.40635318192914432     
           9  0.10807454050779486     
          10   3.9518822903602500E-002
          11  0.32036800910950702     
          12 -0.37633386665398472     
          13  0.31078403334165045     
          14  -9.5386399818116654E-002
Sym=    10a
Ene=  -0.23019443195263828     
Spin= Alpha
Occup=     0.00000000
           1  -4.1869124107653234E-002
           2 -0.17815179912206991     
           3  0.59931231944136287     
           4  0.38994357181825995     
           5  -1.9287211984746432E-003
           6  0.19941511291439334     
           7 -0.63466967948088937     
           8 -0.42536687960143393     
           9  0.11357437230050878     
          10  0.19296447958100846     
          11 -0.31907601945786757     
          12 -0.11575615163440987     
          13   6.9311276347198188E-003
          14 -0.13543031234546210     
Sym=    11a
Ene=    9.0773473816841949E-002
Spin= Alpha
Occup=     0.00000000
           1  0.42416413086289784     
           2   7.5488725597299175E-002
           3  0.24915483593235210     
           4 -0.13200661418006374     
           5 -0.17654745960214210     
           6 -0.26495335066766751     
           7 -0.14719416703463137     
           8   4.5909542207316002E-002
           9 -0.79106573863425755     
          10 -0.14667574837502967     
          11 -0.10181426228437611     
          12 -0.66770766925220471     
          13   4.7959345825210886E-002
          14  0.97714833873274476     
Sym=    12a
Ene=   0.18567965583788329     
Spin= Alpha
Occup=     0.00000000
           1  0.35926502201734062     
           2  0.35305299453548200     
           3  0.12196313752148114     
           4  -3.0404617776321360E-002
           5  0.68303294545079074     
           6 -0.35627829703848207     
           7  0.26606647408320233     
           8 -0.58722319341769003     
           9 -0.17053547097681229     
          10  0.38421233928001486     
          11  0.27002503192553534     
          12 -0.10573426523253927     
          13  -1.0026402522759861     
          14 -0.18849439013579464     
Sym=    13a
Ene=   0.22315412475005811     
Spin= Alpha
Occup=     0.00000000
           1 -0.72607227823654996     
           2  -5.5984664554577693E-002
           3 -0.32445534674623649     
           4  0.49791195313616371     
           5  0.49708812324933099     
           6  0.26908231117931131     
           7  0.25000961557496271     
           8 -0.31461897728031391     
           9  0.10097629316725286     
          10 -0.75680004847735238     
          11 -0.39487497937943200     
          12 -0.10557895347463553     
          13 -0.41756936711132298     
          14  0.53270324720389628     
Sym=    14a
Ene=   0.64675613854173730     
Spin= Alpha
Occup=     0.00000000
           1  0.44353939773971368     
           2  -1.0949833470067780     
           3 -0.28007219384949406     
           4   7.9808318691195861E-003
           5 -0.53985252291288044     
           6 -0.96296799329768457     
           7   4.3835016434855052E-002
           8 -0.41709641001965519     
           9  0.35974792644410741     
          10 -0.26130729801198832     
          11 -0.24276226279853605     
          12  0.22479321421706439     
          13 -0.34294736039256180     
          14   1.3698539530793691E-002
