5
 energy: -11.026104488609 gnorm: 0.170912750665 xtb: 6.2.2 (9d81278992624c895f80dd42a50cac0aa55982e2)
C        -1.19192800000000    0.04332000000000   -0.01847100000000
N         0.04123200000000    0.77264900000000   -0.41794900000000
C         1.19107600000000   -0.05923000000000    0.02705900000000
C        -0.01751000000000   -0.03075100000000    0.84755100000000
C        -0.02286900000000   -0.72598800000000   -0.43818900000000
5
 energy: -11.046303380661 gnorm: 0.126687239789 xtb: 6.2.2 (9d81278992624c895f80dd42a50cac0aa55982e2)
C        -1.16378360341257    0.03416144227990   -0.01363589790421
N         0.04169354834254    0.78128840907399   -0.42262195965657
C         1.16208747556017   -0.06592925030437    0.03080105066834
C        -0.01715845482777   -0.00624795358093    0.88423910708573
C        -0.02283796566238   -0.74327264746859   -0.47878130019329
5
 energy: -11.068758907634 gnorm: 0.043612951671 xtb: 6.2.2 (9d81278992624c895f80dd42a50cac0aa55982e2)
C        -1.05039549274885   -0.01030635714250    0.00993997688334
N         0.04383799349871    0.82143839380481   -0.44434276689830
C         1.04448831670027   -0.10045535247693    0.04995916189846
C        -0.01563858856898    0.07665307174531    0.99113119793540
C        -0.02229122888115   -0.78732975593069   -0.60668656981890
5
 energy: -11.070436781149 gnorm: 0.011710549101 xtb: 6.2.2 (9d81278992624c895f80dd42a50cac0aa55982e2)
C        -1.07595611353042   -0.00501579526157    0.00718730990918
N         0.04342700431208    0.81373869400901   -0.44017925455197
C         1.07049300517931   -0.09738414571503    0.04819296055635
C        -0.01571727938510    0.06815764462305    0.97621016871789
C        -0.02224561657587   -0.77949639765547   -0.59141018463145
5
 energy: -11.070571231959 gnorm: 0.005816294962 xtb: 6.2.2 (9d81278992624c895f80dd42a50cac0aa55982e2)
C        -1.08125429777785   -0.00682912814382    0.00818737206507
N         0.04334083821905    0.81212252969848   -0.43930264147556
C         1.07557262198760   -0.09964423834424    0.04939170250776
C        -0.01556316761575    0.07119643826278    0.97502991500356
C        -0.02209499481305   -0.77684560147319   -0.59330534810084
5
 energy: -11.070679625970 gnorm: 0.006934321138 xtb: 6.2.2 (9d81278992624c895f80dd42a50cac0aa55982e2)
C        -1.08526088454119   -0.01175124813636    0.01086435576553
N         0.04325675408491    0.81054745434893   -0.43844903826272
C         1.07903754836398   -0.10488755836851    0.05221155522123
C        -0.01523655823492    0.07881816212503    0.97509248864342
C        -0.02179585967279   -0.77272680996909   -0.59971836136746
5
 energy: -11.070754710058 gnorm: 0.008772580304 xtb: 6.2.2 (9d81278992624c895f80dd42a50cac0aa55982e2)
C        -1.08710105023948   -0.01780877017800    0.01414749033716
N         0.04318767592573    0.80925193120747   -0.43774772895944
C         1.08022489731114   -0.11107508423548    0.05555252458572
C        -0.01486150776516    0.08740294501038    0.97478471514304
C        -0.02144901523223   -0.76777102180437   -0.60673600110647
5
 energy: -11.070824519436 gnorm: 0.007532707974 xtb: 6.2.2 (9d81278992624c895f80dd42a50cac0aa55982e2)
C        -1.08796554130368   -0.02522269909831    0.01816107052419
N         0.04311768776355    0.80793650111902   -0.43703678303893
C         1.08029507575267   -0.11852934958637    0.05958403492588
C        -0.01441879536491    0.09686432645215    0.97293964623274
C        -0.02102742684763   -0.76104877888649   -0.61364696864387
5
 energy: -11.070866394129 gnorm: 0.003605318376 xtb: 6.2.2 (9d81278992624c895f80dd42a50cac0aa55982e2)
C        -1.08806405844209   -0.03061988000644    0.02108383232098
N         0.04308211022353    0.80726720799467   -0.43667862929061
C         1.07981663695102   -0.12391070795547    0.06249969784539
C        -0.01411243200686    0.10261855887682    0.96989989438090
C        -0.02072125672560   -0.75535517890958   -0.61680379525665
5
 energy: -11.070877072439 gnorm: 0.001059878281 xtb: 6.2.2 (9d81278992624c895f80dd42a50cac0aa55982e2)
C        -1.08811050892891   -0.03221618522218    0.02194901841160
N         0.04309034556237    0.80742302234487   -0.43676550563648
C         1.07969335084887   -0.12550372607022    0.06336330911595
C        -0.01403711369794    0.10344757045743    0.96780950262891
C        -0.02063507378439   -0.75315068150991   -0.61635532451998
5
 energy: -11.070878230907 gnorm: 0.000554985185 xtb: 6.2.2 (9d81278992624c895f80dd42a50cac0aa55982e2)
C        -1.08837461357887   -0.03226081883894    0.02197541306616
N         0.04311359615204    0.80785994736820   -0.43700397426210
C         1.07995254160649   -0.12557066570925    0.06339953576158
C        -0.01405002500898    0.10280973536058    0.96702098602305
C        -0.02064049917067   -0.75283819818059   -0.61539096058869
