[Molden Format]
[Title]
[Atoms] AU
C      1     6  0.10073358888779E+01 -0.52743983803753E-05 -0.35162655869472E-05
H      2     1 -0.10073358888779E+01  0.52743983803689E-05  0.35162655869472E-05
[GTO]
           1 0
 s           4   1.0000000000000000     
   51.049363095579913      -0.16312063210127389     
   8.7911227406887544      -0.19911024581000730     
  0.70640422258929825       0.31882047753655751     
  0.26922813413411617       0.12706504184240380     
 p           4   1.0000000000000000     
   5.8263656140800002       0.73716451545209605     
   1.5106896018720002       0.68216371614850257     
  0.53256483288000001       0.35783053929253711     
  0.21202323690600003        5.3983030275847881E-002

           2 0
 s           3   1.0000000000000000     
   3.3702276975336001       0.27359110588908298     
  0.61389118221497996       0.26460540653860526     
  0.16614291148415999        8.2465947534082318E-002

[MO]
Sym=     1a
Ene=  -0.57410096016405343     
Spin= Alpha
Occup=     2.00000000
           1  0.68179868917417730     
           2 -0.15496241343894618     
           3   8.1129370188258894E-007
           4   5.4086246792190345E-007
           5  0.43549045268112840     
Sym=     2a
Ene=  -0.42309709473128460     
Spin= Alpha
Occup=     1.00000000
           1  0.60509437805715283     
           2  0.68864330390244788     
           3  -3.6090528964352683E-006
           4  -2.4060352636272118E-006
           5 -0.35368930717115449     
Sym=     3a
Ene=  -0.34431571796660493     
Spin= Alpha
Occup=     1.00000000
           1  -3.1883040885344458E-010
           2  -1.0899412617826919E-006
           3 -0.69035722365115870     
           4  0.72346866127728526     
           5   5.0193797328499120E-011
Sym=     4a
Ene=  -0.34431571796660443     
Spin= Alpha
Occup=     1.00000000
           1   1.8140393416635138E-009
           2   6.2014095067785817E-006
           3  0.72346866125913722     
           4  0.69035722364318408     
           5  -2.8558465571538464E-010
Sym=     5a
Ene=   0.20467103681927373     
Spin= Alpha
Occup=     0.00000000
           1 -0.69863941052168510     
           2  0.92047802012741498     
           3  -4.8203833550712748E-006
           4  -3.2135889034694618E-006
           5   1.1618349105375863     
