2
 energy: -2.302947366066 gnorm: 0.000104517077 xtb: 6.2.2 (9d81278992624c895f80dd42a50cac0aa55982e2)
C         0.53305924557609   -0.00000279109168   -0.00000186072779
H        -0.53305924557609    0.00000279109168    0.00000186072779
