$hessian                                                                        
        0.3279763919  -0.0000012879  -0.0000008586  -0.3279763919   0.0000012879
        0.0000008586
       -0.0000012879   0.0000378505   0.0000000000   0.0000012879  -0.0000378505
       -0.0000000000
       -0.0000008586   0.0000000000   0.0000378505   0.0000008586  -0.0000000000
       -0.0000378505
       -0.3279763919   0.0000012879   0.0000008586   0.3279763919  -0.0000012879
       -0.0000008586
        0.0000012879  -0.0000378505  -0.0000000000  -0.0000012879   0.0000378505
        0.0000000000
        0.0000008586  -0.0000000000  -0.0000378505  -0.0000008586   0.0000000000
        0.0000378505
