2
 energy: -2.301952757044 gnorm: 0.032534004703 xtb: 6.2.2 (9d81278992624c895f80dd42a50cac0aa55982e2)
C         0.55470000000000    0.00000000000000    0.00000000000000
H        -0.55470000000000    0.00000000000000    0.00000000000000
2
 energy: -2.302843021995 gnorm: 0.011325609195 xtb: 6.2.2 (9d81278992624c895f80dd42a50cac0aa55982e2)
C         0.53978197659963    0.00000000000000    0.00000000000000
H        -0.53978197659963   -0.00000000000000    0.00000000000000
2
 energy: -2.302944088436 gnorm: 0.002089216831 xtb: 6.2.2 (9d81278992624c895f80dd42a50cac0aa55982e2)
C         0.53181913038206    0.00000000000000    0.00000000000000
H        -0.53181913038206   -0.00000000000000    0.00000000000000
2
 energy: -2.302947366037 gnorm: 0.000104537543 xtb: 6.2.2 (9d81278992624c895f80dd42a50cac0aa55982e2)
C         0.53305924558664    0.00000000000000    0.00000000000000
H        -0.53305924558664   -0.00000000000000    0.00000000000000
