[Molden Format]
[Title]
[Atoms] AU
C      1     6 -0.19668922719339E-06  0.49133809827802E-04 -0.85067200811974E-10
O      2     8  0.21609197051058E+01  0.16245393189386E-02 -0.75458878189075E-05
O      3     8 -0.21609195084166E+01 -0.16736731287661E-02  0.75459728861083E-05
[GTO]
           1 0
 s           4   1.0000000000000000     
   51.049363095579913      -0.16312063210127389     
   8.7911227406887544      -0.19911024581000730     
  0.70640422258929825       0.31882047753655751     
  0.26922813413411617       0.12706504184240380     
 p           4   1.0000000000000000     
   5.8263656140800002       0.73716451545209605     
   1.5106896018720002       0.68216371614850257     
  0.53256483288000001       0.35783053929253711     
  0.21202323690600003        5.3983030275847881E-002

           2 0
 s           4   1.0000000000000000     
   69.137961906196551      -0.20478756370077797     
   11.906129132707308      -0.24997023136827334     
  0.95670827744340703       0.40025880240639616     
  0.36462520496073686       0.15952206667693555     
 p           4   1.0000000000000000     
   8.2124193257781641        1.1321556799186829     
   2.1293576997098116        1.0476840782254817     
  0.75066448202360914       0.54956508217158984     
  0.29885246543283073        8.2908486592766617E-002

           3 0
 s           4   1.0000000000000000     
   69.137961906196551      -0.20478756370077797     
   11.906129132707308      -0.24997023136827334     
  0.95670827744340703       0.40025880240639616     
  0.36462520496073686       0.15952206667693555     
 p           4   1.0000000000000000     
   8.2124193257781641        1.1321556799186829     
   2.1293576997098116        1.0476840782254817     
  0.75066448202360914       0.54956508217158984     
  0.29885246543283073        8.2908486592766617E-002

[MO]
Sym=     1a
Ene=  -0.81084247889481764     
Spin= Alpha
Occup=     2.00000000
           1  0.47892161197986638     
           2  -1.1185179456720194E-006
           3  -1.2556365218251181E-005
           4   2.5807004269878772E-011
           5  0.37658411741688774     
           6 -0.21096831350520151     
           7  -1.5638342287877373E-004
           8   7.4288579025453671E-007
           9  0.37658710269398088     
          10  0.21096903261589223     
          11   1.6559962792601546E-004
          12  -7.4290421316259480E-007
Sym=     2a
Ene=  -0.79670228615045324     
Spin= Alpha
Occup=     2.00000000
           1  -1.5321481994205620E-006
           2 -0.37241836525745897     
           3  -2.8422191955206272E-004
           4   1.2932738161703824E-006
           5 -0.48969248311322378     
           6  0.10382991840646284     
           7   7.0698298200321918E-005
           8  -3.7295407110176054E-007
           9  0.48969030471932068     
          10  0.10382845180448291     
          11   8.7745033141044008E-005
          12  -3.7297839350857858E-007
Sym=     3a
Ene=  -0.66481018177283968     
Spin= Alpha
Occup=     2.00000000
           1  0.26296426453315153     
           2  -4.0684604045540679E-007
           3   3.2660424487238087E-004
           4  -7.5668604667706429E-010
           5 -0.54012658471005193     
           6 -0.42309078753120882     
           7  -4.1603434892257658E-005
           8   1.4625706270705208E-006
           9 -0.54012677137013410     
          10  0.42309109636320991     
          11   6.0420348021062483E-004
          12  -1.4638695152229801E-006
Sym=     4a
Ene=  -0.66350583558216525     
Spin= Alpha
Occup=     2.00000000
           1   7.5866613684831273E-005
           2   2.3951365851495565E-004
           3 -0.31175496661544977     
           4  0.45750902401562293     
           5  -1.8072096911650177E-004
           6   5.3312648164600978E-005
           7 -0.26206963589799298     
           8  0.38459426709668154     
           9  -1.8072112287651420E-004
          10   3.4937040475940541E-004
          11 -0.26206978714969692     
          12  0.38459481947839796     
Sym=     5a
Ene=  -0.66350583411316111     
Spin= Alpha
Occup=     2.00000000
           1  -1.1133572301942787E-004
           2  -3.4808154604617115E-004
           3  0.45750881209123612     
           4  0.31175511346502688     
           5   2.6520604192017028E-004
           6  -7.5337746342208549E-005
           7  0.38459425145781195     
           8  0.26206964844605829     
           9   2.6521732276385134E-004
          10  -5.0980833462345150E-004
          11  0.38459447302081889     
          12  0.26207002677290181     
Sym=     6a
Ene=  -0.59981913246422047     
Spin= Alpha
Occup=     2.00000000
           1  -2.0813614473464726E-007
           2 -0.28169147805876316     
           3  -2.1498992027368382E-004
           4   9.7233446734955480E-007
           5  0.36929782592833360     
           6  0.56627608245161587     
           7   3.9416695061350170E-004
           8  -1.9808587888791973E-006
           9 -0.36929726805223806     
          10  0.56627556280320102     
          11   4.7012954778393053E-004
          12  -1.9809897665926437E-006
Sym=     7a
Ene=  -0.53444281326801535     
Spin= Alpha
Occup=     2.00000000
           1  -1.2969941472436131E-009
           2  -3.6897910362142374E-006
           3   1.3669656100739059E-007
           4   2.2037215987482045E-007
           5   9.6477458175739597E-007
           6  -2.6343811911242452E-004
           7  0.37995124803304781     
           8  0.60018564908081795     
           9  -1.0087909924847607E-006
          10   3.1231492871029736E-004
          11 -0.37995093262900131     
          12 -0.60018520964049726     
Sym=     8a
Ene=  -0.53444281302185781     
Spin= Alpha
Occup=     2.00000000
           1   5.7418700822648752E-010
           2   5.8285589174936469E-006
           3  -2.1588514521988740E-007
           4   1.3945053155064539E-007
           5  -1.5489887387832130E-006
           6   4.2075989872105817E-004
           7 -0.60018550190994557     
           8  0.37995133975842377     
           9   1.5685434406558493E-006
          10  -4.9796786807242881E-004
          11  0.60018500296503940     
          12 -0.37995106073437368     
Sym=     9a
Ene=  -0.22383625570453250     
Spin= Alpha
Occup=     0.00000000
           1   4.1684040724267569E-005
           2  -5.2613727321498588E-004
           3  0.69215173398539531     
           4  0.59514977359141552     
           5  -3.6778001478933271E-006
           6   3.4616776019073396E-004
           7 -0.44740358299882338     
           8 -0.38470198115445947     
           9  -3.6889375438633302E-006
          10   3.3402596701941897E-004
          11 -0.44740371278230612     
          12 -0.38470208467084493     
Sym=    10a
Ene=  -0.22383625027384024     
Spin= Alpha
Occup=     0.00000000
           1  -3.5842325590135338E-005
           2   4.5660549901713464E-004
           3 -0.59514959892131669     
           4  0.69215193713542600     
           5   3.1664923517268152E-006
           6  -3.0036828683986623E-004
           7  0.38470186528068984     
           8 -0.44740371820318503     
           9   3.1678508574146651E-006
          10  -2.8992807839862603E-004
          11  0.38470197733557482     
          12 -0.44740383921185289     
Sym=    11a
Ene=   0.31037559505534967     
Spin= Alpha
Occup=     0.00000000
           1  -1.2416368840192202     
           2  -7.4437256746259533E-007
           3   7.2410391260591193E-005
           4  -1.2390425104413268E-010
           5  0.47995650316616140     
           6 -0.69002804442951338     
           7  -5.2975743280128239E-004
           8   2.4085104988794397E-006
           9  0.47995591092252721     
          10  0.69002742418498220     
          11   5.2343534319373530E-004
          12  -2.4084969021134587E-006
Sym=    12a
Ene=    1.3653051158641034     
Spin= Alpha
Occup=     0.00000000
           1  -1.0090434685760660E-006
           2   1.5832643961498130     
           3   1.2082694146891531E-003
           4  -5.5281995013277353E-006
           5 -0.83601706215686711     
           6  0.73622295804521709     
           7   5.2234904246851554E-004
           8  -2.5702041677108893E-006
           9  0.83601798664269500     
          10  0.73622371683471399     
          11   6.0135079282178170E-004
          12  -2.5703445375064811E-006
