3
 energy: -10.077937692880 gnorm: 0.436918349138 xtb: 6.2.2 (9d81278992624c895f80dd42a50cac0aa55982e2)
C        -0.00041200000000    0.53649900000000    0.00000000000000
O         1.13826700000000   -0.26737500000000    0.00000000000000
O        -1.13785500000000   -0.26912400000000    0.00000000000000
3
 energy: -10.225154120148 gnorm: 0.293901783393 xtb: 6.2.2 (9d81278992624c895f80dd42a50cac0aa55982e2)
C        -0.00026097182768    0.33974730648964    0.00000000000000
O         1.14896327644934   -0.16899089928910    0.00000000000000
O        -1.14870230462166   -0.17075640720053    0.00000000000000
3
 energy: -10.240718617627 gnorm: 0.476655868471 xtb: 6.2.2 (9d81278992624c895f80dd42a50cac0aa55982e2)
C        -0.00010701426507    0.13884477740242    0.00000000000000
O         1.02662214120929   -0.06863369853252    0.00000000000000
O        -1.02651512694423   -0.07021107886990    0.00000000000000
3
 energy: -10.303900559648 gnorm: 0.090764529797 xtb: 6.2.2 (9d81278992624c895f80dd42a50cac0aa55982e2)
C        -0.00003453044825    0.04518006689804    0.00000000000000
O         1.17183267264951   -0.02168953773636    0.00000000000000
O        -1.17179814220126   -0.02349052916168    0.00000000000000
3
 energy: -10.307257118926 gnorm: 0.039279995982 xtb: 6.2.2 (9d81278992624c895f80dd42a50cac0aa55982e2)
C        -0.00002853251103    0.03719354726235    0.00000000000000
O         1.15386831251643   -0.01771012746561    0.00000000000000
O        -1.15383978000540   -0.01948341979674    0.00000000000000
3
 energy: -10.308437914338 gnorm: 0.002434659066 xtb: 6.2.2 (9d81278992624c895f80dd42a50cac0aa55982e2)
C        -0.00000419713603    0.00540366131836    0.00000000000000
O         1.14333293836221   -0.00182329802227    0.00000000000000
O        -1.14332874122618   -0.00358036329608    0.00000000000000
3
 energy: -10.308451978893 gnorm: 0.000872828027 xtb: 6.2.2 (9d81278992624c895f80dd42a50cac0aa55982e2)
C         0.00000007630025   -0.00004039827101    0.00000000000000
O         1.14391698513100    0.00089921498356    0.00000000000000
O        -1.14391706143126   -0.00085881671255    0.00000000000000
3
 energy: -10.308452201565 gnorm: 0.000465383579 xtb: 6.2.2 (9d81278992624c895f80dd42a50cac0aa55982e2)
C        -0.00000010421960    0.00002600049431    0.00000000000000
O         1.14350956411796    0.00086565666765    0.00000000000000
O        -1.14350945989836   -0.00089165716196    0.00000000000000
