$hessian                                                                        
        2.2243096289   0.0017327786  -0.0000092945  -1.1123158586  -0.0007948592
        0.0000015234  -1.1123177555  -0.0008732031   0.0000015235
        0.0017327786   0.1188012312  -0.0000000082  -0.0008368612  -0.0594066369
        0.0000000016  -0.0008961609  -0.0594071938   0.0000000017
       -0.0000092945  -0.0000000082   0.1189119933   0.0000046478   0.0000000038
       -0.0594286347   0.0000046479   0.0000000042  -0.0594284010
       -1.1123158586  -0.0008368612   0.0000046478   1.1714275077   0.0008535442
       -0.0000019940  -0.0589496567  -0.0000490404   0.0000004700
       -0.0007948592  -0.0594066369   0.0000000038   0.0008535442   0.0296593401
       -0.0000000024  -0.0000585670   0.0297538681   0.0000000009
        0.0000015234   0.0000000016  -0.0594286347  -0.0000019940  -0.0000000024
        0.0296575317   0.0000004700   0.0000000008   0.0297436240
       -1.1123177555  -0.0008961609   0.0000046479  -0.0589496567  -0.0000585670
        0.0000004700   1.1714294050   0.0009223689  -0.0000019941
       -0.0008732031  -0.0594071938   0.0000000042  -0.0000490404   0.0297538681
        0.0000000008   0.0009223689   0.0296593539  -0.0000000025
        0.0000015235   0.0000000017  -0.0594284010   0.0000004700   0.0000000009
        0.0297436240  -0.0000019941  -0.0000000025   0.0296572985
