 Entering Gaussian System
 *********************************************
 Gaussian 98:
 frequency output generated by the xtb code
 *********************************************
                         Standard orientation:
 --------------------------------------------------------------------
  Center     Atomic     Atomic              Coordinates (Angstroms)
  Number     Number      Type              X           Y           Z
 --------------------------------------------------------------------
    1          6             0        2.378764   -0.049236    0.687028
    2          6             0        1.150620   -0.041429    0.406565
    3          6             0       -0.121940   -0.002611    0.140488
    4          7             0       -1.240778   -0.128071   -0.232747
    5          1             0       -2.166663    0.221349   -0.145535
 --------------------------------------------------------------------
     1 basis functions        1 primitive gaussians
     1 alpha electrons        1 beta electrons

 Harmonic frequencies (cm**-1), IR intensities (KM/Mole),
 Raman scattering activities (A**4/amu), Raman depolarization ratios,
 reduced masses (AMU), force constants (mDyne/A) and normal coordinates:
                      1                      2                      3
                        a                      a                      a 
 Frequencies --   169.0134               191.2411               497.1091
 Red. masses --    11.5032                 9.4858                12.1253
 Frc consts  --     0.0000                 0.0000                 0.0000
 IR Inten    --     0.3809                 0.1800                 0.5507
 Raman Activ --     0.0000                 0.0000                 0.0000
 Depolar     --     0.0000                 0.0000                 0.0000
 Atom AN      X      Y      Z        X      Y      Z        X      Y      Z
   1   6    -0.05   0.40   0.35     0.09   0.34  -0.38    -0.08   0.12   0.08
   2   6     0.10  -0.43  -0.36    -0.10  -0.38   0.43     0.02  -0.44  -0.37
   3   6     0.09  -0.32  -0.27    -0.05  -0.21   0.23    -0.11   0.56   0.45
   4   7    -0.13   0.27   0.21     0.04   0.14  -0.16     0.15  -0.22  -0.16
   5   1     0.02   0.20   0.18     0.09   0.32  -0.36     0.07   0.03   0.04
                      4                      5                      6
                        a                      a                      a 
 Frequencies --   527.9172               550.3772              1003.3066
 Red. masses --    10.0241                 2.9500                12.4517
 Frc consts  --     0.0000                 0.0000                 0.0000
 IR Inten    --     0.2499                 0.7358                 0.1503
 Raman Activ --     0.0000                 0.0000                 0.0000
 Depolar     --     0.0000                 0.0000                 0.0000
 Atom AN      X      Y      Z        X      Y      Z        X      Y      Z
   1   6    -0.03  -0.10   0.12     0.00  -0.04  -0.03     0.63  -0.00   0.15
   2   6     0.10   0.38  -0.44    -0.06   0.15   0.12     0.33  -0.03   0.05
   3   6    -0.12  -0.42   0.49     0.00  -0.03  -0.02    -0.31   0.09   0.01
   4   7     0.02   0.06  -0.07    -0.03  -0.25  -0.22    -0.56  -0.06  -0.18
   5   1     0.07   0.27  -0.32     0.29   0.62   0.61    -0.15   0.01  -0.02
                      7                      8                      9
                        a                      a                      a 
 Frequencies --  1968.2534              2269.9429              3613.1022
 Red. masses --    12.1174                12.1230                 2.0698
 Frc consts  --     0.0000                 0.0000                 0.0000
 IR Inten    --     0.1010                 3.2999                 0.7030
 Raman Activ --     0.0000                 0.0000                 0.0000
 Depolar     --     0.0000                 0.0000                 0.0000
 Atom AN      X      Y      Z        X      Y      Z        X      Y      Z
   1   6     0.55  -0.00   0.13    -0.14   0.00  -0.03     0.00  -0.00   0.00
   2   6    -0.67   0.01  -0.15     0.42  -0.01   0.09    -0.01   0.00  -0.00
   3   6    -0.26  -0.04  -0.10    -0.75  -0.03  -0.20    -0.03  -0.01  -0.01
   4   7     0.32   0.04   0.11     0.40   0.04   0.13     0.27  -0.08  -0.01
   5   1     0.10  -0.02   0.01     0.14  -0.00   0.03    -0.90   0.32   0.07
