5
 energy: -9.434517478527 gnorm: 0.373977897934 xtb: 6.2.2 (9d81278992624c895f80dd42a50cac0aa55982e2)
C         1.99927300000000    0.49128800000000    0.20067200000000
C         1.12854100000000   -0.68196600000000    0.60777900000000
C        -0.30657100000000   -0.22965000000000    0.80651100000000
N        -0.92154700000000    0.05608200000000   -0.47831300000000
H        -1.89969600000000    0.36424600000000   -0.28084900000000
5
 energy: -9.567961783535 gnorm: 0.237844307619 xtb: 6.2.2 (9d81278992624c895f80dd42a50cac0aa55982e2)
C         1.97331050377369    0.40444001717700    0.23521049793588
C         1.12805018517535   -0.56843778636067    0.64271738276427
C        -0.24323214487847   -0.24955115495886    0.65154985162460
N        -0.94847481478161    0.05038648988195   -0.40914356270398
H        -1.90965372928896    0.36316243426057   -0.26453416962077
5
 energy: -9.592174968430 gnorm: 0.358582557297 xtb: 6.2.2 (9d81278992624c895f80dd42a50cac0aa55982e2)
C         1.95386803693433    0.29326585522179    0.28147288941997
C         1.08519818157991   -0.41038489841847    0.61665102155381
C        -0.20229242900675   -0.25880534517005    0.50671363230079
N        -0.93652209453525    0.03397899833944   -0.28235692560230
H        -1.90025169497224    0.34194539002729   -0.26668061767227
5
 energy: -9.632971785264 gnorm: 0.096324570766 xtb: 6.2.2 (9d81278992624c895f80dd42a50cac0aa55982e2)
C         2.14373453209466    0.28258120396817    0.30443002380783
C         1.10358288130250   -0.37131370675800    0.67305848650571
C        -0.18478413132081   -0.29837988700717    0.45850692480180
N        -1.06349380642199    0.05443213608123   -0.31471701452265
H        -1.99903947565435    0.33268025371578   -0.26547842059269
5
 energy: -9.639801559546 gnorm: 0.119822543394 xtb: 6.2.2 (9d81278992624c895f80dd42a50cac0aa55982e2)
C         2.31096019127334    0.21308275107621    0.42098279229972
C         1.10785534815981   -0.30089374180596    0.60874712461170
C        -0.16815367618768   -0.21025485269921    0.36511963232016
N        -1.15334463737635    0.00527457570087   -0.30527372805241
H        -2.09731722586911    0.29279126772810   -0.23377582117917
5
 energy: -9.632984014728 gnorm: 0.144788876575 xtb: 6.2.2 (9d81278992624c895f80dd42a50cac0aa55982e2)
C         2.31272871736226    0.17277792887358    0.42055076362689
C         1.18393819288651   -0.23769689148523    0.67793637796133
C        -0.17110958241739   -0.26577507971649    0.27138522774028
N        -1.18594601961414   -0.00837279423248   -0.29180131593320
H        -2.13961130821723    0.33906683656062   -0.22227105339531
5
 energy: -9.646583524657 gnorm: 0.056230348126 xtb: 6.2.2 (9d81278992624c895f80dd42a50cac0aa55982e2)
C         2.29684833124253    0.16756406013494    0.46154279675570
C         1.13549124929651   -0.26633277297097    0.58861320322070
C        -0.13680533426177   -0.18153922231258    0.32147599973531
N        -1.16812743809942   -0.01281915698970   -0.27754100992942
H        -2.12740680817783    0.29312709213831   -0.23829098978229
5
 energy: -9.633211110696 gnorm: 0.248787818317 xtb: 6.2.2 (9d81278992624c895f80dd42a50cac0aa55982e2)
C         2.37039674099119    0.13350919793260    0.45466173046855
C         1.08015625877052   -0.19818350369155    0.56001836183809
C        -0.19912128137890   -0.19536813997051    0.32693290696807
N        -1.13722684986189    0.03130553030233   -0.26005007007699
H        -2.11420486852090    0.22873691542713   -0.22576292919773
5
 energy: -9.648920015591 gnorm: 0.053899968963 xtb: 6.2.2 (9d81278992624c895f80dd42a50cac0aa55982e2)
C         2.35240181263855    0.13111229004495    0.48804121428845
C         1.12346946865934   -0.21918982471133    0.56688123772669
C        -0.14984751487342   -0.16703260030841    0.29913017484300
N        -1.18785345140651   -0.00288923650166   -0.27358084151234
H        -2.13817031501796    0.25799937147645   -0.22467178534582
5
 energy: -9.649104547647 gnorm: 0.043007245416 xtb: 6.2.2 (9d81278992624c895f80dd42a50cac0aa55982e2)
C         2.32432384143782    0.11648322341108    0.48936920665302
C         1.13315909482342   -0.22452496937872    0.56141609144464
C        -0.14287625919545   -0.14974894129069    0.29988049581830
N        -1.16785904659311    0.01924756382348   -0.26448301307663
H        -2.14674763047266    0.23854312343486   -0.23038278083934
5
 energy: -9.651383197078 gnorm: 0.030637416636 xtb: 6.2.2 (9d81278992624c895f80dd42a50cac0aa55982e2)
C         2.36865780044764    0.09242428631889    0.54164327593671
C         1.13637625246387   -0.18647960172674    0.52430591401161
C        -0.13903204658917   -0.11999173546378    0.26568946810417
N        -1.20818514019319   -0.03841425961096   -0.26511318172403
H        -2.15781686612913    0.25246131048259   -0.21072547632846
5
 energy: -9.652221155406 gnorm: 0.046450292966 xtb: 6.2.2 (9d81278992624c895f80dd42a50cac0aa55982e2)
C         2.39407946879924    0.06282278873060    0.58338529370545
C         1.13740803857821   -0.14520834768287    0.48964822841438
C        -0.13980576671736   -0.09538141673092    0.23732915788799
N        -1.23033666746079   -0.07862813908984   -0.26094906168240
H        -2.16134507319929    0.25639511477304   -0.19361361832542
5
 energy: -9.653031167896 gnorm: 0.025601277616 xtb: 6.2.2 (9d81278992624c895f80dd42a50cac0aa55982e2)
C         2.38867107037191    0.04998322369286    0.59137411192335
C         1.13394237202435   -0.12220839470186    0.47965674947633
C        -0.14590319153241   -0.09563776722183    0.22758574292735
N        -1.22911443555583   -0.09191499790692   -0.25882719560625
H        -2.14759581530802    0.25977793613775   -0.18398940872079
5
 energy: -9.653792637332 gnorm: 0.014797476602 xtb: 6.2.2 (9d81278992624c895f80dd42a50cac0aa55982e2)
C         2.38299648974150    0.02723933994883    0.62887342702864
C         1.13697848322992   -0.08907690549632    0.44940790080761
C        -0.13985645281218   -0.07291159738399    0.19692591521668
N        -1.24186315141460   -0.14448132252284   -0.25545869900438
H        -2.13825536874461    0.27923048545434   -0.16394854404856
5
 energy: -9.654241820049 gnorm: 0.016359943091 xtb: 6.2.2 (9d81278992624c895f80dd42a50cac0aa55982e2)
C         2.38436793654272   -0.01724241652119    0.65678580343170
C         1.13989633354109   -0.06490015777129    0.43413198003507
C        -0.12684503237684   -0.03389049919406    0.16218440495479
N        -1.23850373421391   -0.11747782936449   -0.24573095322685
H        -2.15891550349304    0.23351090285104   -0.15157123519471
5
 energy: -9.654368721948 gnorm: 0.003854969554 xtb: 6.2.2 (9d81278992624c895f80dd42a50cac0aa55982e2)
C         2.38053745217781   -0.03017975826133    0.66800850344741
C         1.14576768773247   -0.05789131395415    0.42777032152477
C        -0.12374825410725   -0.02037001441615    0.14929411941828
N        -1.23842478244347   -0.11831080677938   -0.24290091391039
H        -2.16413210335954    0.22675189341102   -0.14637203048008
5
 energy: -9.654334213711 gnorm: 0.012255115079 xtb: 6.2.2 (9d81278992624c895f80dd42a50cac0aa55982e2)
C         2.38355287015670   -0.05523050323209    0.69537603337294
C         1.15167532075969   -0.03570857850963    0.40540739817974
C        -0.12038310426690    0.00429905145196    0.12827148472263
N        -1.24459429105674   -0.13333744192250   -0.23667913543243
H        -2.17025079559273    0.21997747221228   -0.13657578084289
5
 energy: -9.654427845105 gnorm: 0.001864284105 xtb: 6.2.2 (9d81278992624c895f80dd42a50cac0aa55982e2)
C         2.37926172873554   -0.04214162207802    0.68146057303023
C         1.14821875075868   -0.04713611279177    0.41341044483880
C        -0.12276926028250   -0.00779342432575    0.14259214445495
N        -1.23982562100216   -0.12735091876425   -0.23817983257438
H        -2.16488559820954    0.22442207795981   -0.14348332974961
5
 energy: -9.654434965967 gnorm: 0.000900938706 xtb: 6.2.2 (9d81278992624c895f80dd42a50cac0aa55982e2)
C         2.37858248433102   -0.04660820091328    0.68576439674058
C         1.14955568941741   -0.04343203360878    0.40852763142179
C        -0.12235228107528   -0.00366910701555    0.14062474918824
N        -1.24059745027115   -0.12925976532753   -0.23551466264967
H        -2.16518844240197    0.22296910686515   -0.14360211470096
5
 energy: -9.654436753893 gnorm: 0.000806218503 xtb: 6.2.2 (9d81278992624c895f80dd42a50cac0aa55982e2)
C         2.37876189531389   -0.04922447611424    0.68703665303417
C         1.15061854081499   -0.04142388171886    0.40656924348946
C        -0.12194022248089   -0.00261211930735    0.14048766443087
N        -1.24077643240990   -0.12807695652102   -0.23275165176664
H        -2.16666378123807    0.22133743366149   -0.14554190918787
