5
 energy: -9.654436753479 gnorm: 0.000806859520 xtb: 6.2.2 (9d81278992624c895f80dd42a50cac0aa55982e2)
C         2.37876403574495   -0.04923573218904    0.68702843549642
C         1.15061974309563   -0.04142919675306    0.40656529936829
C        -0.12193974575974   -0.00261123563514    0.14048809464048
N        -1.24077791545259   -0.12807086605288   -0.23274709710160
H        -2.16666313031486    0.22134852426725   -0.14553473241011
