      -----------------------------------------------------------      
     |                   =====================                   |     
     |                           x T B                           |     
     |                   =====================                   |     
     |                         S. Grimme                         |     
     |          Mulliken Center for Theoretical Chemistry        |     
     |                    University of Bonn                     |     
      -----------------------------------------------------------      

   * xtb version 6.2.2 (9d81278992624c895f80dd42a50cac0aa55982e2) compiled by '@Darwin' on 04/03/2020

   xtb is free software: you can redistribute it and/or modify it under
   the terms of the GNU Lesser General Public License as published by
   the Free Software Foundation, either version 3 of the License, or
   (at your option) any later version.
   
   xtb is distributed in the hope that it will be useful,
   but WITHOUT ANY WARRANTY; without even the implied warranty of
   MERCHANTABILITY or FITNESS FOR A PARTICULAR PURPOSE.  See the
   GNU Lesser General Public License for more details.
   
   Cite this work as:
   * S. Grimme, C. Bannwarth, P. Shushkov, J. Chem. Theory Comput., 2017,
     13, 1989-2009. DOI: 10.1021/acs.jctc.7b00118
   * C. Bannwarth, S. Ehlert and S. Grimme., J. Chem. Theory Comput., 2019,
     15, 1652-1671. DOI: 10.1021/acs.jctc.8b01176
   * P. Pracht, E. Caldeweyher, S. Ehlert, S. Grimme, ChemRxiv, 2019, preprint.
     DOI: 10.26434/chemrxiv.8326202.v1
   
   for DFT-D4:
   * E. Caldeweyher, C. Bannwarth and S. Grimme, J. Chem. Phys., 2017,
     147, 034112. DOI: 10.1063/1.4993215
   * E. Caldeweyher, S. Ehlert, A. Hansen, H. Neugebauer, S. Spicher,
     C. Bannwarth and S. Grimme, J. Chem. Phys., 2019, 150, 154122.
     DOI: 10.1063/1.5090222
   
   for sTDA-xTB:
   * S. Grimme and C. Bannwarth, J. Chem. Phys., 2016, 145, 054103.
     DOI: 10.1063/1.4959605
   
   in the mass-spec context:
   * V. Asgeirsson, C. Bauer and S. Grimme, Chem. Sci., 2017, 8, 4879.
     DOI: 10.1039/c7sc00601b
   
   for metadynamics refer to:
   * S. Grimme, J. Chem. Theory Comput., 2019, 155, 2847-2862
     DOI: 10.1021/acs.jctc.9b00143
   
   with help from (in alphabetical order)
   C. Bannwarth, F. Bohle, G. Brandenburg, E. Caldeweyher, M. Checinski,
   S. Dohm, S. Ehlert, S. Ehrlich, F. März, H. Neugebauer, J. Pisarek,
   P. Pracht, P. Shushkov, and S. Spicher.
   
 * started run on 2020/05/12 at 11:44:53.219     

           -------------------------------------------------
          |                Calculation Setup                |
           -------------------------------------------------

          program call               : xtb --input H1C3N1_8_S_0.input H1C3N1_8_S_0.xyz --ohess --molden --namespace H1C3N1_8_S_0 output.out
          calculation namespace      : H1C3N1_8_S_0
          coordinate file            : H1C3N1_8_S_0.xyz
          number of atoms            :                     5
          number of electrons        :                    18
          charge                     :                     0
          spin                       :                   0.0
          first test random number   :      0.16345876912569

   ID    Z sym.   atoms
    1    6 C      1-3
    2    7 N      4
    3    1 H      5

           -------------------------------------------------
          |                 G F N 2 - x T B                 |
           -------------------------------------------------

        Reference                      10.1021/acs.jctc.8b01176
      * Hamiltonian:
        H0-scaling (s, p, d)           1.850000    2.230000    2.230000
        zeta-weighting                 0.500000
      * Dispersion:
        s8                             2.700000
        a1                             0.520000
        a2                             5.000000
        s9                             5.000000
      * Repulsion:
        kExp                           1.500000    1.000000
        rExp                           1.000000
      * Coulomb:
        alpha                          2.000000
        third order                    shell-resolved
        anisotropic                    true
        a3                             3.000000
        a5                             4.000000
        cn-shift                       1.200000
        cn-exp                         4.000000
        max-rad                        5.000000


          ...................................................
          :                      SETUP                      :
          :.................................................:
          :  # basis functions                  17          :
          :  # atomic orbitals                  17          :
          :  # shells                            9          :
          :  # electrons                        18          :
          :  max. iterations                   250          :
          :  Hamiltonian                  GFN2-xTB          :
          :  restarted?                      false          :
          :  GBSA solvation                  false          :
          :  PC potential                    false          :
          :  electronic temp.          300.0000000     K    :
          :  accuracy                    1.0000000          :
          :  -> integral cutoff          0.2500000E+02      :
          :  -> integral neglect         0.1000000E-07      :
          :  -> SCF convergence          0.1000000E-05 Eh   :
          :  -> wf. convergence          0.1000000E-03 e    :
          :  Broyden damping             0.4000000          :
          ...................................................

 iter      E             dE          RMSdq      gap      omega  full diag
   1     -9.3315582 -0.933156E+01  0.979E+00    0.71       0.0  T
   2     -8.7718929  0.559665E+00  0.121E+01    0.62       1.0  T
   3     -9.1716262 -0.399733E+00  0.711E+00    1.09       1.0  T
   4     -8.4156201  0.756006E+00  0.102E+01    0.30       1.0  T
   5     -9.1526979 -0.737078E+00  0.626E+00    0.64       1.0  T
   6     -9.4361689 -0.283471E+00  0.363E+00    0.76       1.0  T
   7     -9.4849980 -0.488291E-01  0.148E+00    0.63       1.0  T
   8     -9.4855201 -0.522056E-03  0.134E+00    0.63       1.0  T
   9     -9.4885925 -0.307244E-02  0.335E-01    0.57       1.0  T
  10     -9.4886922 -0.996810E-04  0.243E-01    0.56       1.0  T
  11     -9.4887384 -0.461861E-04  0.931E-02    0.55       1.0  T
  12     -9.4887796 -0.412393E-04  0.371E-02    0.55       1.2  T
  13     -9.4887834 -0.383947E-05  0.756E-03    0.55       5.9  T
  14     -9.4887838 -0.301461E-06  0.331E-03    0.55      13.5  T
  15     -9.4887838 -0.789598E-09  0.957E-04    0.55      46.7  T
  16     -9.4887838  0.419522E-10  0.409E-04    0.55     109.3  T

   *** convergence criteria satisfied after 16 iterations ***

         #    Occupation            Energy/Eh            Energy/eV
      -------------------------------------------------------------
         1        2.0000           -0.6672893             -18.1579
       ...           ...                  ...                  ...
         3        2.0000           -0.6056958             -16.4818
         4        2.0000           -0.5460885             -14.8598
         5        2.0000           -0.5213164             -14.1857
         6        2.0000           -0.4949874             -13.4693
         7        2.0000           -0.4804024             -13.0724
         8        2.0000           -0.4383335             -11.9277
         9        2.0000           -0.4231675             -11.5150 (HOMO)
        10        0.0000           -0.4028067             -10.9609 (LUMO)
        11                         -0.3447191              -9.3803
        12                         -0.3248728              -8.8402
        13                         -0.2885077              -7.8507
        14                          0.0318338               0.8662
       ...                                ...                  ...
        17                          0.1206947               3.2843
      -------------------------------------------------------------
                  HL-Gap            0.0203608 Eh            0.5540 eV
             Fermi-level           -0.4129871 Eh          -11.2380 eV

 SCC (total)                   0 d,  0 h,  0 min,  0.004 sec
 SCC setup                      ...        0 min,  0.000 sec (  2.930%)
 Dispersion                     ...        0 min,  0.000 sec (  0.654%)
 integral evaluation            ...        0 min,  0.001 sec ( 31.005%)
 zeroth order Hamiltonian       ...        0 min,  0.000 sec (  0.419%)
 iterations                     ...        0 min,  0.002 sec ( 39.259%)
 molecular gradient             ...        0 min,  0.001 sec ( 23.378%)
 printout                       ...        0 min,  0.000 sec (  2.013%)

         :::::::::::::::::::::::::::::::::::::::::::::::::::::
         ::                     SUMMARY                     ::
         :::::::::::::::::::::::::::::::::::::::::::::::::::::
         :: total energy              -9.434517477435 Eh    ::
         :: gradient norm              0.373975478954 Eh/a0 ::
         :: HOMO-LUMO gap              0.554045627107 eV    ::
         ::.................................................::
         :: SCC energy                -9.488783751838 Eh    ::
         :: -> isotropic ES           -0.012470103823 Eh    ::
         :: -> anisotropic ES          0.002166178143 Eh    ::
         :: -> anisotropic XC          0.009689650997 Eh    ::
         :: -> dispersion             -0.002162535803 Eh    ::
         :: repulsion energy           0.054266250268 Eh    ::
         :: add. restraining           0.000000000000 Eh    ::
         :::::::::::::::::::::::::::::::::::::::::::::::::::::

      ----------------------------------------------------------- 
     |                   =====================                   |
     |                        A N C O P T                        |
     |                   =====================                   |
     |               Approximate Normal Coordinate               |
     |                Rational Function Optimizer                |
      ----------------------------------------------------------- 

          ...................................................
          :                      SETUP                      :
          :.................................................:
          :   optimization level            normal          :
          :   max. optcycles                   200          :
          :   ANC micro-cycles                  20          :
          :   degrees of freedom                 9          :
          :.................................................:
          :   RF solver                   davidson          :
          :   write xtbopt.log                true          :
          :   linear?                        false          :
          :   energy convergence         0.5000000E-05 Eh   :
          :   grad. convergence          0.1000000E-02 Eh/α :
          :   maximium RF displ.         1.0000000          :
          :   Hlow (freq-cutoff)         0.1000000E-01      :
          :   Hmax (freq-cutoff)         5.0000000          :
          :   S6 in model hess.         20.0000000          :
          ...................................................

generating ANC from model Hessian ...
Using Lindh-Hessian (1995)
 Shifting diagonal of input Hessian by    3.2900522874918167E-003
 Lowest  eigenvalues of input Hessian
   -0.000000   -0.000000   -0.000000    0.000000    0.000000    0.000000
    0.010000    0.012194    0.053311    0.085306    0.129807    0.692321
    0.898143    0.973173    1.170237
 Highest eigenvalues
    0.085306    0.129807    0.692321    0.898143    0.973173    1.170237


........................................................................
.............................. CYCLE    1 ..............................
........................................................................
   1     -9.4887838 -0.948878E+01  0.120E-04    0.55       0.0  T
   2     -9.4887838  0.797423E-09  0.351E-04    0.55     127.2  T
   3     -9.4887838 -0.771658E-09  0.108E-04    0.55     415.1  T
     SCC iter.                  ...        0 min,  0.000 sec
     gradient                   ...        0 min,  0.001 sec
 * total energy  :    -9.4345175 Eh     change       -0.1091591E-08 Eh
   gradient norm :     0.3739779 Eh/α   predicted     0.0000000E+00 (-100.00%)
   displ. norm   :     0.4545111 α      lambda       -0.1589700E+00
   maximum displ.:     0.3758107 α      in ANC's #6, #3, #4, ...

........................................................................
.............................. CYCLE    2 ..............................
........................................................................
   1     -9.6379410 -0.963794E+01  0.342E+00    1.58       0.0  T
   2     -9.1283197  0.509621E+00  0.745E+00    1.01       1.0  T
   3     -9.6806878 -0.552368E+00  0.168E+00    1.47       1.0  T
   4     -9.6782796  0.240819E-02  0.139E+00    1.25       1.0  T
   5     -9.6899153 -0.116357E-01  0.283E-01    1.33       1.0  T
   6     -9.6897668  0.148480E-03  0.227E-01    1.33       1.0  T
   7     -9.6900233 -0.256523E-03  0.781E-02    1.33       1.0  T
   8     -9.6900453 -0.219103E-04  0.146E-02    1.32       3.1  T
   9     -9.6900459 -0.657866E-06  0.450E-03    1.32       9.9  T
  10     -9.6900460 -0.752892E-07  0.145E-03    1.32      30.9  T
  11     -9.6900460 -0.592484E-08  0.281E-04    1.32     159.0  T
  12     -9.6900460 -0.244814E-09  0.135E-04    1.32     330.9  T
     SCC iter.                  ...        0 min,  0.001 sec
     gradient                   ...        0 min,  0.001 sec
 * total energy  :    -9.5679618 Eh     change       -0.1334443E+00 Eh
   gradient norm :     0.2378227 Eh/α   predicted    -0.9590504E-01 ( -28.13%)
   displ. norm   :     0.5416091 α      lambda       -0.1252942E+00
   maximum displ.:     0.4691282 α      in ANC's #6, #9, #7, ...

........................................................................
.............................. CYCLE    3 ..............................
........................................................................
   1     -9.8654698 -0.986547E+01  0.418E+00    3.05       0.0  T
   2     -9.6778441  0.187626E+00  0.547E+00    1.57       1.0  T
   3     -9.9156962 -0.237852E+00  0.199E+00    2.60       1.0  T
   4     -9.9288565 -0.131602E-01  0.675E-01    2.24       1.0  T
   5     -9.9299859 -0.112937E-02  0.189E-01    2.26       1.0  T
   6     -9.9299504  0.354790E-04  0.141E-01    2.28       1.0  T
   7     -9.9300025 -0.521496E-04  0.666E-02    2.27       1.0  T
   8     -9.9300219 -0.194249E-04  0.897E-03    2.26       5.0  T
   9     -9.9300221 -0.166196E-06  0.219E-03    2.26      20.5  T
  10     -9.9300221 -0.144950E-08  0.683E-04    2.26      65.4  T
  11     -9.9300221 -0.363089E-09  0.843E-05    2.26     530.8  T
     SCC iter.                  ...        0 min,  0.001 sec
     gradient                   ...        0 min,  0.001 sec
 * total energy  :    -9.5921750 Eh     change       -0.2421318E-01 Eh
   gradient norm :     0.3577097 Eh/α   predicted    -0.8102401E-01 ( 234.63%)
   displ. norm   :     0.5118578 α      lambda       -0.9852871E-01
   maximum displ.:     0.4017881 α      in ANC's #3, #1, #9, ...

........................................................................
.............................. CYCLE    4 ..............................
........................................................................
   1     -9.7742618 -0.977426E+01  0.314E+00    2.18       0.0  T
   2     -9.5289201  0.245342E+00  0.627E+00    3.23       1.0  T
   3     -9.8344371 -0.305517E+00  0.131E+00    2.57       1.0  T
   4     -9.8388427 -0.440566E-02  0.736E-01    2.46       1.0  T
   5     -9.8399184 -0.107572E-02  0.259E-01    2.49       1.0  T
   6     -9.8402486 -0.330140E-03  0.129E-01    2.53       1.0  T
   7     -9.8403053 -0.567153E-04  0.611E-02    2.52       1.0  T
   8     -9.8403133 -0.800645E-05  0.546E-03    2.52       8.2  T
   9     -9.8403134 -0.114088E-06  0.156E-03    2.52      28.7  T
  10     -9.8403134 -0.388299E-08  0.293E-04    2.52     152.4  T
  11     -9.8403134 -0.247216E-09  0.625E-05    2.52     716.0  T
     SCC iter.                  ...        0 min,  0.001 sec
     gradient                   ...        0 min,  0.001 sec
 * total energy  :    -9.6329718 Eh     change       -0.4079682E-01 Eh
   gradient norm :     0.0959249 Eh/α   predicted    -0.6217156E-01 (  52.39%)
   displ. norm   :     0.5827269 α      lambda       -0.1488473E-01
   maximum displ.:     0.5135278 α      in ANC's #1, #2, #3, ...

........................................................................
.............................. CYCLE    5 ..............................
........................................................................
   1     -9.8364891 -0.983649E+01  0.182E+00    2.63       0.0  T
   2     -9.8349877  0.150135E-02  0.110E+00    2.61       1.0  T
   3     -9.8135600  0.214277E-01  0.178E+00    2.52       1.0  T
   4     -9.8358849 -0.223248E-01  0.443E-01    2.67       1.0  T
   5     -9.8373418 -0.145689E-02  0.940E-02    2.61       1.0  T
   6     -9.8373541 -0.123747E-04  0.540E-02    2.61       1.0  T
   7     -9.8373614 -0.726933E-05  0.207E-02    2.61       2.2  T
   8     -9.8373643 -0.293640E-05  0.298E-03    2.61      15.0  T
   9     -9.8373643 -0.957769E-08  0.659E-04    2.61      67.8  T
  10     -9.8373643 -0.308855E-09  0.241E-04    2.61     185.8  T
     SCC iter.                  ...        0 min,  0.001 sec
     gradient                   ...        0 min,  0.001 sec
 * total energy  :    -9.6398016 Eh     change       -0.6829774E-02 Eh
   gradient norm :     0.1186667 Eh/α   predicted    -0.9969586E-02 (  45.97%)
   displ. norm   :     0.3462272 α      lambda       -0.1801020E-01
   maximum displ.:     0.2642449 α      in ANC's #3, #6, #9, ...

........................................................................
.............................. CYCLE    6 ..............................
........................................................................
   1     -9.8204817 -0.982048E+01  0.231E+00    2.73       0.0  T
   2     -9.7101009  0.110381E+00  0.379E+00    1.72       1.0  T
   3     -9.8427489 -0.132648E+00  0.106E+00    2.52       1.0  T
   4     -9.8471939 -0.444503E-02  0.510E-01    2.34       1.0  T
   5     -9.8476587 -0.464787E-03  0.164E-01    2.31       1.0  T
   6     -9.8477336 -0.749261E-04  0.886E-02    2.32       1.0  T
   7     -9.8477563 -0.226253E-04  0.430E-02    2.31       1.0  T
   8     -9.8477636 -0.738621E-05  0.620E-03    2.30       7.2  T
   9     -9.8477637 -0.648184E-07  0.128E-03    2.30      34.9  T
  10     -9.8477637 -0.236449E-08  0.453E-04    2.30      98.7  T
  11     -9.8477637 -0.138898E-08  0.296E-05    2.30    1510.8  T
     SCC iter.                  ...        0 min,  0.001 sec
     gradient                   ...        0 min,  0.001 sec
 * total energy  :    -9.6329840 Eh     change        0.6817545E-02 Eh
   gradient norm :     0.1427644 Eh/α   predicted    -0.1008458E-01 (-247.92%)
   displ. norm   :     0.3101897 α      lambda       -0.2557816E-01
   maximum displ.:     0.2671245 α      in ANC's #3, #1, #4, ...

........................................................................
.............................. CYCLE    7 ..............................
........................................................................
   1     -9.8650428 -0.986504E+01  0.148E+00    2.36       0.0  T
   2     -9.8333855  0.316573E-01  0.235E+00    2.88       1.0  T
   3     -9.8741322 -0.407467E-01  0.676E-01    2.50       1.0  T
   4     -9.8750145 -0.882299E-03  0.321E-01    2.51       1.0  T
   5     -9.8752514 -0.236931E-03  0.856E-02    2.52       1.0  T
   6     -9.8752966 -0.452427E-04  0.341E-02    2.53       1.3  T
   7     -9.8752982 -0.157000E-05  0.161E-02    2.53       2.8  T
   8     -9.8752987 -0.500809E-06  0.311E-03    2.53      14.4  T
   9     -9.8752987 -0.193289E-07  0.649E-04    2.53      68.9  T
  10     -9.8752987 -0.930488E-09  0.207E-04    2.53     215.6  T
     SCC iter.                  ...        0 min,  0.001 sec
     gradient                   ...        0 min,  0.001 sec
 * total energy  :    -9.6465835 Eh     change       -0.1359951E-01 Eh
   gradient norm :     0.0549928 Eh/α   predicted    -0.1401961E-01 (   3.09%)
   displ. norm   :     0.3101097 α      lambda       -0.1173715E-01
   maximum displ.:     0.1971668 α      in ANC's #5, #4, #2, ...

........................................................................
.............................. CYCLE    8 ..............................
........................................................................
   1     -9.8697476 -0.986975E+01  0.146E+00    3.05       0.0  T
   2     -9.8721405 -0.239283E-02  0.968E-01    2.88       1.0  T
   3     -9.8741553 -0.201479E-02  0.551E-01    2.98       1.0  T
   4     -9.8720341  0.212118E-02  0.515E-01    3.03       1.0  T
   5     -9.8743795 -0.234540E-02  0.686E-02    2.99       1.0  T
   6     -9.8743878 -0.830260E-05  0.346E-02    2.99       1.3  T
   7     -9.8743938 -0.600862E-05  0.596E-03    2.99       7.5  T
   8     -9.8743938 -0.562380E-07  0.305E-03    2.99      14.6  T
   9     -9.8743939 -0.284431E-07  0.202E-04    2.99     221.1  T
  10     -9.8743939 -0.174509E-10  0.377E-05    2.99    1187.5  T
     SCC iter.                  ...        0 min,  0.001 sec
     gradient                   ...        0 min,  0.001 sec
 * total energy  :    -9.6332111 Eh     change        0.1337241E-01 Eh
   gradient norm :     0.2427079 Eh/α   predicted    -0.6432947E-02 (-148.11%)
   displ. norm   :     0.2167771 α      lambda       -0.3085384E-01
   maximum displ.:     0.1255798 α      in ANC's #5, #2, #4, ...

........................................................................
.............................. CYCLE    9 ..............................
........................................................................
   1     -9.8638232 -0.986382E+01  0.120E+00    2.60       0.0  T
   2     -9.8578984  0.592478E-02  0.137E+00    2.91       1.0  T
   3     -9.8670559 -0.915742E-02  0.637E-01    2.67       1.0  T
   4     -9.8679899 -0.934023E-03  0.519E-01    2.73       1.0  T
   5     -9.8691935 -0.120362E-02  0.101E-01    2.67       1.0  T
   6     -9.8692634 -0.698807E-04  0.381E-02    2.69       1.2  T
   7     -9.8692656 -0.226516E-05  0.169E-02    2.69       2.6  T
   8     -9.8692674 -0.172444E-05  0.238E-03    2.69      18.8  T
   9     -9.8692674 -0.121620E-07  0.346E-04    2.69     129.3  T
  10     -9.8692674 -0.110594E-09  0.103E-04    2.69     435.8  T
     SCC iter.                  ...        0 min,  0.001 sec
     gradient                   ...        0 min,  0.001 sec
 * total energy  :    -9.6489200 Eh     change       -0.1570890E-01 Eh
   gradient norm :     0.0533282 Eh/α   predicted    -0.1615187E-01 (   2.82%)
   displ. norm   :     0.1028394 α      lambda       -0.2875541E-02
   maximum displ.:     0.0668539 α      in ANC's #2, #3, #9, ...

........................................................................
.............................. CYCLE   10 ..............................
........................................................................
   1     -9.8883588 -0.988836E+01  0.745E-01    2.75       0.0  T
   2     -9.8760554  0.123034E-01  0.135E+00    2.41       1.0  T
   3     -9.8917780 -0.157226E-01  0.206E-01    2.65       1.0  T
   4     -9.8918355 -0.574910E-04  0.105E-01    2.62       1.0  T
   5     -9.8918679 -0.323511E-04  0.334E-02    2.62       1.3  T
   6     -9.8918707 -0.284632E-05  0.171E-02    2.62       2.6  T
   7     -9.8918719 -0.119554E-05  0.830E-03    2.62       5.4  T
   8     -9.8918720 -0.129945E-06  0.910E-04    2.61      49.1  T
   9     -9.8918720 -0.803775E-09  0.143E-04    2.61     311.9  T
     SCC iter.                  ...        0 min,  0.001 sec
     gradient                   ...        0 min,  0.001 sec
 * total energy  :    -9.6491045 Eh     change       -0.1845321E-03 Eh
   gradient norm :     0.0424004 Eh/α   predicted    -0.1452978E-02 ( 687.39%)
   displ. norm   :     0.2378001 α      lambda       -0.3427322E-02
   maximum displ.:     0.1612488 α      in ANC's #2, #1, #6, ...

........................................................................
.............................. CYCLE   11 ..............................
........................................................................
   1     -9.8758063 -0.987581E+01  0.952E-01    2.53       0.0  T
   2     -9.8689333  0.687304E-02  0.112E+00    2.77       1.0  T
   3     -9.8762475 -0.731415E-02  0.574E-01    2.56       1.0  T
   4     -9.8775005 -0.125307E-02  0.133E-01    2.61       1.0  T
   5     -9.8775841 -0.835533E-04  0.398E-02    2.62       1.1  T
   6     -9.8775884 -0.434200E-05  0.175E-02    2.62       2.6  T
   7     -9.8775891 -0.681137E-06  0.279E-03    2.62      16.0  T
   8     -9.8775891 -0.235801E-07  0.163E-03    2.62      27.5  T
   9     -9.8775891 -0.678104E-08  0.211E-04    2.62     211.7  T
  10     -9.8775891 -0.833094E-10  0.421E-05    2.62    1061.2  T
     SCC iter.                  ...        0 min,  0.001 sec
     gradient                   ...        0 min,  0.001 sec
 * total energy  :    -9.6513832 Eh     change       -0.2278649E-02 Eh
   gradient norm :     0.0302419 Eh/α   predicted    -0.1810564E-02 ( -20.54%)
   displ. norm   :     0.1892270 α      lambda       -0.1481946E-02
   maximum displ.:     0.1137204 α      in ANC's #1, #2, #6, ...

........................................................................
.............................. CYCLE   12 ..............................
........................................................................
   1     -9.8712026 -0.987120E+01  0.694E-01    2.61       0.0  T
   2     -9.8696133  0.158922E-02  0.607E-01    2.71       1.0  T
   3     -9.8695512  0.621321E-04  0.571E-01    2.57       1.0  T
   4     -9.8715757 -0.202454E-02  0.362E-02    2.64       1.2  T
   5     -9.8715757  0.721845E-07  0.209E-02    2.64       2.1  T
   6     -9.8715778 -0.213621E-05  0.439E-03    2.64      10.2  T
   7     -9.8715779 -0.562486E-07  0.180E-03    2.64      24.8  T
   8     -9.8715779 -0.891616E-08  0.109E-03    2.64      41.0  T
   9     -9.8715779 -0.353874E-08  0.202E-04    2.64     221.1  T
  10     -9.8715779 -0.768612E-10  0.349E-05    2.64    1282.3  T
     SCC iter.                  ...        0 min,  0.001 sec
     gradient                   ...        0 min,  0.001 sec
 * total energy  :    -9.6522212 Eh     change       -0.8379583E-03 Eh
   gradient norm :     0.0460128 Eh/α   predicted    -0.7675027E-03 (  -8.41%)
   displ. norm   :     0.0733494 α      lambda       -0.1248366E-02
   maximum displ.:     0.0431030 α      in ANC's #5, #6, #2, ...

........................................................................
.............................. CYCLE   13 ..............................
........................................................................
   1     -9.8808158 -0.988082E+01  0.307E-01    2.69       0.0  T
   2     -9.8793418  0.147400E-02  0.497E-01    2.57       1.0  T
   3     -9.8812166 -0.187481E-02  0.127E-01    2.65       1.0  T
   4     -9.8812177 -0.104223E-05  0.833E-02    2.64       1.0  T
   5     -9.8812440 -0.262795E-04  0.108E-02    2.65       4.1  T
   6     -9.8812444 -0.454512E-06  0.549E-03    2.64       8.1  T
   7     -9.8812444 -0.140797E-07  0.162E-03    2.64      27.7  T
   8     -9.8812444 -0.121354E-07  0.612E-04    2.64      73.1  T
   9     -9.8812444 -0.126362E-08  0.686E-05    2.64     651.7  T
     SCC iter.                  ...        0 min,  0.001 sec
     gradient                   ...        0 min,  0.001 sec
 * total energy  :    -9.6530312 Eh     change       -0.8100125E-03 Eh
   gradient norm :     0.0249798 Eh/α   predicted    -0.6275412E-03 ( -22.53%)
   displ. norm   :     0.1819938 α      lambda       -0.1257161E-02
   maximum displ.:     0.1304130 α      in ANC's #2, #6, #1, ...

........................................................................
.............................. CYCLE   14 ..............................
........................................................................
   1     -9.8814266 -0.988143E+01  0.706E-01    2.53       0.0  T
   2     -9.8812061  0.220495E-03  0.458E-01    2.59       1.0  T
   3     -9.8777275  0.347864E-02  0.673E-01    2.43       1.0  T
   4     -9.8815330 -0.380547E-02  0.756E-02    2.55       1.0  T
   5     -9.8815590 -0.260249E-04  0.222E-02    2.55       2.0  T
   6     -9.8815588  0.220581E-06  0.127E-02    2.55       3.5  T
   7     -9.8815594 -0.657316E-06  0.249E-03    2.55      18.0  T
   8     -9.8815594 -0.182644E-07  0.685E-04    2.55      65.2  T
   9     -9.8815594 -0.897115E-09  0.104E-04    2.55     428.5  T
     SCC iter.                  ...        0 min,  0.001 sec
     gradient                   ...        0 min,  0.001 sec
 * total energy  :    -9.6537926 Eh     change       -0.7614694E-03 Eh
   gradient norm :     0.0146498 Eh/α   predicted    -0.6494004E-03 ( -14.72%)
   displ. norm   :     0.1888812 α      lambda       -0.8449890E-03
   maximum displ.:     0.1323584 α      in ANC's #1, #6, #2, ...

........................................................................
.............................. CYCLE   15 ..............................
........................................................................
   1     -9.8880602 -0.988806E+01  0.569E-01    2.64       0.0  T
   2     -9.8878161  0.244126E-03  0.394E-01    2.58       1.0  T
   3     -9.8856925  0.212359E-02  0.557E-01    2.71       1.0  T
   4     -9.8881464 -0.245389E-02  0.720E-02    2.63       1.0  T
   5     -9.8881703 -0.239355E-04  0.170E-02    2.62       2.6  T
   6     -9.8881702  0.120230E-06  0.709E-03    2.62       6.3  T
   7     -9.8881704 -0.193002E-06  0.205E-03    2.62      21.8  T
   8     -9.8881704 -0.151166E-07  0.588E-04    2.62      76.1  T
   9     -9.8881704 -0.609395E-09  0.107E-04    2.62     419.7  T
     SCC iter.                  ...        0 min,  0.001 sec
     gradient                   ...        0 min,  0.001 sec
 * total energy  :    -9.6542418 Eh     change       -0.4491827E-03 Eh
   gradient norm :     0.0160685 Eh/α   predicted    -0.4375631E-03 (  -2.59%)
   displ. norm   :     0.0566683 α      lambda       -0.2428327E-03
   maximum displ.:     0.0340929 α      in ANC's #1, #6, #9, ...

........................................................................
.............................. CYCLE   16 ..............................
........................................................................
   1     -9.8899481 -0.988995E+01  0.239E-01    2.62       0.0  T
   2     -9.8893753  0.572831E-03  0.314E-01    2.54       1.0  T
   3     -9.8900625 -0.687263E-03  0.123E-01    2.60       1.0  T
   4     -9.8901014 -0.389116E-04  0.343E-02    2.59       1.3  T
   5     -9.8901072 -0.571239E-05  0.811E-03    2.59       5.5  T
   6     -9.8901073 -0.166928E-06  0.275E-03    2.59      16.3  T
   7     -9.8901073 -0.929881E-08  0.969E-04    2.59      46.2  T
   8     -9.8901073 -0.429354E-08  0.398E-04    2.59     112.3  T
     SCC iter.                  ...        0 min,  0.001 sec
     gradient                   ...        0 min,  0.001 sec
 * total energy  :    -9.6543687 Eh     change       -0.1269019E-03 Eh
   gradient norm :     0.0037169 Eh/α   predicted    -0.1218060E-03 (  -4.02%)
   displ. norm   :     0.1188636 α      lambda       -0.1678600E-03
   maximum displ.:     0.0772638 α      in ANC's #1, #6, #2, ...

........................................................................
.............................. CYCLE   17 ..............................
........................................................................
   1     -9.8826971 -0.988270E+01  0.444E-01    2.57       0.0  T
   2     -9.8821094  0.587684E-03  0.389E-01    2.64       1.0  T
   3     -9.8821404 -0.310138E-04  0.343E-01    2.55       1.0  T
   4     -9.8828516 -0.711241E-03  0.270E-02    2.59       1.7  T
   5     -9.8828547 -0.305973E-05  0.132E-02    2.60       3.4  T
   6     -9.8828548 -0.819155E-07  0.463E-03    2.60       9.7  T
   7     -9.8828549 -0.998667E-07  0.129E-03    2.59      34.7  T
   8     -9.8828549 -0.499591E-08  0.725E-04    2.60      61.6  T
   9     -9.8828549 -0.147826E-08  0.147E-04    2.60     304.8  T
     SCC iter.                  ...        0 min,  0.001 sec
     gradient                   ...        0 min,  0.001 sec
 * total energy  :    -9.6543342 Eh     change        0.3450824E-04 Eh
   gradient norm :     0.0119980 Eh/α   predicted    -0.8511677E-04 (-346.66%)
   displ. norm   :     0.0627903 α      lambda       -0.2107897E-03
   maximum displ.:     0.0440534 α      in ANC's #1, #6, #9, ...

........................................................................
.............................. CYCLE   18 ..............................
........................................................................
   1     -9.8887626 -0.988876E+01  0.238E-01    2.61       0.0  T
   2     -9.8884381  0.324568E-03  0.256E-01    2.55       1.0  T
   3     -9.8887612 -0.323079E-03  0.146E-01    2.61       1.0  T
   4     -9.8888498 -0.886059E-04  0.219E-02    2.59       2.0  T
   5     -9.8888521 -0.234195E-05  0.726E-03    2.59       6.2  T
   6     -9.8888521 -0.224076E-07  0.348E-03    2.59      12.8  T
   7     -9.8888522 -0.370770E-07  0.934E-04    2.59      47.9  T
   8     -9.8888522 -0.300152E-08  0.412E-04    2.59     108.5  T
     SCC iter.                  ...        0 min,  0.001 sec
     gradient                   ...        0 min,  0.001 sec
 * total energy  :    -9.6544278 Eh     change       -0.9363139E-04 Eh
   gradient norm :     0.0017160 Eh/α   predicted    -0.1058091E-03 (  13.01%)
   displ. norm   :     0.0200790 α      lambda       -0.7398093E-05
   maximum displ.:     0.0112593 α      in ANC's #1, #6, #8, ...

........................................................................
.............................. CYCLE   19 ..............................
........................................................................
   1     -9.8886924 -0.988869E+01  0.718E-02    2.59       0.0  T
   2     -9.8886925 -0.105052E-06  0.425E-02    2.59       1.1  T
   3     -9.8886919  0.682984E-06  0.984E-03    2.59       4.5  T
   4     -9.8886926 -0.716938E-06  0.356E-03    2.59      12.6  T
   5     -9.8886926 -0.312399E-07  0.151E-03    2.59      29.7  T
   6     -9.8886926 -0.878861E-08  0.184E-04    2.59     243.0  T
   7     -9.8886926 -0.170509E-09  0.726E-05    2.59     615.8  T
     SCC iter.                  ...        0 min,  0.001 sec
     gradient                   ...        0 min,  0.001 sec
 * total energy  :    -9.6544350 Eh     change       -0.7120861E-05 Eh
   gradient norm :     0.0006478 Eh/α   predicted    -0.3699610E-05 ( -48.05%)
   displ. norm   :     0.0114115 α      lambda       -0.2389034E-05
   maximum displ.:     0.0058100 α      in ANC's #6, #1, #8, ...

........................................................................
.............................. CYCLE   20 ..............................
........................................................................
   1     -9.8889023 -0.988890E+01  0.382E-02    2.60       0.0  T
   2     -9.8888956  0.670597E-05  0.388E-02    2.59       1.2  T
   3     -9.8889016 -0.600321E-05  0.244E-02    2.60       1.8  T
   4     -9.8889043 -0.265678E-05  0.555E-03    2.59       8.1  T
   5     -9.8889044 -0.153299E-06  0.143E-03    2.59      31.2  T
   6     -9.8889044 -0.171086E-09  0.787E-04    2.59      56.8  T
   7     -9.8889045 -0.220600E-08  0.140E-04    2.59     320.3  T
     SCC iter.                  ...        0 min,  0.001 sec
     gradient                   ...        0 min,  0.001 sec
 * total energy  :    -9.6544368 Eh     change       -0.1787926E-05 Eh
   gradient norm :     0.0006979 Eh/α   predicted    -0.1195695E-05 ( -33.12%)
   displ. norm   :     0.0031513 α      lambda       -0.5323060E-06
   maximum displ.:     0.0016335 α      in ANC's #5, #4, #1, ...

   *** GEOMETRY OPTIMIZATION CONVERGED AFTER 20 ITERATIONS ***

------------------------------------------------------------------------
 total energy gain   :        -0.2199193 Eh     -138.0014 kcal/mol
 total RMSD          :         1.1829533 a0        0.6260 Å
 total power (kW/mol):       -28.8698991 (step)-9923.3053 (real)
------------------------------------------------------------------------

 ANCopt (total)                0 d,  0 h,  0 min,  0.058 sec
 optimizer setup                ...        0 min,  0.000 sec (  0.107%)
 model hessian                  ...        0 min,  0.000 sec (  0.146%)
 ANC generation                 ...        0 min,  0.000 sec (  0.088%)
 coordinate transformation      ...        0 min,  0.000 sec (  0.076%)
 single point calculation       ...        0 min,  0.056 sec ( 96.892%)
 optimization log               ...        0 min,  0.001 sec (  0.875%)
 hessian update                 ...        0 min,  0.000 sec (  0.070%)
 rational function              ...        0 min,  0.000 sec (  0.727%)

================
 final structure:
================
5
 xtb: 6.2.2 (9d81278992624c895f80dd42a50cac0aa55982e2)
C         2.37876189531389   -0.04922447611424    0.68703665303417
C         1.15061854081499   -0.04142388171886    0.40656924348946
C        -0.12194022248089   -0.00261211930735    0.14048766443087
N        -1.24077643240990   -0.12807695652102   -0.23275165176664
H        -2.16666378123807    0.22133743366149   -0.14554190918787

 Bond Distances (Angstroems)
 ---------------------------
C1-C2=1.2598         C2-C1=1.2598         C2-C3=1.3007         C3-C2=1.3007         C3-N4=1.1861         N4-C3=1.1861         
N4-H5=0.9935         H5-N4=0.9935         
 C  C  Rav=1.2802 sigma=0.0204  Rmin=1.2598  Rmax=1.3007     2
 N  H  Rav=0.9935 sigma=0.0000  Rmin=0.9935  Rmax=0.9935     1
 N  C  Rav=1.1861 sigma=0.0000  Rmin=1.1861  Rmax=1.1861     1

 selected bond angles (degree)
 --------------------
C3-C2-C1=178.28                N4-C3-C2=169.78                H5-N4-C3=144.52                

 selected dihedral angles (degree)
 ---------------------------------
N4-C3-C2-C1=177.51            H5-N4-C3-C2=179.97            
           -------------------------------------------------
          |                Final Singlepoint                |
           -------------------------------------------------

          ...................................................
          :                      SETUP                      :
          :.................................................:
          :  # basis functions                  17          :
          :  # atomic orbitals                  17          :
          :  # shells                            9          :
          :  # electrons                        18          :
          :  max. iterations                   250          :
          :  Hamiltonian                  GFN2-xTB          :
          :  restarted?                      false          :
          :  GBSA solvation                  false          :
          :  PC potential                    false          :
          :  electronic temp.          300.0000000     K    :
          :  accuracy                    1.0000000          :
          :  -> integral cutoff          0.2500000E+02      :
          :  -> integral neglect         0.1000000E-07      :
          :  -> SCF convergence          0.1000000E-05 Eh   :
          :  -> wf. convergence          0.1000000E-03 e    :
          :  Broyden damping             0.4000000          :
          ...................................................

 iter      E             dE          RMSdq      gap      omega  full diag
   1     -9.8889045 -0.988890E+01  0.286E-05    2.59       0.0  T
   2     -9.8889045  0.188116E-11  0.256E-05    2.59    1749.5  T
   3     -9.8889045 -0.239808E-12  0.194E-05    2.59    2304.9  T

   *** convergence criteria satisfied after 3 iterations ***

         #    Occupation            Energy/Eh            Energy/eV
      -------------------------------------------------------------
         1        2.0000           -0.6889681             -18.7478
       ...           ...                  ...                  ...
         3        2.0000           -0.6058249             -16.4853
         4        2.0000           -0.5716717             -15.5560
         5        2.0000           -0.5379680             -14.6389
         6        2.0000           -0.5332286             -14.5099
         7        2.0000           -0.4231023             -11.5132
         8        2.0000           -0.4192162             -11.4075
         9        2.0000           -0.3946169             -10.7381 (HOMO)
        10                         -0.2993174              -8.1448 (LUMO)
        11                         -0.2864898              -7.7958
        12                         -0.1065572              -2.8996
        13                         -0.0951164              -2.5883
        14                          0.0269887               0.7344
       ...                                ...                  ...
        17                          1.3910823              37.8533
      -------------------------------------------------------------
                  HL-Gap            0.0952995 Eh            2.5932 eV
             Fermi-level           -0.3469671 Eh           -9.4415 eV

 SCC (total)                   0 d,  0 h,  0 min,  0.002 sec
 SCC setup                      ...        0 min,  0.000 sec (  1.835%)
 Dispersion                     ...        0 min,  0.000 sec (  0.359%)
 integral evaluation            ...        0 min,  0.001 sec ( 39.583%)
 zeroth order Hamiltonian       ...        0 min,  0.000 sec (  0.495%)
 iterations                     ...        0 min,  0.000 sec ( 13.845%)
 molecular gradient             ...        0 min,  0.001 sec ( 40.087%)
 printout                       ...        0 min,  0.000 sec (  3.427%)

         :::::::::::::::::::::::::::::::::::::::::::::::::::::
         ::                     SUMMARY                     ::
         :::::::::::::::::::::::::::::::::::::::::::::::::::::
         :: total energy              -9.654436753479 Eh    ::
         :: gradient norm              0.000806859520 Eh/a0 ::
         :: HOMO-LUMO gap              2.593231335956 eV    ::
         ::.................................................::
         :: SCC energy                -9.888904451140 Eh    ::
         :: -> isotropic ES            0.000104652063 Eh    ::
         :: -> anisotropic ES         -0.000700780033 Eh    ::
         :: -> anisotropic XC          0.019706373843 Eh    ::
         :: -> dispersion             -0.002047080822 Eh    ::
         :: repulsion energy           0.234468147287 Eh    ::
         :: add. restraining           0.000000000000 Eh    ::
         :::::::::::::::::::::::::::::::::::::::::::::::::::::

           ------------------------------------------------- 
          |                Numerical Hessian                |
           ------------------------------------------------- 
step length          :   0.00500
SCC accuracy         :   0.30000
Hessian scale factor :   1.00000
frozen atoms in %    :   0.00000    0
RMS gradient         :   0.00081
estimated CPU  time      0.00 min
estimated wall time      0.00 min

writing file <hessian>.

 projected vibrational frequencies (cm-1)
eigval :       -0.00    -0.00    -0.00    -0.00     0.00     0.00
eigval :      169.01   191.24   497.11   527.92   550.38  1003.31
eigval :     1968.25  2269.94  3613.10
           -------------------------------------------------
          |                Property Printout                |
           -------------------------------------------------

    * Orbital Energies and Occupations

         #    Occupation            Energy/Eh            Energy/eV
      -------------------------------------------------------------
         1        2.0000           -0.6889683             -18.7478
         2        2.0000           -0.6381715             -17.3655
         3        2.0000           -0.6058249             -16.4853
         4        2.0000           -0.5716717             -15.5560
         5        2.0000           -0.5379681             -14.6389
         6        2.0000           -0.5332287             -14.5099
         7        2.0000           -0.4231023             -11.5132
         8        2.0000           -0.4192161             -11.4075
         9        2.0000           -0.3946166             -10.7381 (HOMO)
        10                         -0.2993173              -8.1448 (LUMO)
        11                         -0.2864897              -7.7958
        12                         -0.1065571              -2.8996
        13                         -0.0951164              -2.5882
        14                          0.0269886               0.7344
        15                          0.2926583               7.9636
        16                          0.8402483              22.8643
        17                          1.3910823              37.8533
      -------------------------------------------------------------
                  HL-Gap            0.0952993 Eh            2.5932 eV
             Fermi-level           -0.3469669 Eh           -9.4415 eV

     #   Z        covCN         q      C6AA      α(0)
     1   6 C      0.982    -0.171    41.574    10.831
     2   6 C      1.963    -0.032    31.927     9.125
     3   6 C      1.893     0.157    27.326     8.443
     4   7 N      1.773    -0.170    25.448     7.470
     5   1 H      0.861     0.216     1.027     1.588

 Mol. C6AA /au·bohr⁶  :        545.685628
 Mol. C8AA /au·bohr⁸  :      14466.932688
 Mol. α(0) /au        :         37.455774


Wiberg/Mayer (AO) data.
largest (>0.10) Wiberg bond orders for each atom
          total WBO             WBO to atom ...
     1  C   2.759        C    2 2.260    N    4 0.303    C    3 0.187
     2  C   3.955        C    1 2.260    C    3 1.554    N    4 0.123
     3  C   3.918        N    4 2.166    C    2 1.554    C    1 0.187
     4  N   3.505        C    3 2.166    H    5 0.914    C    1 0.303    C    2 0.123
     5  H   0.953        N    4 0.914

MOs/occ written to file <molden.input>


molecular dipole:
                 x           y           z       tot (Debye)
 q only:       -1.360       0.149      -0.190
   full:       -2.018       0.275      -0.234       5.210
molecular quadrupole (traceless):
                xx          xy          yy          xz          yz          zz
 q only:       -0.763      -0.584       0.636      -1.488      -0.031       0.128
  q+dip:       -0.630      -1.169       0.716      -2.286      -0.043      -0.085
   full:       -4.064      -1.138       2.572      -3.504      -0.043       1.493

           -------------------------------------------------
          |                Geometry Summary                 |
           -------------------------------------------------

      molecular mass/u    :       51.0468517
   center of mass at/Å    :        0.4184946      -0.0527174       0.2236283
  moments of inertia/u·Å² :        0.3083105E+00   0.1073957E+03   0.1077040E+03
rotational constants/cm⁻¹ :        0.5467744E+02   0.1569675E+00   0.1565182E+00

 * 4 selected distances

     #   Z        #   Z                                     value/Å
     1   6 C      2   6 C                                 1.2597853
     2   6 C      3   6 C                                 1.3006581 (max)
     3   6 C      4   7 N                                 1.1861043
     4   7 N      5   1 H                                 0.9934603 (min)

 * 3 distinct bonds (by element types)

   Z      Z             #   av. dist./Å        max./Å        min./Å
   6 C    6 C           2     1.2802217     1.3006581     1.2597853
   1 H    7 N           1     0.9934603     0.9934603     0.9934603
   6 C    7 N           1     1.1861043     1.1861043     1.1861043

           -------------------------------------------------
          |               Frequency Printout                |
           -------------------------------------------------
 projected vibrational frequencies (cm-1)
eigval :       -0.00    -0.00    -0.00    -0.00     0.00     0.00
eigval :      169.01   191.24   497.11   527.92   550.38  1003.31
eigval :     1968.25  2269.94  3613.10
 reduced masses (amu)
   1: 11.52   2: 10.71   3: 11.82   4: 11.97   5: 12.43   6:  9.85   7: 11.50   8:  9.49
   9: 12.13  10: 10.02  11:  2.95  12: 12.45  13: 12.12  14: 12.12  15:  2.07
 IR intensities (amu)
   1:  0.39   2:  0.31   3:  0.23   4:  0.19   5:  0.12   6:  0.55   7:  0.38   8:  0.18
   9:  0.55  10:  0.25  11:  0.74  12:  0.15  13:  0.10  14:  3.30  15:  0.70
 Raman intensities (amu)
   1:  0.00   2:  0.00   3:  0.00   4:  0.00   5:  0.00   6:  0.00   7:  0.00   8:  0.00
   9:  0.00  10:  0.00  11:  0.00  12:  0.00  13:  0.00  14:  0.00  15:  0.00
 output can be read by thermo (or use thermo option).
Molecule has the following symmetry elements: (sigma) 
It seems to be the Cs point group
 writing <g98.out> molden fake output.
 recommended (thermochemical) frequency scaling factor: 1.0
           -------------------------------------------------
          |             Thermodynamic Functions             |
           -------------------------------------------------

cs  symmetry found (for desy threshold:  0.10E+00) used in thermo

          ...................................................
          :                      SETUP                      :
          :.................................................:
          :  # frequencies                           9      :
          :  # imaginary freq.                       0      :
          :  linear?                             false      :
          :  only rotor calc.                    false      :
          :  symmetry                               cs      :
          :  rotational number                       1      :
          :  scaling factor                  1.0000000      :
          :  rotor cutoff                   50.0000000 cm⁻¹ :
          :  imag. cutoff                  -20.0000000 cm⁻¹ :
          :.................................................:

    mode    ω/cm⁻¹     T·S(HO)/kcal·mol⁻¹    T·S(FR)/kcal·mol⁻¹   T·S(vib)
   ------------------------------------------------------------------------
       1    169.01    -0.00000 ( 99.24%)     0.01041 (  0.76%)     0.00008
       2    191.24    -0.00000 ( 99.53%)     0.01164 (  0.47%)     0.00005
   ------------------------------------------------------------------------

   temp. (K)  partition function   enthalpy   heat capacity  entropy
                                   cal/mol     cal/K/mol   cal/K/mol   J/K/mol
 298.15  VIB   3.85                 1156.322      7.708      6.557
         ROT  0.456E+04              888.752      2.981     19.725
         INT  0.176E+05             2045.074     10.688     26.281
         TR   0.353E+27             1481.254      4.968     37.697
         TOT                        3526.3283    15.6566    63.9776   267.6824

   temp. (K)  partition function   enthalpy   heat capacity  entropy
                                   cal/mol     cal/K/mol   cal/K/mol   J/K/mol
 120.00  VIB   1.29                  143.308      3.178      1.705
         ROT  0.116E+04              357.707      2.981     17.012
         INT  0.150E+04              501.015      6.158     18.716
         TR   0.901E+26              596.178      4.968     33.177
         TOT                        1097.1928    11.1266    51.8937   217.1232

   temp. (K)  partition function   enthalpy   heat capacity  entropy
                                   cal/mol     cal/K/mol   cal/K/mol   J/K/mol
 100.00  VIB   1.17                   86.292      2.520      1.188
         ROT   886.                  298.089      2.981     16.468
         INT  0.104E+04              384.381      5.501     17.656
         TR   0.685E+26              496.815      4.968     32.272
         TOT                         881.1955    10.4692    49.9275   208.8967

   temp. (K)  partition function   enthalpy   heat capacity  entropy
                                   cal/mol     cal/K/mol   cal/K/mol   J/K/mol
  80.00  VIB   1.09                   42.790      1.818      0.705
         ROT   634.                  238.471      2.981     15.803
         INT   688.                  281.261      4.799     16.508
         TR   0.490E+26              397.452      4.968     31.164
         TOT                         678.7129     9.7673    47.6719   199.4593

   temp. (K)  partition function   enthalpy   heat capacity  entropy
                                   cal/mol     cal/K/mol   cal/K/mol   J/K/mol
  60.00  VIB   1.03                   14.193      1.026      0.298
         ROT   412.                  178.853      2.981     14.945
         INT   423.                  193.046      4.007     15.244
         TR   0.319E+26              298.089      4.968     29.735
         TOT                         491.1350     8.9748    44.9789   188.1917

   temp. (K)  partition function   enthalpy   heat capacity  entropy
                                   cal/mol     cal/K/mol   cal/K/mol   J/K/mol
  40.00  VIB   1.00                    1.673      0.266      0.051
         ROT   224.                  119.236      2.981     13.737
         INT   225.                  120.908      3.247     13.788
         TR   0.173E+26              198.726      4.968     27.722
         TOT                         319.6341     8.2150    41.5100   173.6779

   temp. (K)  partition function   enthalpy   heat capacity  entropy
                                   cal/mol     cal/K/mol   cal/K/mol   J/K/mol
  20.00  VIB   1.00                    0.003      0.002     -0.005
         ROT   79.3                   59.618      2.981     11.671
         INT   79.3                   59.621      2.983     11.665
         TR   0.613E+25               99.363      4.968     24.280
         TOT                         158.9839     7.9510    35.9453   150.3951

   temp. (K)  partition function   enthalpy   heat capacity  entropy
                                   cal/mol     cal/K/mol   cal/K/mol   J/K/mol
  10.00  VIB   1.00                    0.000      0.000     -0.014
         ROT   28.0                   29.809      2.981      9.604
         INT   28.0                   29.809      2.981      9.590
         TR   0.217E+25               49.681      4.968     20.838
         TOT                          79.4904     7.9490    30.4283   127.3122

       T/K    H(0)-H(T)+PV         H(T)/Eh          T*S/Eh         G(T)/Eh
   ------------------------------------------------------------------------
    298.15    0.561956E-02    0.302016E-01    0.303978E-01   -0.196248E-03
    120.00    0.174849E-02    0.263305E-01    0.992374E-02    0.164068E-01
    100.00    0.140427E-02    0.259863E-01    0.795646E-02    0.180298E-01
     80.00    0.108160E-02    0.256636E-01    0.607760E-02    0.195860E-01
     60.00    0.782673E-03    0.253647E-01    0.430071E-02    0.210640E-01
     40.00    0.509369E-03    0.250914E-01    0.264602E-02    0.224454E-01
     20.00    0.253357E-03    0.248354E-01    0.114565E-02    0.236897E-01
     10.00    0.126676E-03    0.247087E-01    0.484906E-03    0.242238E-01 (used)
   ------------------------------------------------------------------------

         :::::::::::::::::::::::::::::::::::::::::::::::::::::
         ::                  THERMODYNAMIC                  ::
         :::::::::::::::::::::::::::::::::::::::::::::::::::::
         :: total free energy          -9.630212955354 Eh   ::
         ::.................................................::
         :: total energy               -9.654436753505 Eh   ::
         :: zero point energy           0.024582028549 Eh   ::
         :: G(RRHO) w/o ZPVE           -0.000358230398 Eh   ::
         :: G(RRHO) contrib.            0.024223798151 Eh   ::
         :::::::::::::::::::::::::::::::::::::::::::::::::::::

optimized geometry written to: xtbopt.xyz


           -------------------------------------------------
          | TOTAL ENERGY               -9.654436753505 Eh   |
          | TOTAL ENTHALPY             -9.629728048940 Eh   |
          | TOTAL FREE ENERGY          -9.630212955354 Eh   |
          | GRADIENT NORM               0.000807497069 Eh/α |
          | HOMO-LUMO GAP               2.593225995838 eV   |
           -------------------------------------------------

------------------------------------------------------------------------
 * finished run on 2020/05/12 at 11:44:53.380     
------------------------------------------------------------------------
 total:
 * wall-time:     0 d,  0 h,  0 min,  0.161 sec
 *  cpu-time:     0 d,  0 h,  0 min,  0.160 sec
 * ratio c/w:     0.998 speedup
 SCF:
 * wall-time:     0 d,  0 h,  0 min,  0.004 sec
 *  cpu-time:     0 d,  0 h,  0 min,  0.004 sec
 * ratio c/w:     1.000 speedup
 ANC optimizer:
 * wall-time:     0 d,  0 h,  0 min,  0.061 sec
 *  cpu-time:     0 d,  0 h,  0 min,  0.061 sec
 * ratio c/w:     0.998 speedup
 numerical hessian:
 * wall-time:     0 d,  0 h,  0 min,  0.078 sec
 *  cpu-time:     0 d,  0 h,  0 min,  0.078 sec
 * ratio c/w:     0.997 speedup

