$hessian                                                                        
        0.7715200206  -0.0049923385   0.1743274100  -0.6997971719   0.0032656569
       -0.1568919166  -0.0946495345  -0.0040418102  -0.0280356709   0.0259049359
        0.0079918350   0.0130010371  -0.0029782501  -0.0022233433  -0.0024008596
       -0.0049923385   0.0071686654  -0.0016162535   0.0046470668  -0.0161098561
        0.0018607735   0.0005377258   0.0103206729   0.0000013696  -0.0003471726
       -0.0001253235  -0.0002545258   0.0001547185  -0.0012541586   0.0000086362
        0.1743274100  -0.0016162535   0.0470378066  -0.1556154535   0.0015525464
       -0.0520446387  -0.0242058531  -0.0010883965   0.0038706752   0.0057624463
        0.0016756340   0.0029406513  -0.0002685497  -0.0005235305  -0.0018044943
       -0.6997971719   0.0046470668  -0.1556154535   1.2432373053  -0.0186481166
        0.2637846006  -0.4644860506   0.0241043299  -0.0778687722  -0.0862848558
       -0.0126513469  -0.0324574037   0.0073307730   0.0025480668   0.0021570288
        0.0032656569  -0.0161098561   0.0015525464  -0.0186481166   0.0492745805
       -0.0054727038   0.0183086641  -0.0466762022   0.0041004736  -0.0027929126
        0.0065888792   0.0006660631  -0.0001332917   0.0069225986  -0.0008463793
       -0.1568919166   0.0018607735  -0.0520446387   0.2637846006  -0.0054727038
        0.1076609733  -0.0827860583   0.0054523933  -0.0612715222  -0.0238421013
       -0.0015603825  -0.0020302681  -0.0002645244  -0.0002800804   0.0076854557
       -0.0946495345   0.0005377258  -0.0242058531  -0.4644860506   0.0183086641
       -0.0827860583   1.4767824638   0.0595881513   0.3871109465  -0.8851215293
       -0.0635224084  -0.2619563719  -0.0325253495  -0.0149121328  -0.0181626631
       -0.0040418102   0.0103206729  -0.0010883965   0.0241043299  -0.0466762022
        0.0054523933   0.0595881513   0.0688883989   0.0250918607  -0.0855901135
       -0.0233402089  -0.0323957993   0.0059394424  -0.0091926607   0.0029399417
       -0.0280356709   0.0000013696   0.0038706752  -0.0778687722   0.0041004736
       -0.0612715222   0.3871109465   0.0250918607   0.1695207548  -0.2813387280
       -0.0272803237  -0.0994032375   0.0001322246  -0.0019133801  -0.0127166703
        0.0259049359  -0.0003471726   0.0057624463  -0.0862848558  -0.0027929126
       -0.0238421013  -0.8851215293  -0.0855901135  -0.2813387280   1.3272098309
       -0.0691294538   0.2518386088  -0.3817083818   0.1578596526   0.0475797742
        0.0079918350  -0.0001253235   0.0016756340  -0.0126513469   0.0065888792
       -0.0015603825  -0.0635224084  -0.0233402089  -0.0272803237  -0.0691294538
        0.0712619714   0.0441409538   0.1373113741  -0.0543853183  -0.0169758816
        0.0130010371  -0.0002545258   0.0029406513  -0.0324574037   0.0006660631
       -0.0020302681  -0.2619563719  -0.0323957993  -0.0994032375   0.2518386088
        0.0441409538   0.1000513761   0.0295741298  -0.0121566919  -0.0015585218
       -0.0029782501   0.0001547185  -0.0002685497   0.0073307730  -0.0001332917
       -0.0002645244  -0.0325253495   0.0059394424   0.0001322246  -0.3817083818
        0.1373113741   0.0295741298   0.4098812084  -0.1432722433  -0.0291732803
       -0.0022233433  -0.0012541586  -0.0005235305   0.0025480668   0.0069225986
       -0.0002800804  -0.0149121328  -0.0091926607  -0.0019133801   0.1578596526
       -0.0543853183  -0.0121566919  -0.1432722433   0.0579095390   0.0148736829
       -0.0024008596   0.0000086362  -0.0018044943   0.0021570288  -0.0008463793
        0.0076854557  -0.0181626631   0.0029399417  -0.0127166703   0.0475797742
       -0.0169758816  -0.0015585218  -0.0291732803   0.0148736829   0.0083942308
