[Molden Format]
[Title]
[Atoms] AU
O      1     8  0.22971443706048E+01 -0.23752050844023E+00 -0.89534846200084E-01
C      2     6 -0.43152555734432E-01  0.23880791376471E-02  0.42311073939721E+00
H      3     1 -0.95427760877080E+00  0.17848927932660E+01 -0.15858411750750E+00
H      4     1 -0.12997142061061E+01 -0.15497603639667E+01 -0.17499366541557E+00
[GTO]
           1 0
 s           4   1.0000000000000000     
   69.137961906196551      -0.20478756370077797     
   11.906129132707308      -0.24997023136827334     
  0.95670827744340703       0.40025880240639616     
  0.36462520496073686       0.15952206667693555     
 p           4   1.0000000000000000     
   8.2124193257781641        1.1321556799186829     
   2.1293576997098116        1.0476840782254817     
  0.75066448202360914       0.54956508217158984     
  0.29885246543283073        8.2908486592766617E-002

           2 0
 s           4   1.0000000000000000     
   51.049363095579913      -0.16312063210127389     
   8.7911227406887544      -0.19911024581000730     
  0.70640422258929825       0.31882047753655751     
  0.26922813413411617       0.12706504184240380     
 p           4   1.0000000000000000     
   5.8263656140800002       0.73716451545209605     
   1.5106896018720002       0.68216371614850257     
  0.53256483288000001       0.35783053929253711     
  0.21202323690600003        5.3983030275847881E-002

           3 0
 s           3   1.0000000000000000     
   3.3702276975336001       0.27359110588908298     
  0.61389118221497996       0.26460540653860526     
  0.16614291148415999        8.2465947534082318E-002

           4 0
 s           3   1.0000000000000000     
   3.3702276975336001       0.27359110588908298     
  0.61389118221497996       0.26460540653860526     
  0.16614291148415999        8.2465947534082318E-002

[MO]
Sym=     1a
Ene=  -0.70911344002893362     
Spin= Alpha
Occup=     2.00000000
           1  0.71255020708682182     
           2 -0.18918521310107234     
           3   1.9427637527791475E-002
           4   3.4562173085752490E-002
           5  0.30792828316586929     
           6  0.20936726444156090     
           7  -2.1443339517812694E-002
           8  -4.9788682910324358E-002
           9   3.7639721392191745E-002
          10   3.7639723404513957E-002
Sym=     2a
Ene=  -0.61503247882848489     
Spin= Alpha
Occup=     2.00000000
           1  0.50042004613353874     
           2  0.40416439013334121     
           3  -4.1673729158398967E-002
           4  -3.9341500195424040E-002
           5 -0.45088598248908390     
           6  0.12961818884213472     
           7  -1.3624653629383794E-002
           8   4.0143557448725241E-002
           9 -0.23515263353230456     
          10 -0.23515266619918987     
Sym=     3a
Ene=  -0.55248563525048200     
Spin= Alpha
Occup=     2.00000000
           1   4.3560626902113053E-008
           2  -5.8971412596872434E-002
           3 -0.56927752558300038     
           4  -2.8013583045447179E-003
           5  -2.6757167753839338E-008
           6  -5.0178232423925710E-002
           7 -0.48439301633107007     
           8  -2.3836504166860509E-003
           9 -0.26815547582207522     
          10  0.26815544249177758     
Sym=     4a
Ene=  -0.53985095749985035     
Spin= Alpha
Occup=     2.00000000
           1  0.27251986393955896     
           2  0.37508512121291404     
           3  -3.6135020088041196E-002
           4 -0.55274701120973169     
           5  -3.3512672233286436E-004
           6 -0.34908408694970328     
           7   3.7453578347401692E-002
           8 -0.26254994205279997     
           9  0.21553512016303006     
          10  0.21553514738614873     
Sym=     5a
Ene=  -0.51190750239744842     
Spin= Alpha
Occup=     2.00000000
           1 -0.17279016305545020     
           2 -0.49154960975387196     
           3   5.3694999973047199E-002
           4 -0.56400389564911380     
           5 -0.17156768015185642     
           6  0.24419675108236222     
           7  -2.3488304767846833E-002
           8 -0.36741564105620678     
           9 -0.16547395014487065     
          10 -0.16547396345936069     
Sym=     6a
Ene=  -0.41796319320750452     
Spin= Alpha
Occup=     1.00000000
           1  -2.7754848067905702E-008
           2   8.2818634370843330E-002
           3  0.79948534179067021     
           4   3.9342022829252643E-003
           5  -1.0211141667249926E-008
           6  -2.9725017370802471E-002
           7 -0.28694891489430552     
           8  -1.4120531403109123E-003
           9 -0.38880599516672043     
          10  0.38880598473730427     
Sym=     7a
Ene=  -0.30308540216967206     
Spin= Alpha
Occup=     1.00000000
           1   2.1121735701652867E-002
           2  -5.9338005133274252E-002
           3   9.1725649005810345E-003
           4 -0.61487357425784017     
           5  0.31546114008441201     
           6  -3.8963707914166472E-002
           7  -5.3697707988890276E-005
           8  0.83113435090199095     
           9 -0.13234485516062452     
          10 -0.13234485735073542     
Sym=     8a
Ene=   0.13683798902904401     
Spin= Alpha
Occup=     0.00000000
           1  -3.1722080402730585E-002
           2  0.19543613802393286     
           3  -2.0683821161411816E-002
           4   8.9134650269131283E-002
           5   1.0034897845537185     
           6 -0.48938404848141231     
           7   5.2762135860194008E-002
           8 -0.42003584793181986     
           9 -0.74997706923927110     
          10 -0.74997721020626662     
Sym=     9a
Ene=   0.18523170931451305     
Spin= Alpha
Occup=     0.00000000
           1  -2.7886778739271084E-009
           2  -2.6598026225271871E-002
           3 -0.25676278025854998     
           4  -1.2635016592747802E-003
           5   9.6406099119498268E-008
           6  0.11167631516996639     
           7   1.0780615747523752     
           8   5.3050138429393094E-003
           9 -0.80832878655994356     
          10  0.80832864892160083     
Sym=    10a
Ene=   0.35488099921250527     
Spin= Alpha
Occup=     0.00000000
           1  0.69097997671396494     
           2 -0.83285816054479123     
           3   8.5291825518698780E-002
           4  0.19994596391678107     
           5 -0.53615379936512242     
           6  -1.0428918982177204     
           7  0.10730265305597542     
           8  0.14844439548224153     
           9 -0.13820392287567845     
          10 -0.13820391637112517     
