4
 energy: -7.029957451607 gnorm: 0.130645008882 xtb: 6.2.2 (9d81278992624c895f80dd42a50cac0aa55982e2)
O         1.24854400000000   -0.12893400000000   -0.08041900000000
C        -0.08657000000000    0.00751000000000    0.29595300000000
H        -0.48765900000000    0.96169500000000   -0.10333200000000
H        -0.67431500000000   -0.84027100000000   -0.11220300000000
4
 energy: -7.041157419732 gnorm: 0.053142843197 xtb: 6.2.2 (9d81278992624c895f80dd42a50cac0aa55982e2)
O         1.21015842547611   -0.12505250412954   -0.06119628933698
C        -0.06079071598263    0.00509685801842    0.24374866087832
H        -0.48060356295615    0.96822309603000   -0.08680540442827
H        -0.66876414653733   -0.84826744991888   -0.09574796711307
4
 energy: -7.042730900088 gnorm: 0.024650363410 xtb: 6.2.2 (9d81278992624c895f80dd42a50cac0aa55982e2)
O         1.19625178940439   -0.12367235841157   -0.04894130038359
C        -0.02753074609101    0.00174509822342    0.22479000762427
H        -0.49233789343077    0.94934427964534   -0.08355134156710
H        -0.67638314988261   -0.82741701945718   -0.09229836567358
4
 energy: -7.043076168402 gnorm: 0.002274888019 xtb: 6.2.2 (9d81278992624c895f80dd42a50cac0aa55982e2)
O         1.21394861298184   -0.12551232951559   -0.04755696916314
C        -0.02690876951919    0.00169858293007    0.22115422818047
H        -0.50153035804009    0.94996864081854   -0.08242718590289
H        -0.68550948542256   -0.82615489423302   -0.09117107311444
4
 energy: -7.043089141819 gnorm: 0.000800336100 xtb: 6.2.2 (9d81278992624c895f80dd42a50cac0aa55982e2)
O         1.21507702186075   -0.12563001024130   -0.04739503915618
C        -0.02422756090961    0.00141271994463    0.22280680679176
H        -0.50387922386835    0.94588346983439   -0.08335554313143
H        -0.68697023708279   -0.82166617953773   -0.09205722450414
4
 energy: -7.043090122703 gnorm: 0.000322476498 xtb: 6.2.2 (9d81278992624c895f80dd42a50cac0aa55982e2)
O         1.21559738733737   -0.12568400431362   -0.04737578071165
C        -0.02283613938237    0.00126320682899    0.22390050424404
H        -0.50498666286538    0.94452218010978   -0.08391922301658
H        -0.68777458508962   -0.82010138262515   -0.09260650051581
