$hessian                                                                        
        0.5953787508  -0.0585145302  -0.1210396633  -0.5045934555   0.0495126276
        0.1503229620  -0.0418584076   0.0195269684  -0.0148611901  -0.0489268877
       -0.0105250657  -0.0144221086
       -0.0585145302   0.0304936097   0.0124763001   0.0496429535  -0.0243671154
       -0.0153872131   0.0229495988  -0.0065578815  -0.0013687788  -0.0140780221
        0.0004313872   0.0042796917
       -0.1210396633   0.0124763001   0.0354061912   0.1249354635  -0.0127723937
       -0.0524811229  -0.0019902740  -0.0010935312   0.0085184627  -0.0019055262
        0.0013896248   0.0085564690
       -0.5045934555   0.0496429535   0.1249354635   0.6220368071  -0.0297454790
       -0.0938747974  -0.0418914488   0.0650501774  -0.0092119637  -0.0755519029
       -0.0849476519  -0.0218487024
        0.0495126276  -0.0243671154  -0.0127723937  -0.0297454790   0.3333443888
        0.0107180351   0.0758879436  -0.1718396159   0.0583559985  -0.0956550922
       -0.1371376575  -0.0563016399
        0.1503229620  -0.0153872131  -0.0524811229  -0.0938747974   0.0107180351
        0.1253405964  -0.0229825800   0.0486080104  -0.0359216441  -0.0334655846
       -0.0439388325  -0.0369378294
       -0.0418584076   0.0229495988  -0.0019902740  -0.0418914488   0.0758879436
       -0.0229825800   0.0801747874  -0.0882918921   0.0252456305   0.0035750689
       -0.0105456504  -0.0002727765
        0.0195269684  -0.0065578815  -0.0010935312   0.0650501774  -0.1718396159
        0.0486080104  -0.0882918921   0.2075159533  -0.0521628731   0.0037147463
       -0.0291184559   0.0046483939
       -0.0148611901  -0.0013687788   0.0085184627  -0.0092119637   0.0583559985
       -0.0359216441   0.0252456305  -0.0521628731   0.0235429265  -0.0011724768
       -0.0048243466   0.0038602550
       -0.0489268877  -0.0140780221  -0.0019055262  -0.0755519029  -0.0956550922
       -0.0334655846   0.0035750689   0.0037147463  -0.0011724768   0.1209037217
        0.1060183680   0.0365435875
       -0.0105250657   0.0004313872   0.0013896248  -0.0849476519  -0.1371376575
       -0.0439388325  -0.0105456504  -0.0291184559  -0.0048243466   0.1060183680
        0.1658247261   0.0473735542
       -0.0144221086   0.0042796917   0.0085564690  -0.0218487024  -0.0563016399
       -0.0369378294  -0.0002727765   0.0046483939   0.0038602550   0.0365435875
        0.0473735542   0.0245211055
