[Molden Format]
[Title]
[Atoms] AU
N      1     7 -0.13788670326829E+01 -0.18153428195185E+00  0.83655709787747E+00
C      2     6  0.10948689410749E+01  0.85097633726832E-01  0.30223499809033E-01
N      3     7  0.11172292380733E-02  0.21178885087360E+01 -0.36968716352063E+00
H      4     1 -0.25293010998044E+01 -0.10592392361533E+01 -0.44840030536708E+00
H      5     1  0.28121819621809E+01 -0.96221262435439E+00 -0.48691239072846E-01
[GTO]
           1 0
 s           4   1.0000000000000000     
   63.594024466941008      -0.19234388414721629     
   10.951417231523665      -0.23478107924953728     
  0.87999310257376984       0.37593753901700888     
  0.33538715296521110       0.14982889271862770     
 p           4   1.0000000000000000     
   7.2965040481495080       0.97658666315667420     
   1.8918745450712575       0.90372226730345739     
  0.66694432110824120       0.47404958461536373     
  0.26552202674130870        7.1516067715011844E-002

           2 0
 s           4   1.0000000000000000     
   51.049363095579913      -0.16312063210127389     
   8.7911227406887544      -0.19911024581000730     
  0.70640422258929825       0.31882047753655751     
  0.26922813413411617       0.12706504184240380     
 p           4   1.0000000000000000     
   5.8263656140800002       0.73716451545209605     
   1.5106896018720002       0.68216371614850257     
  0.53256483288000001       0.35783053929253711     
  0.21202323690600003        5.3983030275847881E-002

           3 0
 s           4   1.0000000000000000     
   63.594024466941008      -0.19234388414721629     
   10.951417231523665      -0.23478107924953728     
  0.87999310257376984       0.37593753901700888     
  0.33538715296521110       0.14982889271862770     
 p           4   1.0000000000000000     
   7.2965040481495080       0.97658666315667420     
   1.8918745450712575       0.90372226730345739     
  0.66694432110824120       0.47404958461536373     
  0.26552202674130870        7.1516067715011844E-002

           4 0
 s           3   1.0000000000000000     
   3.3702276975336001       0.27359110588908298     
  0.61389118221497996       0.26460540653860526     
  0.16614291148415999        8.2465947534082318E-002

           5 0
 s           3   1.0000000000000000     
   3.3702276975336001       0.27359110588908298     
  0.61389118221497996       0.26460540653860526     
  0.16614291148415999        8.2465947534082318E-002

[MO]
Sym=     1a
Ene=  -0.72792454856614408     
Spin= Alpha
Occup=     2.00000000
           1  0.29591287411457562     
           2  0.18910601006901512     
           3  0.11092647467670275     
           4 -0.11546187876437618     
           5  0.38198495579152658     
           6 -0.18424827119013501     
           7   9.7872935850694009E-002
           8   3.6539713559572222E-003
           9  0.33898086663630267     
          10  -4.7784700498562302E-003
          11 -0.22565328031353379     
          12   6.4034766269041990E-002
          13   3.4332247094703908E-002
          14   3.8574718440948903E-002
Sym=     2a
Ene=  -0.61847094456352913     
Spin= Alpha
Occup=     2.00000000
           1  0.47968703127097301     
           2  -7.1848411370630805E-002
           3 -0.10349440338339931     
           4 -0.10915766992485407     
           5 -0.22182393718286542     
           6 -0.24603064094677352     
           7 -0.23630386321635091     
           8   7.0950589355029722E-002
           9 -0.26891893839434350     
          10 -0.26896600644742474     
          11  -2.0446408021356523E-002
          12   1.3044694390733127E-002
          13  0.24074119245354636     
          14 -0.14252632955433198     
Sym=     3a
Ene=  -0.60605205495860848     
Spin= Alpha
Occup=     2.00000000
           1  -7.1409476599008620E-002
           2 -0.12154321256381397     
           3  0.24987050860087409     
           4  -1.9062845956851496E-002
           5 -0.39259114193460121     
           6 -0.17925541999455022     
           7  0.32236715446712533     
           8  -4.1291636294084076E-002
           9  0.36292428335021654     
          10 -0.10091080324113040     
          11   2.0028154270102932E-002
          12   2.9108242317227067E-002
          13  -5.1229350197424917E-002
          14 -0.36860688374297190     
Sym=     4a
Ene=  -0.56920809505603176     
Spin= Alpha
Occup=     2.00000000
           1  -7.1446621182174735E-002
           2 -0.30884970987186106     
           3 -0.15025373384764787     
           4 -0.30637346351724148     
           5   2.2777652665428857E-002
           6   8.1461165219895326E-002
           7   3.9264675758160450E-002
           8 -0.45058334607009176     
           9  0.18315080479794540     
          10   5.7233346852700644E-002
          11  -4.8238404716544649E-002
          12 -0.39086333576246596     
          13  0.26991202630236638     
          14   6.3858943913746358E-002
Sym=     5a
Ene=  -0.51528553941367983     
Spin= Alpha
Occup=     2.00000000
           1  0.34540101711895249     
           2 -0.39285639287953167     
           3  -4.2408202058580646E-002
           4  0.20605117335442952     
           5  -1.2935140786282662E-002
           6  0.29733272518017767     
           7  0.23513336791560843     
           8  0.23313942878009380     
           9  0.20102331136914262     
          10  0.19247289413124274     
          11  0.24956449796922697     
          12  0.27979385486656472     
          13  0.26656223526724027     
          14  0.12371354442827555     
Sym=     6a
Ene=  -0.49228210960211100     
Spin= Alpha
Occup=     2.00000000
           1   4.1533042135993688E-002
           2  0.17765643910253201     
           3 -0.51298160510800550     
           4  0.11541824001877753     
           5   2.8947561601128550E-002
           6 -0.20593737128574760     
           7  0.19720453743138014     
           8   3.2833777643316429E-002
           9 -0.14944349382617111     
          10  0.57216902968308037     
          11  -4.7667012138302656E-002
          12  -8.0207738344182392E-002
          13   5.3417377738197463E-002
          14 -0.33578787048527453     
Sym=     7a
Ene=  -0.44985337008491527     
Spin= Alpha
Occup=     2.00000000
           1  -1.1244404793915490E-002
           2 -0.24593455237760756     
           3  0.30307520824546164     
           4  -8.5843316388246674E-002
           5   3.9531794024410448E-002
           6  0.11610154728047080     
           7  0.26699011761288299     
           8  -9.4204229400008027E-002
           9 -0.59646623211751504     
          10  0.13000133130155067     
          11 -0.57552636138441138     
          12  0.22659766294597639     
          13   4.5055131782773657E-002
          14  -4.3030263977104709E-002
Sym=     8a
Ene=  -0.40022440844001178     
Spin= Alpha
Occup=     2.00000000
           1 -0.45574607904044295     
           2  0.10843399551499906     
           3 -0.12394013419729104     
           4 -0.68331463583668040     
           5   1.2433422869330678E-002
           6  -7.2557351057484449E-003
           7   2.2485261920749608E-003
           8  0.22806825119385057     
           9   1.5270604090867482E-002
          10   4.1725759343923280E-002
          11  0.16279195291834542     
          12  0.48275329688328072     
          13  0.24848736610162089     
          14  -3.2573612662262913E-002
Sym=     9a
Ene=  -0.27924694995834598     
Spin= Alpha
Occup=     0.00000000
           1 -0.12944506073554385     
           2   2.1828646091728972E-002
           3  -5.0060747670469086E-002
           4 -0.13640020710153822     
           5  -5.0548753907987479E-003
           6  0.21076353872859985     
           7  0.27673686636015676     
           8  0.78190090731034623     
           9  -3.4646156563317336E-003
          10 -0.21057313589633550     
          11 -0.25403130448438227     
          12 -0.63855868234198165     
          13  0.12724005818486953     
          14  -1.3935480858302192E-004
Sym=    10a
Ene=  -0.17809562657622688     
Spin= Alpha
Occup=     0.00000000
           1  0.27698057806868348     
           2  -9.7246871773212801E-003
           3  0.68724239532238895     
           4 -0.33748784683952826     
           5   1.4163342162773084E-002
           6 -0.12182324438517490     
           7 -0.23694344019171290     
           8  0.16685352320415947     
           9 -0.19648372185024290     
          10  0.64033788347987153     
          11  0.40831672855724721     
          12 -0.34478990302435070     
          13  -7.3132961717524522E-002
          14  -3.8247863432625588E-002
Sym=    11a
Ene=    2.1525821765362652E-002
Spin= Alpha
Occup=     0.00000000
           1  0.71079955966757180     
           2  0.42553460067842197     
           3 -0.20866722874525534     
           4 -0.46324652215195816     
           5 -0.63057315987689444     
           6  0.27890962288314425     
           7  0.52290967766778784     
           8 -0.20141452690697043     
           9 -0.15037208791262521     
          10  -4.1748978019829686E-002
          11   9.7971958201459819E-002
          12  -5.4241837076255892E-003
          13 -0.48933129175278278     
          14  0.46840933230374099     
Sym=    12a
Ene=   0.12363551682766044     
Spin= Alpha
Occup=     0.00000000
           1 -0.37414032765219890     
           2  0.16507210795203617     
           3  0.13593857441993776     
           4  0.27772621974000944     
           5 -0.86801680558091532     
           6 -0.52196419049517129     
           7  -7.6630963963226967E-002
           8  0.10165258165363528     
           9  0.22134045874777372     
          10  0.32449423491711282     
          11 -0.32648547431867114     
          12   1.7714942638109715E-002
          13  0.48139032044385888     
          14  0.87977030450378468     
Sym=    13a
Ene=   0.14402517336985765     
Spin= Alpha
Occup=     0.00000000
           1 -0.15525064804788330     
           2  0.80611613394514803     
           3  0.37375902259072785     
           4  0.30697048348319800     
           5   8.4605651778697277E-002
           6  0.37420080027684977     
           7  0.32858877144094067     
           8 -0.31609891296658416     
           9 -0.32472149383118315     
          10 -0.16816854640447315     
          11  0.32030227478576728     
          12  -8.7001118436380767E-002
          13  0.88924643239828027     
          14 -0.21235523071693260     
Sym=    14a
Ene=   0.72571355813537020     
Spin= Alpha
Occup=     0.00000000
           1 -0.25407130832457825     
           2 -0.35912175352260400     
           3  -4.8359264972250328E-002
           4   7.3371412515699674E-002
           5  0.51123699526718325     
           6 -0.98681075365211635     
           7  0.84785294592511218     
           8  -2.0072658278390425E-002
           9 -0.71388377865922314     
          10 -0.35452106393528560     
          11  0.68018295240584148     
          12 -0.13497564443054580     
          13  -8.2713405958006928E-002
          14  0.63381628241524512     
