$hessian                                                                        
        0.5170494933   0.1937226410   0.0019237129  -0.3100671914   0.0057441030
        0.1017479187  -0.0586601149  -0.1205143144   0.0381846366  -0.1340505827
       -0.0738057460  -0.1489837374  -0.0142716042  -0.0051466836   0.0071274691
        0.1937226410   0.2133328319   0.0208507733  -0.0801225309  -0.0239588479
       -0.0032173943  -0.0518214376  -0.1038262428   0.0759053304  -0.0742536634
       -0.0891124148  -0.0948650891   0.0124749908   0.0035646736   0.0013263797
        0.0019237129   0.0208507733   0.3019821155   0.0829040799  -0.0138091459
       -0.0535735170   0.0300285102   0.0826570245  -0.0557036789  -0.1149848913
       -0.0913607259  -0.1987462050   0.0001285883   0.0016620740   0.0060412854
       -0.3100671914  -0.0801225309   0.0829040799   0.7568169419  -0.4151513765
       -0.0239883266  -0.1700900903   0.3649071883  -0.0839300560  -0.0279633777
       -0.0012006644   0.0147262918  -0.2486962826   0.1315673835   0.0102880109
        0.0057441030  -0.0239588479  -0.0138091459  -0.4151513765   0.7102374859
       -0.0935788437   0.3005915731  -0.5720088049   0.1066626887  -0.0230034012
       -0.0017055165   0.0063117036   0.1318191017  -0.1125643167  -0.0055864027
        0.1017479187  -0.0032173943  -0.0535735170  -0.0239883266  -0.0935788437
        0.1337112212  -0.0678387110   0.0878649924  -0.0462653476  -0.0179711414
        0.0149942399   0.0014643460   0.0080502602  -0.0060629942  -0.0353367026
       -0.0586601149  -0.0518214376   0.0300285102  -0.1700900903   0.3005915731
       -0.0678387110   0.2419592492  -0.2473792543   0.0372506585  -0.0066051489
       -0.0235126827   0.0049264429  -0.0066038951   0.0221218015  -0.0043669006
       -0.1205143144  -0.1038262428   0.0826570245   0.3649071883  -0.5720088049
        0.0878649924  -0.2473792543   0.6983316648  -0.1665379045   0.0007593736
       -0.0134153380  -0.0056872160   0.0022270067  -0.0090812791   0.0017031036
        0.0381846366   0.0759053304  -0.0557036789  -0.0839300560   0.1066626887
       -0.0462653476   0.0372506585  -0.1665379045   0.0744572442   0.0046749781
       -0.0167254412   0.0168962759   0.0038197827   0.0006953266   0.0106155065
       -0.1340505827  -0.0742536634  -0.1149848913  -0.0279633777  -0.0230034012
       -0.0179711414  -0.0066051489   0.0007593736   0.0046749781   0.1693726819
        0.0972173890   0.1284441161  -0.0007535726  -0.0007196980  -0.0001630616
       -0.0738057460  -0.0891124148  -0.0913607259  -0.0012006644  -0.0017055165
        0.0149942399  -0.0235126827  -0.0134153380  -0.0167254412   0.0972173890
        0.1038746936   0.0937766025   0.0013017042   0.0003585758  -0.0006846752
       -0.1489837374  -0.0948650891  -0.1987462050   0.0147262918   0.0063117036
        0.0014643460   0.0049264429  -0.0056872160   0.0168962759   0.1284441161
        0.0937766025   0.1809592834   0.0008868866   0.0004639990  -0.0005737003
       -0.0142716042   0.0124749908   0.0001285883  -0.2486962826   0.1318191017
        0.0080502602  -0.0066038951   0.0022270067   0.0038197827  -0.0007535726
        0.0013017042   0.0008868866   0.2703253544  -0.1478228034  -0.0128855179
       -0.0051466836   0.0035646736   0.0016620740   0.1315673835  -0.1125643167
       -0.0060629942   0.0221218015  -0.0090812791   0.0006953266  -0.0007196980
        0.0003585758   0.0004639990  -0.1478228034   0.1177223463   0.0032415946
        0.0071274691   0.0013263797   0.0060412854   0.0102880109  -0.0055864027
       -0.0353367026  -0.0043669006   0.0017031036   0.0106155065  -0.0001630616
       -0.0006846752  -0.0005737003  -0.0128855179   0.0032415946   0.0192536109
