5
 energy: -8.799281054857 gnorm: 0.180931847595 xtb: 6.2.2 (9d81278992624c895f80dd42a50cac0aa55982e2)
N        -0.73507800000000    0.03890400000000    0.42566400000000
C         0.68971800000000    0.12216200000000    0.43347400000000
N        -0.06167800000000    1.09724600000000   -0.27921100000000
H        -1.03188000000000   -0.65823700000000   -0.29570200000000
H         1.13891800000000   -0.60007500000000   -0.28422400000000
5
 energy: -8.831926016003 gnorm: 0.110501493379 xtb: 6.2.2 (9d81278992624c895f80dd42a50cac0aa55982e2)
N        -0.77512910201436    0.03518558499709    0.42434136567505
C         0.66700762561235    0.11326472728954    0.36503937403189
N        -0.02524013530580    1.05486730135976   -0.25440881586165
H        -1.13363807868540   -0.64161936663037   -0.27413279499212
H         1.26699969039321   -0.56169824701603   -0.26083812885318
5
 energy: -8.849358669415 gnorm: 0.155078006764 xtb: 6.2.2 (9d81278992624c895f80dd42a50cac0aa55982e2)
N        -0.79647956856917    0.00604337965378    0.43757407226209
C         0.63895627660352    0.13502144253701    0.21381190218858
N        -0.00827764647378    1.04688076580283   -0.19806976677332
H        -1.21174049155930   -0.61628458040094   -0.26961821151148
H         1.37754142999872   -0.57166100759268   -0.18369699616586
5
 energy: -8.860074472073 gnorm: 0.056976752118 xtb: 6.2.2 (9d81278992624c895f80dd42a50cac0aa55982e2)
N        -0.79441754767832   -0.00470684965525    0.43687414118652
C         0.63472992516308    0.10716430220318    0.14261640576196
N        -0.03734060456697    1.10063089017733   -0.18341298859113
H        -1.25354849675077   -0.60856414714419   -0.26181874044712
H         1.45057672383299   -0.59452419558106   -0.13425781791023
5
 energy: -8.865890582936 gnorm: 0.046879419677 xtb: 6.2.2 (9d81278992624c895f80dd42a50cac0aa55982e2)
N        -0.77677088617376   -0.02994839863823    0.44065157149856
C         0.62009399400734    0.08261939439590    0.08875775188426
N        -0.02469975396216    1.12071354029328   -0.18260923432423
H        -1.28092081091456   -0.60374373539740   -0.25548516581724
H         1.46229745704314   -0.56964080065355   -0.09131392324136
5
 energy: -8.870071192933 gnorm: 0.026256475964 xtb: 6.2.2 (9d81278992624c895f80dd42a50cac0aa55982e2)
N        -0.74495948119829   -0.07114023628775    0.45142718178703
C         0.59002673833847    0.05151256510203    0.03659407704855
N        -0.00461052097636    1.12318537258408   -0.19475246309584
H        -1.32475954074785   -0.57935634683656   -0.24801769515153
H         1.48430280458404   -0.52420135456180   -0.04525010058821
5
 energy: -8.870589642821 gnorm: 0.010002645588 xtb: 6.2.2 (9d81278992624c895f80dd42a50cac0aa55982e2)
N        -0.73580251243295   -0.08374680568980    0.44893336165514
C         0.57470072718321    0.04136262531954    0.02375291722886
N         0.00470776475209    1.12297577916781   -0.19767951174127
H        -1.32234462676258   -0.57107465210909   -0.23952501551668
H         1.47873864726023   -0.50951694668846   -0.03548075162604
5
 energy: -8.870630528040 gnorm: 0.011512526528 xtb: 6.2.2 (9d81278992624c895f80dd42a50cac0aa55982e2)
N        -0.73086848737576   -0.09430867188950    0.45017408368139
C         0.57370216627587    0.04278960864439    0.01226971490816
N         0.00117781370159    1.12063917063714   -0.19716935856808
H        -1.33697346575367   -0.55971187505321   -0.23985461581759
H         1.49296197315197   -0.50940823233881   -0.02541882420388
5
 energy: -8.870704967759 gnorm: 0.004695671890 xtb: 6.2.2 (9d81278992624c895f80dd42a50cac0aa55982e2)
N        -0.73026059145509   -0.09387486792179    0.44748144104101
C         0.57808610026005    0.04602464366285    0.01822218945453
N         0.00053813409520    1.11976270651162   -0.19714967941257
H        -1.33278631920848   -0.56129619700173   -0.24039731423270
H         1.48442267630832   -0.51061628525095   -0.02815563685028
5
 energy: -8.870719987037 gnorm: 0.001344102644 xtb: 6.2.2 (9d81278992624c895f80dd42a50cac0aa55982e2)
N        -0.73124315532224   -0.09343322307160    0.44436114021831
C         0.57816531226820    0.04536922431473    0.01735221458485
N         0.00093384255412    1.12181528537858   -0.19560229399293
H        -1.33302201426978   -0.56272989522149   -0.23808645424895
H         1.48516601476970   -0.51102139140021   -0.02802360656128
5
 energy: -8.870726850993 gnorm: 0.000564001213 xtb: 6.2.2 (9d81278992624c895f80dd42a50cac0aa55982e2)
N        -0.72935438826059   -0.09623720880708    0.44245833123963
C         0.57959083299030    0.04535716255617    0.01653400860171
N         0.00068195063504    1.12097619632501   -0.19570525785756
H        -1.33876281805684   -0.56082981899527   -0.23733628039966
H         1.48784442269208   -0.50926633107882   -0.02594980158413
5
 energy: -8.870727379784 gnorm: 0.000382670375 xtb: 6.2.2 (9d81278992624c895f80dd42a50cac0aa55982e2)
N        -0.72966612052516   -0.09606840706541    0.44268427820547
C         0.57937945467189    0.04503473835501    0.01599568983294
N         0.00058602701191    1.12073878255573   -0.19562808214671
H        -1.33844486250452   -0.56053191061862   -0.23728889534580
H         1.48814550134588   -0.50917320322671   -0.02576199054591
