$hessian                                                                        
        1.1376644713   0.2560662465  -0.0963442458  -0.3989599055  -0.0938929639
        0.0276639584  -0.1663628219  -0.0319215590   0.0148351870  -0.6420010754
       -0.1433225154   0.0597136824   0.0696593314   0.0130707919  -0.0058685820
        0.2560662465   0.0934260398  -0.0223840406  -0.0949832497  -0.0289267686
        0.0051892157  -0.0333785442  -0.0260379561   0.0038589618  -0.1421553947
       -0.0505693817   0.0143370516   0.0144509421   0.0121080666  -0.0010011885
       -0.0963442458  -0.0223840406   0.0433750744   0.0252262284   0.0065164513
       -0.0102943700   0.0137609708   0.0027693557  -0.0186410104   0.0620590615
        0.0141521520  -0.0236683186  -0.0047020150  -0.0010539184   0.0092286246
       -0.3989599055  -0.0949832497   0.0252262284   1.0902358300   0.2405673644
       -0.1042085512  -0.3365665227  -0.0667869942   0.0451585205  -0.1795383296
       -0.0417154868   0.0171958549  -0.1751710722  -0.0370816337   0.0166279473
       -0.0938929639  -0.0289267686   0.0065164513   0.2405673644   0.0557293505
       -0.0217166289  -0.0678962761  -0.0087349654   0.0082218138  -0.0422459864
       -0.0072109367   0.0033899040  -0.0365321381  -0.0108566797   0.0035884598
        0.0276639584   0.0051892157  -0.0102943700  -0.1042085512  -0.0217166289
        0.0146399431   0.0434761560   0.0061269747  -0.0037730297   0.0153395888
        0.0048265796   0.0025008432   0.0177288480   0.0055738588  -0.0030733866
       -0.1663628219  -0.0333785442   0.0137609708  -0.3365665227  -0.0678962761
        0.0434761560   1.0685779731   0.2223037614  -0.1059049359   0.0696546883
        0.0146840591  -0.0061397736  -0.6353033169  -0.1357130003   0.0548075827
       -0.0319215590  -0.0260379561   0.0027693557  -0.0667869942  -0.0087349654
        0.0061269747   0.2223037614   0.0708637636  -0.0214956989   0.0132777205
        0.0091859120  -0.0001045800  -0.1368729286  -0.0452767539   0.0127039485
        0.0148351870   0.0038589618  -0.0186410104   0.0451585205   0.0082218138
       -0.0037730297  -0.1059049359  -0.0214956989   0.0369580780  -0.0068319880
       -0.0017640695   0.0063262258   0.0527432165   0.0111789928  -0.0208702637
       -0.6420010754  -0.1421553947   0.0620590615  -0.1795383296  -0.0422459864
        0.0153395888   0.0696546883   0.0132777205  -0.0068319880   0.7910378625
        0.1791488001  -0.0742457019  -0.0391531458  -0.0080251395   0.0036790397
       -0.1433225154  -0.0505693817   0.0141521520  -0.0417154868  -0.0072109367
        0.0048265796   0.0146840591   0.0091859120  -0.0017640695   0.1791488001
        0.0519535985  -0.0175931232  -0.0087948570  -0.0033591921   0.0003784610
        0.0597136824   0.0143370516  -0.0236683186   0.0171958549   0.0033899040
        0.0025008432  -0.0061397736  -0.0001045800   0.0063262258  -0.0742457019
       -0.0175931232   0.0171011641   0.0034759382  -0.0000292524  -0.0022599145
        0.0696593314   0.0144509421  -0.0047020150  -0.1751710722  -0.0365321381
        0.0177288480  -0.6353033169  -0.1368729286   0.0527432165  -0.0391531458
       -0.0087948570   0.0034759382   0.7799682035   0.1677489817  -0.0692459877
        0.0130707919   0.0121080666  -0.0010539184  -0.0370816337  -0.0108566797
        0.0055738588  -0.1357130003  -0.0452767539   0.0111789928  -0.0080251395
       -0.0033591921  -0.0000292524   0.1677489817   0.0473845592  -0.0156696807
       -0.0058685820  -0.0010011885   0.0092286246   0.0166279473   0.0035884598
       -0.0030733866   0.0548075827   0.0127039485  -0.0208702637   0.0036790397
        0.0003784610  -0.0022599145  -0.0692459877  -0.0156696807   0.0169749402
