 Entering Gaussian System, Link 0=g16
 Initial command:
 /applis/site/cecic/gaussian16/B.01/nehalem/g16/l1.exe "/bettik/tinaccil/g16/12210712_C4H3_s1_2X/Gau-292455.inp" -scrdir="/bettik/tinaccil/g16/12210712_C4H3_s1_2X/"
 Entering Link 1 = /applis/site/cecic/gaussian16/B.01/nehalem/g16/l1.exe PID=    292634.
  
 Copyright (c) 1988-2017, Gaussian, Inc.  All Rights Reserved.
  
 This is part of the Gaussian(R) 16 program.  It is based on
 the Gaussian(R) 09 system (copyright 2009, Gaussian, Inc.),
 the Gaussian(R) 03 system (copyright 2003, Gaussian, Inc.),
 the Gaussian(R) 98 system (copyright 1998, Gaussian, Inc.),
 the Gaussian(R) 94 system (copyright 1995, Gaussian, Inc.),
 the Gaussian 92(TM) system (copyright 1992, Gaussian, Inc.),
 the Gaussian 90(TM) system (copyright 1990, Gaussian, Inc.),
 the Gaussian 88(TM) system (copyright 1988, Gaussian, Inc.),
 the Gaussian 86(TM) system (copyright 1986, Carnegie Mellon
 University), and the Gaussian 82(TM) system (copyright 1983,
 Carnegie Mellon University). Gaussian is a federally registered
 trademark of Gaussian, Inc.
  
 This software contains proprietary and confidential information,
 including trade secrets, belonging to Gaussian, Inc.
  
 This software is provided under written license and may be
 used, copied, transmitted, or stored only in accord with that
 written license.
  
 The following legend is applicable only to US Government
 contracts under FAR:
  
                    RESTRICTED RIGHTS LEGEND
  
 Use, reproduction and disclosure by the US Government is
 subject to restrictions as set forth in subparagraphs (a)
 and (c) of the Commercial Computer Software - Restricted
 Rights clause in FAR 52.227-19.
  
 Gaussian, Inc.
 340 Quinnipiac St., Bldg. 40, Wallingford CT 06492
  
  
 ---------------------------------------------------------------
 Warning -- This program may not be used in any manner that
 competes with the business of Gaussian, Inc. or will provide
 assistance to any competitor of Gaussian, Inc.  The licensee
 of this program is prohibited from giving any competitor of
 Gaussian, Inc. access to this program.  By using this program,
 the user acknowledges that Gaussian, Inc. is engaged in the
 business of creating and licensing software in the field of
 computational chemistry and represents and warrants to the
 licensee that it is not a competitor of Gaussian, Inc. and that
 it will not use this program in any manner prohibited above.
 ---------------------------------------------------------------
  

 Cite this work as:
 Gaussian 16, Revision B.01,
 M. J. Frisch, G. W. Trucks, H. B. Schlegel, G. E. Scuseria, 
 M. A. Robb, J. R. Cheeseman, G. Scalmani, V. Barone, 
 G. A. Petersson, H. Nakatsuji, X. Li, M. Caricato, A. V. Marenich, 
 J. Bloino, B. G. Janesko, R. Gomperts, B. Mennucci, H. P. Hratchian, 
 J. V. Ortiz, A. F. Izmaylov, J. L. Sonnenberg, D. Williams-Young, 
 F. Ding, F. Lipparini, F. Egidi, J. Goings, B. Peng, A. Petrone, 
 T. Henderson, D. Ranasinghe, V. G. Zakrzewski, J. Gao, N. Rega, 
 G. Zheng, W. Liang, M. Hada, M. Ehara, K. Toyota, R. Fukuda, 
 J. Hasegawa, M. Ishida, T. Nakajima, Y. Honda, O. Kitao, H. Nakai, 
 T. Vreven, K. Throssell, J. A. Montgomery, Jr., J. E. Peralta, 
 F. Ogliaro, M. J. Bearpark, J. J. Heyd, E. N. Brothers, K. N. Kudin, 
 V. N. Staroverov, T. A. Keith, R. Kobayashi, J. Normand, 
 K. Raghavachari, A. P. Rendell, J. C. Burant, S. S. Iyengar, 
 J. Tomasi, M. Cossi, J. M. Millam, M. Klene, C. Adamo, R. Cammi, 
 J. W. Ochterski, R. L. Martin, K. Morokuma, O. Farkas, 
 J. B. Foresman, and D. J. Fox, Gaussian, Inc., Wallingford CT, 2016.
 
 ******************************************
 Gaussian 16:  ES64L-G16RevB.01 20-Dec-2017
                25-Sep-2020 
 ******************************************
 %nosave
 %nproc=8
 Will use up to    8 processors via shared memory.
 %mem=2gb
 %chk=input
 --------------------------------------------------------
 #P M062X/cc-pvtz nosymm opt(noeigentest) optcyc=120 freq
 --------------------------------------------------------
 1/6=120,11=1,18=20,19=15,26=3,38=1/1,3;
 2/9=110,12=2,15=1,17=6,18=5,40=1/2;
 3/5=16,6=1,11=2,25=1,30=1,71=1,74=-55/1,2,3;
 4//1;
 5/5=2,38=5/2;
 6/7=2,8=2,9=2,10=2,28=1/1;
 7/30=1/1,2,3,16;
 1/6=120,11=1,18=20,19=15,26=3/3(2);
 2/9=110,15=1/2;
 99//99;
 2/9=110,15=1/2;
 3/5=16,6=1,11=2,25=1,30=1,71=1,74=-55/1,2,3;
 4/5=5,16=3,69=1/1;
 5/5=2,38=5/2;
 7/30=1/1,2,3,16;
 1/6=120,11=1,18=20,19=15,26=3/3(-5);
 2/9=110,15=1/2;
 6/7=2,8=2,9=2,10=2,19=2,28=1/1;
 99/9=1/99;
 Leave Link    1 at Fri Sep 25 23:32:22 2020, MaxMem=   268435456 cpu:               1.6 elap:               0.3
 (Enter /applis/site/cecic/gaussian16/B.01/nehalem/g16/l101.exe)
 -----
 Title
 -----
 Symbolic Z-matrix:
 Charge =  0 Multiplicity = 2
 C
 C                    1    B1
 C                    2    B2       1    A2
 H                    1    B3       2    A3       3    D3       0
 H                    1    B4       2    A4       3    D4       0
 H                    2    B5       1    A5       3    D5       0
 C                    1    B6       2    A6       3    D6       0
       Variables:
  B1                    2.41585                  
  B2                    1.20558                  
  A2                  151.87972                  
  B3                    1.08644                  
  A3                   90.50801                  
  D3                    0.                       
  B4                    1.08435                  
  A4                  150.27912                  
  D4                  180.                       
  B5                    2.26389                  
  A5                  151.87752                  
  D5                    0.                       
  B6                    1.33238                  
  A6                   30.69985                  
  D6                  180.                       
 
 Add atom      1 valence  3 ND=      2 dihedral       4      1      5      7
 ITRead=  0  0  0  0  0  0  0
 MicOpt= -1 -1 -1 -1 -1 -1 -1
 NAtoms=      7 NQM=        7 NQMF=       0 NMMI=      0 NMMIF=      0
                NMic=       0 NMicF=      0.
                    Isotopes and Nuclear Properties:
 (Nuclear quadrupole moments (NQMom) in fm**2, nuclear magnetic moments (NMagM)
  in nuclear magnetons)

  Atom         1           2           3           4           5           6           7
 IAtWgt=          12          12          12           1           1           1          12
 AtmWgt=  12.0000000  12.0000000  12.0000000   1.0078250   1.0078250   1.0078250  12.0000000
 NucSpn=           0           0           0           1           1           1           0
 AtZEff=  -0.0000000  -0.0000000  -0.0000000  -0.0000000  -0.0000000  -0.0000000  -0.0000000
 NQMom=    0.0000000   0.0000000   0.0000000   0.0000000   0.0000000   0.0000000   0.0000000
 NMagM=    0.0000000   0.0000000   0.0000000   2.7928460   2.7928460   2.7928460   0.0000000
 AtZNuc=   6.0000000   6.0000000   6.0000000   1.0000000   1.0000000   1.0000000   6.0000000
 Leave Link  101 at Fri Sep 25 23:32:22 2020, MaxMem=   268435456 cpu:               2.4 elap:               0.4
 (Enter /applis/site/cecic/gaussian16/B.01/nehalem/g16/l103.exe)

 GradGradGradGradGradGradGradGradGradGradGradGradGradGradGradGradGradGrad
 Berny optimization.
 Initialization pass.
                           ----------------------------
                           !    Initial Parameters    !
                           ! (Angstroms and Degrees)  !
 --------------------------                            --------------------------
 ! Name  Definition              Value          Derivative Info.                !
 --------------------------------------------------------------------------------
 ! R1    R(1,4)                  1.0864         estimate D2E/DX2                !
 ! R2    R(1,5)                  1.0844         estimate D2E/DX2                !
 ! R3    R(1,7)                  1.3324         estimate D2E/DX2                !
 ! R4    R(2,3)                  1.2056         estimate D2E/DX2                !
 ! R5    R(2,7)                  1.4409         estimate D2E/DX2                !
 ! R6    R(3,6)                  1.0583         estimate D2E/DX2                !
 ! A1    A(4,1,5)              119.2129         estimate D2E/DX2                !
 ! A2    A(4,1,7)              121.2079         estimate D2E/DX2                !
 ! A3    A(5,1,7)              119.5793         estimate D2E/DX2                !
 ! A4    A(1,7,2)              121.1296         estimate D2E/DX2                !
 ! A5    L(3,2,7,4,-1)         180.0503         estimate D2E/DX2                !
 ! A6    L(2,3,6,4,-1)         179.9953         estimate D2E/DX2                !
 ! A7    L(3,2,7,4,-2)         180.0            estimate D2E/DX2                !
 ! A8    L(2,3,6,4,-2)         180.0            estimate D2E/DX2                !
 ! D1    D(4,1,5,7)            180.0            estimate D2E/DX2                !
 ! D2    D(4,1,7,2)              0.0            estimate D2E/DX2                !
 ! D3    D(5,1,7,2)            180.0            estimate D2E/DX2                !
 --------------------------------------------------------------------------------
 Trust Radius=3.00D-01 FncErr=1.00D-07 GrdErr=1.00D-06 EigMax=2.50D+02 EigMin=1.00D-04
 Number of steps in this run=    100 maximum allowed number of steps=    100.
 GradGradGradGradGradGradGradGradGradGradGradGradGradGradGradGradGradGrad

 Leave Link  103 at Fri Sep 25 23:32:23 2020, MaxMem=   268435456 cpu:               0.3 elap:               0.1
 (Enter /applis/site/cecic/gaussian16/B.01/nehalem/g16/l202.exe)
                          Input orientation:                          
 ---------------------------------------------------------------------
 Center     Atomic      Atomic             Coordinates (Angstroms)
 Number     Number       Type             X           Y           Z
 ---------------------------------------------------------------------
      1          6           0        0.000000    0.000000    0.000000
      2          6           0        0.000000    0.000000    2.415850
      3          6           0        0.568219    0.000000    3.479123
      4          1           0        1.086397    0.000000   -0.009633
      5          1           0       -0.537594    0.000000   -0.941705
      6          1           0        1.067103    0.000000    4.412470
      7          6           0       -0.680234    0.000000    1.145652
 ---------------------------------------------------------------------
                    Distance matrix (angstroms):
                    1          2          3          4          5
     1  C    0.000000
     2  C    2.415850   0.000000
     3  C    3.525220   1.205580   0.000000
     4  H    1.086440   2.657673   3.527028   0.000000
     5  H    1.084350   3.400321   4.557032   1.872460   0.000000
     6  H    4.539669   2.263890   1.058310   4.422144   5.589475
     7  C    1.332380   1.440875   2.646455   2.110846   2.092224
                    6          7
     6  H    0.000000
     7  C    3.704765   0.000000
 Symmetry turned off by external request.
 Stoichiometry    C4H3(2)
 Framework group  CS[SG(C4H3)]
 Deg. of freedom    11
 Full point group                 CS      NOp   2
 Rotational constants (GHZ):          62.6325205           4.8664663           4.5156093
 Leave Link  202 at Fri Sep 25 23:32:23 2020, MaxMem=   268435456 cpu:               0.6 elap:               0.2
 (Enter /applis/site/cecic/gaussian16/B.01/nehalem/g16/l301.exe)
 Standard basis: CC-pVTZ (5D, 7F)
 Ernie: Thresh=  0.10000D-02 Tol=  0.10000D-05 Strict=F.
 Ernie:  12 primitive shells out of 128 were deleted.
   162 basis functions,   259 primitive gaussians,   185 cartesian basis functions
    14 alpha electrons       13 beta electrons
       nuclear repulsion energy        82.8629062153 Hartrees.
 IExCor= 4336 DFT=T Ex+Corr=M062X ExCW=0 ScaHFX=  0.540000
 ScaDFX=  1.000000  1.000000  1.000000  1.000000 ScalE2=  1.000000  1.000000
 IRadAn=      5 IRanWt=     -1 IRanGd=            0 ICorTp=0 IEmpDi=  4
 NAtoms=    7 NActive=    7 NUniq=    7 SFac= 1.00D+00 NAtFMM=   60 NAOKFM=F Big=F
 Integral buffers will be    131072 words long.
 Raffenetti 2 integral format.
 Two-electron integral symmetry is turned off.
 Leave Link  301 at Fri Sep 25 23:32:23 2020, MaxMem=   268435456 cpu:               0.6 elap:               0.1
 (Enter /applis/site/cecic/gaussian16/B.01/nehalem/g16/l302.exe)
 NPDir=0 NMtPBC=     1 NCelOv=     1 NCel=       1 NClECP=     1 NCelD=      1
         NCelK=      1 NCelE2=     1 NClLst=     1 CellRange=     0.0.
 One-electron integrals computed using PRISM.
 NBasis=   162 RedAO= T EigKep=  5.40D-05  NBF=   162
 NBsUse=   162 1.00D-06 EigRej= -1.00D+00 NBFU=   162
 Precomputing XC quadrature grid using
 IXCGrd= 4 IRadAn=           5 IRanWt=          -1 IRanGd=           0 AccXCQ= 0.00D+00.
 Generated NRdTot=       0 NPtTot=           0 NUsed=           0 NTot=          32
 NSgBfM=   185   185   185   185   185 MxSgAt=     7 MxSgA2=     7.
 Leave Link  302 at Fri Sep 25 23:32:24 2020, MaxMem=   268435456 cpu:               2.4 elap:               0.4
 (Enter /applis/site/cecic/gaussian16/B.01/nehalem/g16/l303.exe)
 DipDrv:  MaxL=1.
 Leave Link  303 at Fri Sep 25 23:32:24 2020, MaxMem=   268435456 cpu:               0.7 elap:               0.2
 (Enter /applis/site/cecic/gaussian16/B.01/nehalem/g16/l401.exe)
 ExpMin= 1.03D-01 ExpMax= 8.24D+03 ExpMxC= 2.81D+02 IAcc=3 IRadAn=         5 AccDes= 0.00D+00
 Harris functional with IExCor= 1009 and IRadAn=       5 diagonalized for initial guess.
 HarFok:  IExCor= 1009 AccDes= 0.00D+00 IRadAn=         5 IDoV= 1 UseB2=F ITyADJ=14
 ICtDFT=  3500011 ScaDFX=  1.000000  1.000000  1.000000  1.000000
 FoFCou: FMM=F IPFlag=           0 FMFlag=      100000 FMFlg1=           0
         NFxFlg=           0 DoJE=T BraDBF=F KetDBF=T FulRan=T
         wScrn=  0.000000 ICntrl=       500 IOpCl=  0 I1Cent=   200000004 NGrid=           0
         NMat0=    1 NMatS0=      1 NMatT0=    0 NMatD0=    1 NMtDS0=    0 NMtDT0=    0
 Symmetry not used in FoFCou.
 Harris En= -153.978713694971    
 JPrj=0 DoOrth=F DoCkMO=F.
 Initial guess <Sx>= 0.0000 <Sy>= 0.0000 <Sz>= 0.5000 <S**2>= 0.7500 S= 0.5000
 Leave Link  401 at Fri Sep 25 23:32:25 2020, MaxMem=   268435456 cpu:               5.4 elap:               0.8
 (Enter /applis/site/cecic/gaussian16/B.01/nehalem/g16/l502.exe)
 Keep R1 and R2 ints in memory in canonical form, NReq=182448050.
 FoFCou: FMM=F IPFlag=           0 FMFlag=           0 FMFlg1=           0
         NFxFlg=           0 DoJE=F BraDBF=F KetDBF=F FulRan=T
         wScrn=  0.000000 ICntrl=       600 IOpCl=  0 I1Cent=           0 NGrid=           0
         NMat0=    1 NMatS0=  13203 NMatT0=    0 NMatD0=    1 NMtDS0=    0 NMtDT0=    0
 Symmetry not used in FoFCou.
 Two-electron integral symmetry not used.
 UHF open shell SCF:
 Using DIIS extrapolation, IDIIS=  1040.
 NGot=   268435456 LenX=    94031820 LenY=    93997154
 Requested convergence on RMS density matrix=1.00D-08 within 128 cycles.
 Requested convergence on MAX density matrix=1.00D-06.
 Requested convergence on             energy=1.00D-06.
 No special actions if energy rises.
 Integral accuracy reduced to 1.0D-05 until final iterations.

 Cycle   1  Pass 0  IDiag  1:
 E= -153.906675814737    
 DIIS: error= 3.30D-02 at cycle   1 NSaved=   1.
 NSaved= 1 IEnMin= 1 EnMin= -153.906675814737     IErMin= 1 ErrMin= 3.30D-02
 ErrMax= 3.30D-02  0.00D+00 EMaxC= 1.00D-01 BMatC= 5.66D-01 BMatP= 5.66D-01
 IDIUse=3 WtCom= 6.70D-01 WtEn= 3.30D-01
 Coeff-Com:  0.100D+01
 Coeff-En:   0.100D+01
 Coeff:      0.100D+01
 Gap=     0.357 Goal=   None    Shift=    0.000
 Gap=     0.179 Goal=   None    Shift=    0.000
 GapD=    0.179 DampG=1.000 DampE=0.500 DampFc=0.5000 IDamp=-1.
 Damping current iteration by 5.00D-01
 RMSDP=2.54D-03 MaxDP=4.40D-02              OVMax= 1.49D-01

 Cycle   2  Pass 0  IDiag  1:
 E= -153.973742362927     Delta-E=       -0.067066548190 Rises=F Damp=T
 DIIS: error= 7.08D-03 at cycle   2 NSaved=   2.
 NSaved= 2 IEnMin= 2 EnMin= -153.973742362927     IErMin= 2 ErrMin= 7.08D-03
 ErrMax= 7.08D-03  0.00D+00 EMaxC= 1.00D-01 BMatC= 4.19D-02 BMatP= 5.66D-01
 IDIUse=3 WtCom= 9.29D-01 WtEn= 7.08D-02
 Coeff-Com: -0.176D+00 0.118D+01
 Coeff-En:   0.000D+00 0.100D+01
 Coeff:     -0.164D+00 0.116D+01
 Gap=     0.315 Goal=   None    Shift=    0.000
 Gap=     0.236 Goal=   None    Shift=    0.000
 RMSDP=8.19D-04 MaxDP=1.91D-02 DE=-6.71D-02 OVMax= 9.25D-02

 Cycle   3  Pass 0  IDiag  1:
 E= -154.031284997573     Delta-E=       -0.057542634646 Rises=F Damp=F
 DIIS: error= 7.68D-03 at cycle   3 NSaved=   3.
 NSaved= 3 IEnMin= 3 EnMin= -154.031284997573     IErMin= 2 ErrMin= 7.08D-03
 ErrMax= 7.68D-03  0.00D+00 EMaxC= 1.00D-01 BMatC= 1.57D-02 BMatP= 4.19D-02
 IDIUse=3 WtCom= 9.23D-01 WtEn= 7.68D-02
 Coeff-Com: -0.114D+00 0.489D+00 0.626D+00
 Coeff-En:   0.000D+00 0.000D+00 0.100D+01
 Coeff:     -0.106D+00 0.451D+00 0.654D+00
 Gap=     0.308 Goal=   None    Shift=    0.000
 Gap=     0.224 Goal=   None    Shift=    0.000
 RMSDP=5.10D-04 MaxDP=1.91D-02 DE=-5.75D-02 OVMax= 3.61D-02

 Cycle   4  Pass 0  IDiag  1:
 E= -154.034665070174     Delta-E=       -0.003380072601 Rises=F Damp=F
 DIIS: error= 4.60D-03 at cycle   4 NSaved=   4.
 NSaved= 4 IEnMin= 4 EnMin= -154.034665070174     IErMin= 4 ErrMin= 4.60D-03
 ErrMax= 4.60D-03  0.00D+00 EMaxC= 1.00D-01 BMatC= 3.81D-03 BMatP= 1.57D-02
 IDIUse=3 WtCom= 9.54D-01 WtEn= 4.60D-02
 Coeff-Com: -0.218D-01 0.518D-01 0.338D+00 0.632D+00
 Coeff-En:   0.000D+00 0.000D+00 0.135D+00 0.865D+00
 Coeff:     -0.208D-01 0.494D-01 0.328D+00 0.643D+00
 Gap=     0.306 Goal=   None    Shift=    0.000
 Gap=     0.230 Goal=   None    Shift=    0.000
 RMSDP=1.29D-04 MaxDP=4.40D-03 DE=-3.38D-03 OVMax= 1.66D-02

 Cycle   5  Pass 0  IDiag  1:
 E= -154.035800340127     Delta-E=       -0.001135269953 Rises=F Damp=F
 DIIS: error= 1.56D-03 at cycle   5 NSaved=   5.
 NSaved= 5 IEnMin= 5 EnMin= -154.035800340127     IErMin= 5 ErrMin= 1.56D-03
 ErrMax= 1.56D-03  0.00D+00 EMaxC= 1.00D-01 BMatC= 5.26D-04 BMatP= 3.81D-03
 IDIUse=3 WtCom= 9.84D-01 WtEn= 1.56D-02
 Coeff-Com: -0.160D-02-0.146D-01 0.102D+00 0.324D+00 0.589D+00
 Coeff-En:   0.000D+00 0.000D+00 0.000D+00 0.000D+00 0.100D+01
 Coeff:     -0.158D-02-0.144D-01 0.101D+00 0.319D+00 0.596D+00
 Gap=     0.307 Goal=   None    Shift=    0.000
 Gap=     0.232 Goal=   None    Shift=    0.000
 RMSDP=7.40D-05 MaxDP=2.49D-03 DE=-1.14D-03 OVMax= 7.62D-03

 Cycle   6  Pass 0  IDiag  1:
 E= -154.036014128436     Delta-E=       -0.000213788308 Rises=F Damp=F
 DIIS: error= 9.32D-04 at cycle   6 NSaved=   6.
 NSaved= 6 IEnMin= 6 EnMin= -154.036014128436     IErMin= 6 ErrMin= 9.32D-04
 ErrMax= 9.32D-04  0.00D+00 EMaxC= 1.00D-01 BMatC= 1.19D-04 BMatP= 5.26D-04
 IDIUse=3 WtCom= 9.91D-01 WtEn= 9.32D-03
 Coeff-Com:  0.895D-02-0.262D-01-0.154D+00-0.234D+00 0.189D+00 0.122D+01
 Coeff-En:   0.000D+00 0.000D+00 0.000D+00 0.000D+00 0.000D+00 0.100D+01
 Coeff:      0.887D-02-0.259D-01-0.153D+00-0.231D+00 0.187D+00 0.121D+01
 Gap=     0.309 Goal=   None    Shift=    0.000
 Gap=     0.236 Goal=   None    Shift=    0.000
 RMSDP=1.08D-04 MaxDP=3.71D-03 DE=-2.14D-04 OVMax= 1.11D-02

 Cycle   7  Pass 0  IDiag  1:
 E= -154.036163823091     Delta-E=       -0.000149694655 Rises=F Damp=F
 DIIS: error= 5.93D-04 at cycle   7 NSaved=   7.
 NSaved= 7 IEnMin= 7 EnMin= -154.036163823091     IErMin= 7 ErrMin= 5.93D-04
 ErrMax= 5.93D-04  0.00D+00 EMaxC= 1.00D-01 BMatC= 2.50D-05 BMatP= 1.19D-04
 IDIUse=3 WtCom= 9.94D-01 WtEn= 5.93D-03
 Coeff-Com:  0.329D-02-0.789D-02-0.779D-01-0.144D+00-0.304D-01 0.475D+00
 Coeff-Com:  0.781D+00
 Coeff-En:   0.000D+00 0.000D+00 0.000D+00 0.000D+00 0.000D+00 0.000D+00
 Coeff-En:   0.100D+01
 Coeff:      0.327D-02-0.784D-02-0.775D-01-0.143D+00-0.302D-01 0.472D+00
 Coeff:      0.783D+00
 Gap=     0.309 Goal=   None    Shift=    0.000
 Gap=     0.236 Goal=   None    Shift=    0.000
 RMSDP=3.60D-05 MaxDP=1.10D-03 DE=-1.50D-04 OVMax= 5.10D-03

 Cycle   8  Pass 0  IDiag  1:
 E= -154.036190115352     Delta-E=       -0.000026292262 Rises=F Damp=F
 DIIS: error= 2.63D-04 at cycle   8 NSaved=   8.
 NSaved= 8 IEnMin= 8 EnMin= -154.036190115352     IErMin= 8 ErrMin= 2.63D-04
 ErrMax= 2.63D-04  0.00D+00 EMaxC= 1.00D-01 BMatC= 5.76D-06 BMatP= 2.50D-05
 IDIUse=3 WtCom= 9.97D-01 WtEn= 2.63D-03
 Coeff-Com: -0.243D-02 0.720D-02 0.278D-01 0.354D-01-0.565D-01-0.246D+00
 Coeff-Com:  0.181D+00 0.105D+01
 Coeff-En:   0.000D+00 0.000D+00 0.000D+00 0.000D+00 0.000D+00 0.000D+00
 Coeff-En:   0.000D+00 0.100D+01
 Coeff:     -0.242D-02 0.718D-02 0.278D-01 0.353D-01-0.564D-01-0.246D+00
 Coeff:      0.181D+00 0.105D+01
 Gap=     0.309 Goal=   None    Shift=    0.000
 Gap=     0.236 Goal=   None    Shift=    0.000
 RMSDP=2.00D-05 MaxDP=7.47D-04 DE=-2.63D-05 OVMax= 3.28D-03

 Cycle   9  Pass 0  IDiag  1:
 E= -154.036200097442     Delta-E=       -0.000009982089 Rises=F Damp=F
 DIIS: error= 1.32D-04 at cycle   9 NSaved=   9.
 NSaved= 9 IEnMin= 9 EnMin= -154.036200097442     IErMin= 9 ErrMin= 1.32D-04
 ErrMax= 1.32D-04  0.00D+00 EMaxC= 1.00D-01 BMatC= 1.29D-06 BMatP= 5.76D-06
 IDIUse=3 WtCom= 9.99D-01 WtEn= 1.32D-03
 Coeff-Com: -0.686D-03 0.189D-02 0.201D-01 0.357D-01-0.121D-02-0.135D+00
 Coeff-Com: -0.167D+00 0.589D-01 0.119D+01
 Coeff-En:   0.000D+00 0.000D+00 0.000D+00 0.000D+00 0.000D+00 0.000D+00
 Coeff-En:   0.000D+00 0.000D+00 0.100D+01
 Coeff:     -0.685D-03 0.189D-02 0.201D-01 0.357D-01-0.121D-02-0.135D+00
 Coeff:     -0.167D+00 0.588D-01 0.119D+01
 Gap=     0.310 Goal=   None    Shift=    0.000
 Gap=     0.236 Goal=   None    Shift=    0.000
 RMSDP=1.33D-05 MaxDP=4.96D-04 DE=-9.98D-06 OVMax= 2.38D-03

 Cycle  10  Pass 0  IDiag  1:
 E= -154.036203222796     Delta-E=       -0.000003125355 Rises=F Damp=F
 DIIS: error= 5.10D-05 at cycle  10 NSaved=  10.
 NSaved=10 IEnMin=10 EnMin= -154.036203222796     IErMin=10 ErrMin= 5.10D-05
 ErrMax= 5.10D-05  0.00D+00 EMaxC= 1.00D-01 BMatC= 2.41D-07 BMatP= 1.29D-06
 IDIUse=1 WtCom= 1.00D+00 WtEn= 0.00D+00
 Coeff-Com:  0.841D-03-0.220D-02-0.921D-02-0.134D-01 0.994D-02 0.714D-01
 Coeff-Com: -0.701D-02-0.269D+00-0.164D+00 0.138D+01
 Coeff:      0.841D-03-0.220D-02-0.921D-02-0.134D-01 0.994D-02 0.714D-01
 Coeff:     -0.701D-02-0.269D+00-0.164D+00 0.138D+01
 Gap=     0.310 Goal=   None    Shift=    0.000
 Gap=     0.237 Goal=   None    Shift=    0.000
 RMSDP=7.59D-06 MaxDP=2.59D-04 DE=-3.13D-06 OVMax= 1.24D-03

 Initial convergence to 1.0D-05 achieved.  Increase integral accuracy.
 Cycle  11  Pass 1  IDiag  1:
 E= -154.036230947710     Delta-E=       -0.000027724914 Rises=F Damp=F
 DIIS: error= 1.78D-05 at cycle   1 NSaved=   1.
 NSaved= 1 IEnMin= 1 EnMin= -154.036230947710     IErMin= 1 ErrMin= 1.78D-05
 ErrMax= 1.78D-05  0.00D+00 EMaxC= 1.00D-01 BMatC= 4.17D-07 BMatP= 4.17D-07
 IDIUse=1 WtCom= 1.00D+00 WtEn= 0.00D+00
 Coeff-Com:  0.100D+01
 Coeff:      0.100D+01
 Gap=     0.310 Goal=   None    Shift=    0.000
 Gap=     0.236 Goal=   None    Shift=    0.000
 RMSDP=7.59D-06 MaxDP=2.59D-04 DE=-2.77D-05 OVMax= 1.79D-04

 Cycle  12  Pass 1  IDiag  1:
 E= -154.036231042532     Delta-E=       -0.000000094822 Rises=F Damp=F
 DIIS: error= 9.66D-06 at cycle   2 NSaved=   2.
 NSaved= 2 IEnMin= 2 EnMin= -154.036231042532     IErMin= 2 ErrMin= 9.66D-06
 ErrMax= 9.66D-06  0.00D+00 EMaxC= 1.00D-01 BMatC= 1.61D-08 BMatP= 4.17D-07
 IDIUse=1 WtCom= 1.00D+00 WtEn= 0.00D+00
 Coeff-Com: -0.572D-01 0.106D+01
 Coeff:     -0.572D-01 0.106D+01
 Gap=     0.310 Goal=   None    Shift=    0.000
 Gap=     0.236 Goal=   None    Shift=    0.000
 RMSDP=8.46D-07 MaxDP=3.37D-05 DE=-9.48D-08 OVMax= 1.35D-04

 Cycle  13  Pass 1  IDiag  1:
 E= -154.036231059897     Delta-E=       -0.000000017365 Rises=F Damp=F
 DIIS: error= 8.50D-06 at cycle   3 NSaved=   3.
 NSaved= 3 IEnMin= 3 EnMin= -154.036231059897     IErMin= 3 ErrMin= 8.50D-06
 ErrMax= 8.50D-06  0.00D+00 EMaxC= 1.00D-01 BMatC= 1.03D-08 BMatP= 1.61D-08
 IDIUse=1 WtCom= 1.00D+00 WtEn= 0.00D+00
 Coeff-Com: -0.438D-01 0.398D+00 0.645D+00
 Coeff:     -0.438D-01 0.398D+00 0.645D+00
 Gap=     0.310 Goal=   None    Shift=    0.000
 Gap=     0.236 Goal=   None    Shift=    0.000
 RMSDP=4.42D-07 MaxDP=1.34D-05 DE=-1.74D-08 OVMax= 4.45D-05

 Cycle  14  Pass 1  IDiag  1:
 E= -154.036231065744     Delta-E=       -0.000000005846 Rises=F Damp=F
 DIIS: error= 5.86D-06 at cycle   4 NSaved=   4.
 NSaved= 4 IEnMin= 4 EnMin= -154.036231065744     IErMin= 4 ErrMin= 5.86D-06
 ErrMax= 5.86D-06  0.00D+00 EMaxC= 1.00D-01 BMatC= 4.93D-09 BMatP= 1.03D-08
 IDIUse=1 WtCom= 1.00D+00 WtEn= 0.00D+00
 Coeff-Com:  0.107D-01-0.422D+00 0.370D+00 0.104D+01
 Coeff:      0.107D-01-0.422D+00 0.370D+00 0.104D+01
 Gap=     0.310 Goal=   None    Shift=    0.000
 Gap=     0.236 Goal=   None    Shift=    0.000
 RMSDP=6.15D-07 MaxDP=2.66D-05 DE=-5.85D-09 OVMax= 9.30D-05

 Cycle  15  Pass 1  IDiag  1:
 E= -154.036231072458     Delta-E=       -0.000000006714 Rises=F Damp=F
 DIIS: error= 3.33D-06 at cycle   5 NSaved=   5.
 NSaved= 5 IEnMin= 5 EnMin= -154.036231072458     IErMin= 5 ErrMin= 3.33D-06
 ErrMax= 3.33D-06  0.00D+00 EMaxC= 1.00D-01 BMatC= 1.32D-09 BMatP= 4.93D-09
 IDIUse=1 WtCom= 1.00D+00 WtEn= 0.00D+00
 Coeff-Com:  0.189D-01-0.276D+00-0.134D+00 0.385D+00 0.101D+01
 Coeff:      0.189D-01-0.276D+00-0.134D+00 0.385D+00 0.101D+01
 Gap=     0.310 Goal=   None    Shift=    0.000
 Gap=     0.236 Goal=   None    Shift=    0.000
 RMSDP=4.25D-07 MaxDP=1.63D-05 DE=-6.71D-09 OVMax= 4.81D-05

 Cycle  16  Pass 1  IDiag  1:
 E= -154.036231074620     Delta-E=       -0.000000002162 Rises=F Damp=F
 DIIS: error= 1.50D-06 at cycle   6 NSaved=   6.
 NSaved= 6 IEnMin= 6 EnMin= -154.036231074620     IErMin= 6 ErrMin= 1.50D-06
 ErrMax= 1.50D-06  0.00D+00 EMaxC= 1.00D-01 BMatC= 2.70D-10 BMatP= 1.32D-09
 IDIUse=1 WtCom= 1.00D+00 WtEn= 0.00D+00
 Coeff-Com:  0.417D-02-0.560D-02-0.140D+00-0.110D+00 0.326D+00 0.925D+00
 Coeff:      0.417D-02-0.560D-02-0.140D+00-0.110D+00 0.326D+00 0.925D+00
 Gap=     0.310 Goal=   None    Shift=    0.000
 Gap=     0.236 Goal=   None    Shift=    0.000
 RMSDP=2.00D-07 MaxDP=7.64D-06 DE=-2.16D-09 OVMax= 2.15D-05

 Cycle  17  Pass 1  IDiag  1:
 E= -154.036231075024     Delta-E=       -0.000000000404 Rises=F Damp=F
 DIIS: error= 6.56D-07 at cycle   7 NSaved=   7.
 NSaved= 7 IEnMin= 7 EnMin= -154.036231075024     IErMin= 7 ErrMin= 6.56D-07
 ErrMax= 6.56D-07  0.00D+00 EMaxC= 1.00D-01 BMatC= 6.78D-11 BMatP= 2.70D-10
 IDIUse=1 WtCom= 1.00D+00 WtEn= 0.00D+00
 Coeff-Com: -0.364D-02 0.708D-01 0.271D-02-0.143D+00-0.163D+00 0.320D+00
 Coeff-Com:  0.916D+00
 Coeff:     -0.364D-02 0.708D-01 0.271D-02-0.143D+00-0.163D+00 0.320D+00
 Coeff:      0.916D+00
 Gap=     0.310 Goal=   None    Shift=    0.000
 Gap=     0.236 Goal=   None    Shift=    0.000
 RMSDP=7.07D-08 MaxDP=2.23D-06 DE=-4.04D-10 OVMax= 9.84D-06

 Cycle  18  Pass 1  IDiag  1:
 E= -154.036231075097     Delta-E=       -0.000000000073 Rises=F Damp=F
 DIIS: error= 4.78D-07 at cycle   8 NSaved=   8.
 NSaved= 8 IEnMin= 8 EnMin= -154.036231075097     IErMin= 8 ErrMin= 4.78D-07
 ErrMax= 4.78D-07  0.00D+00 EMaxC= 1.00D-01 BMatC= 1.37D-11 BMatP= 6.78D-11
 IDIUse=1 WtCom= 1.00D+00 WtEn= 0.00D+00
 Coeff-Com: -0.187D-02 0.204D-01 0.376D-01-0.235D-01-0.122D+00-0.799D-01
 Coeff-Com:  0.251D+00 0.918D+00
 Coeff:     -0.187D-02 0.204D-01 0.376D-01-0.235D-01-0.122D+00-0.799D-01
 Coeff:      0.251D+00 0.918D+00
 Gap=     0.310 Goal=   None    Shift=    0.000
 Gap=     0.236 Goal=   None    Shift=    0.000
 RMSDP=2.81D-08 MaxDP=8.40D-07 DE=-7.29D-11 OVMax= 4.84D-06

 Cycle  19  Pass 1  IDiag  1:
 E= -154.036231075111     Delta-E=       -0.000000000014 Rises=F Damp=F
 DIIS: error= 1.77D-07 at cycle   9 NSaved=   9.
 NSaved= 9 IEnMin= 9 EnMin= -154.036231075111     IErMin= 9 ErrMin= 1.77D-07
 ErrMax= 1.77D-07  0.00D+00 EMaxC= 1.00D-01 BMatC= 4.14D-12 BMatP= 1.37D-11
 IDIUse=1 WtCom= 1.00D+00 WtEn= 0.00D+00
 Coeff-Com:  0.344D-04-0.842D-02 0.162D-01 0.234D-01-0.122D-01-0.108D+00
 Coeff-Com: -0.158D+00 0.388D+00 0.859D+00
 Coeff:      0.344D-04-0.842D-02 0.162D-01 0.234D-01-0.122D-01-0.108D+00
 Coeff:     -0.158D+00 0.388D+00 0.859D+00
 Gap=     0.310 Goal=   None    Shift=    0.000
 Gap=     0.236 Goal=   None    Shift=    0.000
 RMSDP=1.70D-08 MaxDP=4.70D-07 DE=-1.36D-11 OVMax= 2.21D-06

 Cycle  20  Pass 1  IDiag  1:
 E= -154.036231075115     Delta-E=       -0.000000000004 Rises=F Damp=F
 DIIS: error= 6.05D-08 at cycle  10 NSaved=  10.
 NSaved=10 IEnMin=10 EnMin= -154.036231075115     IErMin=10 ErrMin= 6.05D-08
 ErrMax= 6.05D-08  0.00D+00 EMaxC= 1.00D-01 BMatC= 5.93D-13 BMatP= 4.14D-12
 IDIUse=1 WtCom= 1.00D+00 WtEn= 0.00D+00
 Coeff-Com:  0.356D-03-0.556D-02-0.452D-02 0.871D-02 0.215D-01-0.146D-02
 Coeff-Com: -0.758D-01-0.102D+00 0.145D+00 0.101D+01
 Coeff:      0.356D-03-0.556D-02-0.452D-02 0.871D-02 0.215D-01-0.146D-02
 Coeff:     -0.758D-01-0.102D+00 0.145D+00 0.101D+01
 Gap=     0.310 Goal=   None    Shift=    0.000
 Gap=     0.236 Goal=   None    Shift=    0.000
 RMSDP=7.05D-09 MaxDP=2.29D-07 DE=-4.26D-12 OVMax= 9.16D-07

 SCF Done:  E(UM062X) =  -154.036231075     A.U. after   20 cycles
            NFock= 20  Conv=0.71D-08     -V/T= 2.0067
 <Sx>= 0.0000 <Sy>= 0.0000 <Sz>= 0.5000 <S**2>= 0.7754 S= 0.5126
 <L.S>= 0.000000000000E+00
 KE= 1.530135507573D+02 PE=-5.225576093857D+02 EE= 1.326449213380D+02
 Annihilation of the first spin contaminant:
 S**2 before annihilation     0.7754,   after     0.7504
 Leave Link  502 at Fri Sep 25 23:32:49 2020, MaxMem=   268435456 cpu:             159.2 elap:              24.5
 (Enter /applis/site/cecic/gaussian16/B.01/nehalem/g16/l601.exe)
 Copying SCF densities to generalized density rwf, IOpCl= 1 IROHF=0.

 **********************************************************************

            Population analysis using the SCF Density.

 **********************************************************************

 Alpha  occ. eigenvalues --  -10.60298 -10.56214 -10.56069 -10.55378  -0.91563
 Alpha  occ. eigenvalues --   -0.84345  -0.70340  -0.60757  -0.55345  -0.51231
 Alpha  occ. eigenvalues --   -0.41981  -0.39353  -0.31805  -0.31549
 Alpha virt. eigenvalues --   -0.00585   0.07659   0.08902   0.11530   0.13518
 Alpha virt. eigenvalues --    0.13892   0.18892   0.24073   0.30313   0.31330
 Alpha virt. eigenvalues --    0.32114   0.32646   0.34388   0.37167   0.38411
 Alpha virt. eigenvalues --    0.42266   0.42511   0.47133   0.47560   0.48820
 Alpha virt. eigenvalues --    0.51392   0.53371   0.57212   0.59348   0.62871
 Alpha virt. eigenvalues --    0.63087   0.65187   0.69672   0.74533   0.76132
 Alpha virt. eigenvalues --    0.77787   0.82111   0.88742   0.91401   0.92002
 Alpha virt. eigenvalues --    0.94185   0.95185   0.97421   0.99649   1.07155
 Alpha virt. eigenvalues --    1.07631   1.14631   1.19461   1.21615   1.21838
 Alpha virt. eigenvalues --    1.26089   1.30570   1.33754   1.37237   1.39340
 Alpha virt. eigenvalues --    1.46589   1.51390   1.51545   1.54319   1.60756
 Alpha virt. eigenvalues --    1.72354   1.99967   2.00947   2.08514   2.14712
 Alpha virt. eigenvalues --    2.16598   2.24103   2.26649   2.26864   2.37880
 Alpha virt. eigenvalues --    2.39523   2.42876   2.44563   2.46460   2.49047
 Alpha virt. eigenvalues --    2.53006   2.53509   2.54038   2.56322   2.61554
 Alpha virt. eigenvalues --    2.69490   2.69962   2.74196   2.75280   2.77716
 Alpha virt. eigenvalues --    2.78659   2.83841   2.84631   2.86499   2.90054
 Alpha virt. eigenvalues --    2.90331   2.91947   2.92402   2.93559   2.94936
 Alpha virt. eigenvalues --    3.00585   3.02824   3.05200   3.06027   3.07914
 Alpha virt. eigenvalues --    3.10257   3.12509   3.12958   3.15936   3.18607
 Alpha virt. eigenvalues --    3.24599   3.25452   3.29886   3.38491   3.39354
 Alpha virt. eigenvalues --    3.43984   3.47382   3.48371   3.56343   3.56543
 Alpha virt. eigenvalues --    3.64579   3.73127   3.78315   3.82688   3.85770
 Alpha virt. eigenvalues --    3.88591   3.91979   3.96054   3.98759   4.04356
 Alpha virt. eigenvalues --    4.08957   4.11833   4.18917   4.21851   4.23347
 Alpha virt. eigenvalues --    4.37787   4.44792   4.52168   4.64615   4.75314
 Alpha virt. eigenvalues --    4.81824   4.82751   4.93290   4.93778   5.09712
 Alpha virt. eigenvalues --    5.10365   5.27247   5.54273   5.61952   5.66396
 Alpha virt. eigenvalues --    5.74790   5.85837   5.94120   6.14046   7.96563
 Alpha virt. eigenvalues --   10.35007  13.52784  16.46526
  Beta  occ. eigenvalues --  -10.59238 -10.56242 -10.56135 -10.55216  -0.89925
  Beta  occ. eigenvalues --   -0.83523  -0.68904  -0.59954  -0.53405  -0.49722
  Beta  occ. eigenvalues --   -0.40668  -0.36239  -0.31119
  Beta virt. eigenvalues --   -0.07473   0.00250   0.07787   0.08897   0.11610
  Beta virt. eigenvalues --    0.12724   0.14994   0.18026   0.23561   0.29765
  Beta virt. eigenvalues --    0.30957   0.31186   0.32225   0.34279   0.36611
  Beta virt. eigenvalues --    0.37120   0.41625   0.42408   0.46958   0.47163
  Beta virt. eigenvalues --    0.47353   0.50810   0.53552   0.57375   0.59251
  Beta virt. eigenvalues --    0.62959   0.63076   0.65161   0.70009   0.75046
  Beta virt. eigenvalues --    0.76479   0.76825   0.81619   0.88439   0.90989
  Beta virt. eigenvalues --    0.91612   0.94115   0.95191   0.97768   0.99734
  Beta virt. eigenvalues --    1.07756   1.07884   1.15296   1.19374   1.21753
  Beta virt. eigenvalues --    1.21814   1.25869   1.30576   1.33361   1.37098
  Beta virt. eigenvalues --    1.39421   1.46376   1.49661   1.51700   1.54291
  Beta virt. eigenvalues --    1.59802   1.71419   2.00527   2.02070   2.09513
  Beta virt. eigenvalues --    2.13480   2.16680   2.24209   2.27313   2.27534
  Beta virt. eigenvalues --    2.38765   2.40226   2.43237   2.45477   2.46996
  Beta virt. eigenvalues --    2.49420   2.53472   2.53911   2.54065   2.56564
  Beta virt. eigenvalues --    2.62103   2.69690   2.71651   2.74754   2.75733
  Beta virt. eigenvalues --    2.78829   2.79627   2.84477   2.85753   2.87467
  Beta virt. eigenvalues --    2.90947   2.90996   2.92673   2.92782   2.94554
  Beta virt. eigenvalues --    2.95246   3.00759   3.02003   3.05157   3.07671
  Beta virt. eigenvalues --    3.09264   3.11574   3.12786   3.12881   3.17695
  Beta virt. eigenvalues --    3.18911   3.26725   3.28459   3.30560   3.38412
  Beta virt. eigenvalues --    3.39405   3.44128   3.48949   3.49826   3.56662
  Beta virt. eigenvalues --    3.57230   3.64788   3.72973   3.78541   3.82932
  Beta virt. eigenvalues --    3.87452   3.88504   3.92429   3.95764   3.98766
  Beta virt. eigenvalues --    4.04873   4.09660   4.12323   4.19438   4.23059
  Beta virt. eigenvalues --    4.23717   4.39057   4.45104   4.53486   4.65441
  Beta virt. eigenvalues --    4.74476   4.81700   4.82486   4.92046   4.93696
  Beta virt. eigenvalues --    5.10582   5.11353   5.27948   5.55005   5.61857
  Beta virt. eigenvalues --    5.67975   5.75629   5.86383   5.94841   6.14612
  Beta virt. eigenvalues --    7.97423  10.35757  13.52682  16.46501
          Condensed to atoms (all electrons):
               1          2          3          4          5          6
     1  C    4.981561  -0.074398   0.006703   0.401747   0.401201  -0.000023
     2  C   -0.074398   5.013997   0.710871  -0.000085   0.005772  -0.074732
     3  C    0.006703   0.710871   5.088063   0.005570  -0.000403   0.426779
     4  H    0.401747  -0.000085   0.005570   0.530123  -0.032923   0.000037
     5  H    0.401201   0.005772  -0.000403  -0.032923   0.542362   0.000002
     6  H   -0.000023  -0.074732   0.426779   0.000037   0.000002   0.499276
     7  C    0.573749   0.449196  -0.086553  -0.056283  -0.056428   0.000070
               7
     1  C    0.573749
     2  C    0.449196
     3  C   -0.086553
     4  H   -0.056283
     5  H   -0.056428
     6  H    0.000070
     7  C    5.144877
          Atomic-Atomic Spin Densities.
               1          2          3          4          5          6
     1  C   -0.175213   0.015173   0.003400   0.007818   0.017658   0.000033
     2  C    0.015173  -0.125725  -0.026838   0.002622  -0.002767  -0.000809
     3  C    0.003400  -0.026838   0.314097   0.006071  -0.000485   0.001590
     4  H    0.007818   0.002622   0.006071   0.075433  -0.007593   0.000031
     5  H    0.017658  -0.002767  -0.000485  -0.007593   0.034463  -0.000002
     6  H    0.000033  -0.000809   0.001590   0.000031  -0.000002  -0.005786
     7  C   -0.039557  -0.029601  -0.034540  -0.022321  -0.014820   0.000016
               7
     1  C   -0.039557
     2  C   -0.029601
     3  C   -0.034540
     4  H   -0.022321
     5  H   -0.014820
     6  H    0.000016
     7  C    1.132570
 Mulliken charges and spin densities:
               1          2
     1  C   -0.290542  -0.170687
     2  C   -0.030621  -0.167945
     3  C   -0.151030   0.263295
     4  H    0.151813   0.062062
     5  H    0.140417   0.026454
     6  H    0.148591  -0.004927
     7  C    0.031372   0.991747
 Sum of Mulliken charges =   0.00000   1.00000
 Mulliken charges and spin densities with hydrogens summed into heavy atoms:
               1          2
     1  C    0.001689  -0.082171
     2  C   -0.030621  -0.167945
     3  C   -0.002439   0.258369
     7  C    0.031372   0.991747
 Electronic spatial extent (au):  <R**2>=            561.3108
 Charge=              0.0000 electrons
 Dipole moment (field-independent basis, Debye):
    X=              0.8603    Y=             -0.0000    Z=             -0.1728  Tot=              0.8774
 Quadrupole moment (field-independent basis, Debye-Ang):
   XX=            -23.0919   YY=            -26.1244   ZZ=            -17.9605
   XY=             -0.0000   XZ=              3.3950   YZ=              0.0000
 Traceless Quadrupole moment (field-independent basis, Debye-Ang):
   XX=             -0.6996   YY=             -3.7322   ZZ=              4.4318
   XY=             -0.0000   XZ=              3.3950   YZ=              0.0000
 Octapole moment (field-independent basis, Debye-Ang**2):
  XXX=              0.7477  YYY=              0.0000  ZZZ=            -83.0860  XYY=             -0.5321
  XXY=             -0.0000  XXZ=            -38.7532  XZZ=             16.1465  YZZ=             -0.0000
  YYZ=            -44.2598  XYZ=             -0.0000
 Hexadecapole moment (field-independent basis, Debye-Ang**3):
 XXXX=            -63.7101 YYYY=            -30.6794 ZZZZ=           -508.6231 XXXY=             -0.0000
 XXXZ=            -25.4189 YYYX=             -0.0000 YYYZ=             -0.0000 ZZZX=             57.5745
 ZZZY=             -0.0000 XXYY=            -16.3485 XXZZ=           -118.1764 YYZZ=           -138.8341
 XXYZ=             -0.0000 YYXZ=            -11.0392 ZZXY=             -0.0000
 N-N= 8.286290621528D+01 E-N=-5.225576110559D+02  KE= 1.530135507573D+02
                          Isotropic Fermi Contact Couplings
        Atom                 a.u.       MegaHertz       Gauss      10(-4) cm-1
     1  C(13)              0.00288       3.23528       1.15443       1.07917
     2  C(13)              0.02496      28.05847      10.01196       9.35930
     3  C(13)              0.04080      45.86339      16.36520      15.29838
     4  H(1)               0.02600     116.19603      41.46163      38.75882
     5  H(1)               0.01400      62.55680      22.32182      20.86670
     6  H(1)              -0.00300     -13.42011      -4.78863      -4.47647
     7  C(13)              0.55311     621.80367     221.87501     207.41138
 --------------------------------------------------------
       Center         ----  Spin Dipole Couplings  ----
                      3XX-RR        3YY-RR        3ZZ-RR
 --------------------------------------------------------
     1   Atom        0.086874     -0.183711      0.096836
     2   Atom       -0.036683     -0.043837      0.080520
     3   Atom        0.079412     -0.055507     -0.023905
     4   Atom        0.003949     -0.009808      0.005859
     5   Atom       -0.007511     -0.012488      0.019999
     6   Atom        0.000665     -0.015359      0.014694
     7   Atom        0.835296     -0.309251     -0.526045
 --------------------------------------------------------
                        XY            XZ            YZ
 --------------------------------------------------------
     1   Atom       -0.000000     -0.058775     -0.000000
     2   Atom       -0.000000      0.110979     -0.000000
     3   Atom        0.000000     -0.142540      0.000000
     4   Atom        0.000000     -0.007550     -0.000000
     5   Atom        0.000000     -0.012346      0.000000
     6   Atom        0.000000      0.011517     -0.000000
     7   Atom        0.000000     -0.037958      0.000000
 --------------------------------------------------------


 ---------------------------------------------------------------------------------
              Anisotropic Spin Dipole Couplings in Principal Axis System
 ---------------------------------------------------------------------------------

       Atom             a.u.   MegaHertz   Gauss  10(-4) cm-1        Axes

              Baa    -0.1837   -24.652    -8.797    -8.223  0.0000  1.0000  0.0000
     1 C(13)  Bbb     0.0329     4.411     1.574     1.471  0.7364 -0.0000  0.6766
              Bcc     0.1508    20.241     7.223     6.752 -0.6766 -0.0000  0.7364
 
              Baa    -0.1036   -13.900    -4.960    -4.636  0.8564 -0.0000 -0.5163
     2 C(13)  Bbb    -0.0438    -5.883    -2.099    -1.962  0.0000  1.0000  0.0000
              Bcc     0.1474    19.782     7.059     6.599  0.5163 -0.0000  0.8564
 
              Baa    -0.1239   -16.621    -5.931    -5.544  0.5741 -0.0000  0.8188
     3 C(13)  Bbb    -0.0555    -7.449    -2.658    -2.485  0.0000  1.0000  0.0000
              Bcc     0.1794    24.069     8.588     8.029  0.8188  0.0000 -0.5741
 
              Baa    -0.0098    -5.233    -1.867    -1.746 -0.0000  1.0000  0.0000
     4 H(1)   Bbb    -0.0027    -1.444    -0.515    -0.482  0.7502  0.0000  0.6612
              Bcc     0.0125     6.677     2.382     2.227 -0.6612 -0.0000  0.7502
 
              Baa    -0.0125    -6.663    -2.377    -2.223 -0.0000  1.0000 -0.0000
     5 H(1)   Bbb    -0.0122    -6.530    -2.330    -2.178  0.9339  0.0000  0.3576
              Bcc     0.0247    13.193     4.708     4.401 -0.3576  0.0000  0.9339
 
              Baa    -0.0154    -8.195    -2.924    -2.733 -0.0000  1.0000  0.0000
     6 H(1)   Bbb    -0.0058    -3.098    -1.105    -1.033  0.8718  0.0000 -0.4898
              Bcc     0.0212    11.292     4.029     3.767  0.4898 -0.0000  0.8718
 
              Baa    -0.5271   -70.732   -25.239   -23.594  0.0279 -0.0000  0.9996
     7 C(13)  Bbb    -0.3093   -41.499   -14.808   -13.842  0.0000  1.0000  0.0000
              Bcc     0.8364   112.231    40.047    37.436  0.9996  0.0000 -0.0279
 

 ---------------------------------------------------------------------------------

 No NMR shielding tensors so no spin-rotation constants.
 Leave Link  601 at Fri Sep 25 23:32:50 2020, MaxMem=   268435456 cpu:               2.1 elap:               0.4
 (Enter /applis/site/cecic/gaussian16/B.01/nehalem/g16/l701.exe)
 ... and contract with generalized density number  0.
 Compute integral first derivatives.
 Leave Link  701 at Fri Sep 25 23:32:51 2020, MaxMem=   268435456 cpu:               1.2 elap:               0.3
 (Enter /applis/site/cecic/gaussian16/B.01/nehalem/g16/l702.exe)
 L702 exits ... SP integral derivatives will be done elsewhere.
 Leave Link  702 at Fri Sep 25 23:32:51 2020, MaxMem=   268435456 cpu:               0.4 elap:               0.1
 (Enter /applis/site/cecic/gaussian16/B.01/nehalem/g16/l703.exe)
 Integral derivatives from FoFJK, PRISM(SPDF).
 Compute integral first derivatives, UseDBF=F ICtDFT=           0.
 Calling FoFJK, ICntrl=      2127 FMM=F ISym2X=0 I1Cent= 0 IOpClX= 1 NMat=1 NMatS=1 NMatT=0.
 FoFJK:  IHMeth= 1 ICntrl=    2127 DoSepK=F KAlg= 0 I1Cent=           0 FoldK=F
 IRaf=         0 NMat=       1 IRICut=       1 DoRegI=T DoRafI=F ISym2E= 0 IDoP0=0 IntGTp=1.
 FoFCou: FMM=F IPFlag=           0 FMFlag=      100000 FMFlg1=         800
         NFxFlg=           0 DoJE=F BraDBF=F KetDBF=F FulRan=T
         wScrn=  0.000000 ICntrl=      2127 IOpCl=  1 I1Cent=           0 NGrid=           0
         NMat0=    1 NMatS0=      1 NMatT0=    0 NMatD0=    1 NMtDS0=    0 NMtDT0=    0
 Symmetry not used in FoFCou.
 Leave Link  703 at Fri Sep 25 23:32:54 2020, MaxMem=   268435456 cpu:              23.5 elap:               3.1
 (Enter /applis/site/cecic/gaussian16/B.01/nehalem/g16/l716.exe)
 Dipole        = 3.38449858D-01-4.66271662D-16-6.79770203D-02
 -------------------------------------------------------------------
 Center     Atomic                   Forces (Hartrees/Bohr)
 Number     Number              X              Y              Z
 -------------------------------------------------------------------
      1        6          -0.030108424   -0.000000000    0.002728942
      2        6          -0.025363048    0.000000000   -0.014099454
      3        6          -0.005489168   -0.000000000   -0.006232123
      4        1          -0.002417489    0.000000000    0.000887280
      5        1           0.003942541    0.000000000   -0.001666969
      6        1           0.002013741   -0.000000000    0.002739490
      7        6           0.057421847   -0.000000000    0.015642833
 -------------------------------------------------------------------
 Cartesian Forces:  Max     0.057421847 RMS     0.016040862
 Leave Link  716 at Fri Sep 25 23:32:54 2020, MaxMem=   268435456 cpu:               0.5 elap:               0.1
 (Enter /applis/site/cecic/gaussian16/B.01/nehalem/g16/l103.exe)

 GradGradGradGradGradGradGradGradGradGradGradGradGradGradGradGradGradGrad
 Berny optimization.
 FormGI is forming the generalized inverse of G from B-inverse, IUseBI=4.
 Internal  Forces:  Max     0.048882875 RMS     0.014574759
 Search for a local minimum.
 Step number   1 out of a maximum of  100
 All quantities printed in internal units (Hartrees-Bohrs-Radians)
 RMS Force = .14575D-01 SwitMx=.10000D-02 MixMth= 1
 Mixed Optimization -- RFO/linear search
 Second derivative matrix not updated -- first step.
 The second derivative matrix:
                          R1        R2        R3        R4        R5
           R1           0.35227
           R2           0.00000   0.35474
           R3           0.00000   0.00000   0.58947
           R4           0.00000   0.00000   0.00000   1.02069
           R5           0.00000   0.00000   0.00000   0.00000   0.39466
           R6           0.00000   0.00000   0.00000   0.00000   0.00000
           A1           0.00000   0.00000   0.00000   0.00000   0.00000
           A2           0.00000   0.00000   0.00000   0.00000   0.00000
           A3           0.00000   0.00000   0.00000   0.00000   0.00000
           A4           0.00000   0.00000   0.00000   0.00000   0.00000
           A5           0.00000   0.00000   0.00000   0.00000   0.00000
           A6           0.00000   0.00000   0.00000   0.00000   0.00000
           A7           0.00000   0.00000   0.00000   0.00000   0.00000
           A8           0.00000   0.00000   0.00000   0.00000   0.00000
           D1           0.00000   0.00000   0.00000   0.00000   0.00000
           D2           0.00000   0.00000   0.00000   0.00000   0.00000
           D3           0.00000   0.00000   0.00000   0.00000   0.00000
                          R6        A1        A2        A3        A4
           R6           0.38748
           A1           0.00000   0.16000
           A2           0.00000   0.00000   0.16000
           A3           0.00000   0.00000   0.00000   0.16000
           A4           0.00000   0.00000   0.00000   0.00000   0.25000
           A5           0.00000   0.00000   0.00000   0.00000   0.00000
           A6           0.00000   0.00000   0.00000   0.00000   0.00000
           A7           0.00000   0.00000   0.00000   0.00000   0.00000
           A8           0.00000   0.00000   0.00000   0.00000   0.00000
           D1           0.00000   0.00000   0.00000   0.00000   0.00000
           D2           0.00000   0.00000   0.00000   0.00000   0.00000
           D3           0.00000   0.00000   0.00000   0.00000   0.00000
                          A5        A6        A7        A8        D1
           A5           0.01548
           A6           0.00000   0.00654
           A7           0.00000   0.00000   0.01548
           A8           0.00000   0.00000   0.00000   0.00654
           D1           0.00000   0.00000   0.00000   0.00000   0.00310
           D2           0.00000   0.00000   0.00000   0.00000   0.00000
           D3           0.00000   0.00000   0.00000   0.00000   0.00000
                          D2        D3
           D2           0.02983
           D3           0.00000   0.02983
 ITU=  0
     Eigenvalues ---    0.00654   0.00654   0.01225   0.01548   0.01548
     Eigenvalues ---    0.02983   0.16000   0.16000   0.25000   0.35227
     Eigenvalues ---    0.35474   0.38748   0.39466   0.58947   1.02069
 RFO step:  Lambda=-1.23014159D-02 EMin= 6.54028044D-03
 Linear search not attempted -- first point.
 Iteration  1 RMS(Cart)=  0.16089408 RMS(Int)=  0.00899308
 Iteration  2 RMS(Cart)=  0.01372443 RMS(Int)=  0.00000710
 Iteration  3 RMS(Cart)=  0.00001195 RMS(Int)=  0.00000000
 Iteration  4 RMS(Cart)=  0.00000000 RMS(Int)=  0.00000000
 ITry= 1 IFail=0 DXMaxC= 3.43D-01 DCOld= 1.00D+10 DXMaxT= 3.00D-01 DXLimC= 3.00D+00 Rises=F
 Variable       Old X    -DE/DX   Delta X   Delta X   Delta X     New X
                                 (Linear)    (Quad)   (Total)
    R1        2.05307  -0.00242   0.00000  -0.00665  -0.00665   2.04642
    R2        2.04912  -0.00051   0.00000  -0.00138  -0.00138   2.04774
    R3        2.51783  -0.01627   0.00000  -0.02703  -0.02703   2.49080
    R4        2.27822  -0.00472   0.00000  -0.00457  -0.00457   2.27365
    R5        2.72286  -0.02912   0.00000  -0.07156  -0.07156   2.65130
    R6        1.99992   0.00337   0.00000   0.00842   0.00842   2.00833
    A1        2.08066  -0.00231   0.00000  -0.01341  -0.01341   2.06724
    A2        2.11548  -0.00409   0.00000  -0.02373  -0.02373   2.09174
    A3        2.08705   0.00640   0.00000   0.03715   0.03715   2.12420
    A4        2.11411   0.04888   0.00000   0.18636   0.18636   2.30047
    A5        3.14247   0.00227   0.00000   0.08170   0.08170   3.22417
    A6        3.14151  -0.00097   0.00000  -0.05132  -0.05132   3.09019
    A7        3.14159  -0.00000   0.00000  -0.00000   0.00000   3.14159
    A8        3.14159  -0.00000   0.00000  -0.00000   0.00000   3.14159
    D1        3.14159   0.00000   0.00000   0.00000   0.00000   3.14159
    D2        0.00000  -0.00000   0.00000  -0.00000   0.00000   0.00000
    D3        3.14159  -0.00000   0.00000  -0.00000   0.00000   3.14159
         Item               Value     Threshold  Converged?
 Maximum Force            0.048883     0.000450     NO 
 RMS     Force            0.014575     0.000300     NO 
 Maximum Displacement     0.342968     0.001800     NO 
 RMS     Displacement     0.156682     0.001200     NO 
 Predicted change in Energy=-6.471477D-03
 Lowest energy point so far.  Saving SCF results.
 GradGradGradGradGradGradGradGradGradGradGradGradGradGradGradGradGradGrad

 Leave Link  103 at Fri Sep 25 23:32:54 2020, MaxMem=   268435456 cpu:               1.2 elap:               0.2
 (Enter /applis/site/cecic/gaussian16/B.01/nehalem/g16/l202.exe)
                          Input orientation:                          
 ---------------------------------------------------------------------
 Center     Atomic      Atomic             Coordinates (Angstroms)
 Number     Number       Type             X           Y           Z
 ---------------------------------------------------------------------
      1          6           0       -0.006329    0.000000   -0.051710
      2          6           0        0.099636   -0.000000    2.430236
      3          6           0        0.531011    0.000000    3.553409
      4          1           0        1.067580    0.000000   -0.191124
      5          1           0       -0.640830    0.000000   -0.930140
      6          1           0        0.962523    0.000000    4.524627
      7          6           0       -0.509701   -0.000000    1.166459
 ---------------------------------------------------------------------
                    Distance matrix (angstroms):
                    1          2          3          4          5
     1  C    0.000000
     2  C    2.484208   0.000000
     3  C    3.644944   1.203163   0.000000
     4  H    1.082921   2.794359   3.782781   0.000000
     5  H    1.083619   3.440991   4.634158   1.861400   0.000000
     6  H    4.677771   2.265181   1.062764   4.716921   5.685528
     7  C    1.318074   1.403005   2.603960   2.081068   2.100696
                    6          7
     6  H    0.000000
     7  C    3.666706   0.000000
 Symmetry turned off by external request.
 Stoichiometry    C4H3(2)
 Framework group  CS[SG(C4H3)]
 Deg. of freedom    11
 Full point group                 CS      NOp   2
 Rotational constants (GHZ):          90.0257987           4.6044388           4.3803998
 Leave Link  202 at Fri Sep 25 23:32:55 2020, MaxMem=   268435456 cpu:               0.1 elap:               0.0
 (Enter /applis/site/cecic/gaussian16/B.01/nehalem/g16/l301.exe)
 Standard basis: CC-pVTZ (5D, 7F)
 Ernie: Thresh=  0.10000D-02 Tol=  0.10000D-05 Strict=F.
 Ernie:  12 primitive shells out of 128 were deleted.
   162 basis functions,   259 primitive gaussians,   185 cartesian basis functions
    14 alpha electrons       13 beta electrons
       nuclear repulsion energy        82.9821100554 Hartrees.
 IExCor= 4336 DFT=T Ex+Corr=M062X ExCW=0 ScaHFX=  0.540000
 ScaDFX=  1.000000  1.000000  1.000000  1.000000 ScalE2=  1.000000  1.000000
 IRadAn=      5 IRanWt=     -1 IRanGd=            0 ICorTp=0 IEmpDi=  4
 NAtoms=    7 NActive=    7 NUniq=    7 SFac= 1.00D+00 NAtFMM=   60 NAOKFM=F Big=F
 Integral buffers will be    131072 words long.
 Raffenetti 2 integral format.
 Two-electron integral symmetry is turned off.
 Leave Link  301 at Fri Sep 25 23:32:55 2020, MaxMem=   268435456 cpu:               0.6 elap:               0.1
 (Enter /applis/site/cecic/gaussian16/B.01/nehalem/g16/l302.exe)
 NPDir=0 NMtPBC=     1 NCelOv=     1 NCel=       1 NClECP=     1 NCelD=      1
         NCelK=      1 NCelE2=     1 NClLst=     1 CellRange=     0.0.
 One-electron integrals computed using PRISM.
 NBasis=   162 RedAO= T EigKep=  5.22D-05  NBF=   162
 NBsUse=   162 1.00D-06 EigRej= -1.00D+00 NBFU=   162
 Precomputing XC quadrature grid using
 IXCGrd= 4 IRadAn=           5 IRanWt=          -1 IRanGd=           0 AccXCQ= 0.00D+00.
 Generated NRdTot=       0 NPtTot=           0 NUsed=           0 NTot=          32
 NSgBfM=   185   185   185   185   185 MxSgAt=     7 MxSgA2=     7.
 Leave Link  302 at Fri Sep 25 23:32:55 2020, MaxMem=   268435456 cpu:               1.3 elap:               0.2
 (Enter /applis/site/cecic/gaussian16/B.01/nehalem/g16/l303.exe)
 DipDrv:  MaxL=1.
 Leave Link  303 at Fri Sep 25 23:32:55 2020, MaxMem=   268435456 cpu:               0.5 elap:               0.1
 (Enter /applis/site/cecic/gaussian16/B.01/nehalem/g16/l401.exe)
 Initial guess from the checkpoint file:  "input.chk"
 B after Tr=     0.104086    0.000000    0.019800
         Rot=    0.999993   -0.000000    0.003872   -0.000000 Ang=   0.44 deg.
 Guess basis will be translated and rotated to current coordinates.
 JPrj=2 DoOrth=T DoCkMO=T.
 Initial guess <Sx>= 0.0000 <Sy>= 0.0000 <Sz>= 0.5000 <S**2>= 0.7756 S= 0.5127
 Generating alternative initial guess.
 ExpMin= 1.03D-01 ExpMax= 8.24D+03 ExpMxC= 2.81D+02 IAcc=3 IRadAn=         5 AccDes= 0.00D+00
 Harris functional with IExCor= 1009 and IRadAn=       5 diagonalized for initial guess.
 HarFok:  IExCor= 1009 AccDes= 0.00D+00 IRadAn=         5 IDoV= 1 UseB2=F ITyADJ=14
 ICtDFT=  3500011 ScaDFX=  1.000000  1.000000  1.000000  1.000000
 FoFCou: FMM=F IPFlag=           0 FMFlag=      100000 FMFlg1=           0
         NFxFlg=           0 DoJE=T BraDBF=F KetDBF=T FulRan=T
         wScrn=  0.000000 ICntrl=       500 IOpCl=  0 I1Cent=   200000004 NGrid=           0
         NMat0=    1 NMatS0=      1 NMatT0=    0 NMatD0=    1 NMtDS0=    0 NMtDT0=    0
 Symmetry not used in FoFCou.
 Harris En= -153.993392691362    
 Leave Link  401 at Fri Sep 25 23:32:56 2020, MaxMem=   268435456 cpu:               4.9 elap:               0.6
 (Enter /applis/site/cecic/gaussian16/B.01/nehalem/g16/l502.exe)
 Keep R1 and R2 ints in memory in canonical form, NReq=182448050.
 FoFCou: FMM=F IPFlag=           0 FMFlag=           0 FMFlg1=           0
         NFxFlg=           0 DoJE=F BraDBF=F KetDBF=F FulRan=T
         wScrn=  0.000000 ICntrl=       600 IOpCl=  0 I1Cent=           0 NGrid=           0
         NMat0=    1 NMatS0=  13203 NMatT0=    0 NMatD0=    1 NMtDS0=    0 NMtDT0=    0
 Symmetry not used in FoFCou.
 Two-electron integral symmetry not used.
 UHF open shell SCF:
 Using DIIS extrapolation, IDIIS=  1040.
 NGot=   268435456 LenX=    94031820 LenY=    93997154
 Requested convergence on RMS density matrix=1.00D-08 within 128 cycles.
 Requested convergence on MAX density matrix=1.00D-06.
 Requested convergence on             energy=1.00D-06.
 No special actions if energy rises.
 Integral accuracy reduced to 1.0D-05 until final iterations.

 Cycle   1  Pass 0  IDiag  1:
 E= -154.028529565780    
 DIIS: error= 8.85D-03 at cycle   1 NSaved=   1.
 NSaved= 1 IEnMin= 1 EnMin= -154.028529565780     IErMin= 1 ErrMin= 8.85D-03
 ErrMax= 8.85D-03  0.00D+00 EMaxC= 1.00D-01 BMatC= 7.55D-02 BMatP= 7.55D-02
 IDIUse=3 WtCom= 9.11D-01 WtEn= 8.85D-02
 Coeff-Com:  0.100D+01
 Coeff-En:   0.100D+01
 Coeff:      0.100D+01
 Gap=     1.081 Goal=   None    Shift=    0.000
 Gap=     1.099 Goal=   None    Shift=    0.000
 GapD=    1.081 DampG=2.000 DampE=1.000 DampFc=2.0000 IDamp=-1.
 RMSDP=1.08D-03 MaxDP=3.57D-02              OVMax= 3.86D-02

 Cycle   2  Pass 0  IDiag  1:
 E= -154.044096305881     Delta-E=       -0.015566740101 Rises=F Damp=F
 DIIS: error= 2.83D-03 at cycle   2 NSaved=   2.
 NSaved= 2 IEnMin= 2 EnMin= -154.044096305881     IErMin= 2 ErrMin= 2.83D-03
 ErrMax= 2.83D-03  0.00D+00 EMaxC= 1.00D-01 BMatC= 2.22D-03 BMatP= 7.55D-02
 IDIUse=3 WtCom= 9.72D-01 WtEn= 2.83D-02
 Coeff-Com: -0.489D-01 0.105D+01
 Coeff-En:   0.000D+00 0.100D+01
 Coeff:     -0.475D-01 0.105D+01
 Gap=     0.290 Goal=   None    Shift=    0.000
 Gap=     0.249 Goal=   None    Shift=    0.000
 RMSDP=2.34D-04 MaxDP=5.58D-03 DE=-1.56D-02 OVMax= 2.65D-02

 Cycle   3  Pass 0  IDiag  1:
 E= -154.044313721523     Delta-E=       -0.000217415642 Rises=F Damp=F
 DIIS: error= 3.68D-03 at cycle   3 NSaved=   3.
 NSaved= 3 IEnMin= 3 EnMin= -154.044313721523     IErMin= 2 ErrMin= 2.83D-03
 ErrMax= 3.68D-03  0.00D+00 EMaxC= 1.00D-01 BMatC= 3.17D-03 BMatP= 2.22D-03
 IDIUse=3 WtCom= 1.41D-01 WtEn= 8.59D-01
 Coeff-Com: -0.514D-01 0.605D+00 0.446D+00
 Coeff-En:   0.000D+00 0.391D+00 0.609D+00
 Coeff:     -0.726D-02 0.421D+00 0.586D+00
 Gap=     0.290 Goal=   None    Shift=    0.000
 Gap=     0.247 Goal=   None    Shift=    0.000
 RMSDP=1.64D-04 MaxDP=4.76D-03 DE=-2.17D-04 OVMax= 1.96D-02

 Cycle   4  Pass 0  IDiag  1:
 E= -154.044855864555     Delta-E=       -0.000542143031 Rises=F Damp=F
 DIIS: error= 2.45D-03 at cycle   4 NSaved=   4.
 NSaved= 4 IEnMin= 4 EnMin= -154.044855864555     IErMin= 4 ErrMin= 2.45D-03
 ErrMax= 2.45D-03  0.00D+00 EMaxC= 1.00D-01 BMatC= 1.20D-03 BMatP= 2.22D-03
 IDIUse=3 WtCom= 9.75D-01 WtEn= 2.45D-02
 Coeff-Com: -0.452D-02-0.682D-01 0.382D+00 0.691D+00
 Coeff-En:   0.000D+00 0.000D+00 0.282D+00 0.718D+00
 Coeff:     -0.440D-02-0.666D-01 0.380D+00 0.691D+00
 Gap=     0.289 Goal=   None    Shift=    0.000
 Gap=     0.247 Goal=   None    Shift=    0.000
 RMSDP=7.08D-05 MaxDP=2.30D-03 DE=-5.42D-04 OVMax= 9.39D-03

 Cycle   5  Pass 0  IDiag  1:
 E= -154.045178702705     Delta-E=       -0.000322838150 Rises=F Damp=F
 DIIS: error= 2.69D-04 at cycle   5 NSaved=   5.
 NSaved= 5 IEnMin= 5 EnMin= -154.045178702705     IErMin= 5 ErrMin= 2.69D-04
 ErrMax= 2.69D-04  0.00D+00 EMaxC= 1.00D-01 BMatC= 1.79D-05 BMatP= 1.20D-03
 IDIUse=3 WtCom= 9.97D-01 WtEn= 2.69D-03
 Coeff-Com:  0.574D-02-0.992D-01 0.439D-01 0.186D+00 0.863D+00
 Coeff-En:   0.000D+00 0.000D+00 0.000D+00 0.000D+00 0.100D+01
 Coeff:      0.573D-02-0.989D-01 0.438D-01 0.186D+00 0.864D+00
 Gap=     0.289 Goal=   None    Shift=    0.000
 Gap=     0.246 Goal=   None    Shift=    0.000
 RMSDP=2.61D-05 MaxDP=7.72D-04 DE=-3.23D-04 OVMax= 3.26D-03

 Cycle   6  Pass 0  IDiag  1:
 E= -154.045193994746     Delta-E=       -0.000015292041 Rises=F Damp=F
 DIIS: error= 1.18D-04 at cycle   6 NSaved=   6.
 NSaved= 6 IEnMin= 6 EnMin= -154.045193994746     IErMin= 6 ErrMin= 1.18D-04
 ErrMax= 1.18D-04  0.00D+00 EMaxC= 1.00D-01 BMatC= 3.38D-06 BMatP= 1.79D-05
 IDIUse=3 WtCom= 9.99D-01 WtEn= 1.18D-03
 Coeff-Com: -0.933D-03 0.459D-01-0.881D-01-0.197D+00-0.223D+00 0.146D+01
 Coeff-En:   0.000D+00 0.000D+00 0.000D+00 0.000D+00 0.000D+00 0.100D+01
 Coeff:     -0.932D-03 0.458D-01-0.880D-01-0.197D+00-0.222D+00 0.146D+01
 Gap=     0.289 Goal=   None    Shift=    0.000
 Gap=     0.246 Goal=   None    Shift=    0.000
 RMSDP=2.31D-05 MaxDP=8.53D-04 DE=-1.53D-05 OVMax= 2.98D-03

 Cycle   7  Pass 0  IDiag  1:
 E= -154.045200217832     Delta-E=       -0.000006223086 Rises=F Damp=F
 DIIS: error= 7.12D-05 at cycle   7 NSaved=   7.
 NSaved= 7 IEnMin= 7 EnMin= -154.045200217832     IErMin= 7 ErrMin= 7.12D-05
 ErrMax= 7.12D-05  0.00D+00 EMaxC= 1.00D-01 BMatC= 7.43D-07 BMatP= 3.38D-06
 IDIUse=1 WtCom= 1.00D+00 WtEn= 0.00D+00
 Coeff-Com: -0.113D-02 0.282D-01-0.321D-01-0.888D-01-0.180D+00 0.387D+00
 Coeff-Com:  0.886D+00
 Coeff:     -0.113D-02 0.282D-01-0.321D-01-0.888D-01-0.180D+00 0.387D+00
 Coeff:      0.886D+00
 Gap=     0.289 Goal=   None    Shift=    0.000
 Gap=     0.246 Goal=   None    Shift=    0.000
 RMSDP=7.52D-06 MaxDP=3.27D-04 DE=-6.22D-06 OVMax= 1.16D-03

 Initial convergence to 1.0D-05 achieved.  Increase integral accuracy.
 Cycle   8  Pass 1  IDiag  1:
 E= -154.045211048928     Delta-E=       -0.000010831096 Rises=F Damp=F
 DIIS: error= 3.90D-05 at cycle   1 NSaved=   1.
 NSaved= 1 IEnMin= 1 EnMin= -154.045211048928     IErMin= 1 ErrMin= 3.90D-05
 ErrMax= 3.90D-05  0.00D+00 EMaxC= 1.00D-01 BMatC= 5.60D-07 BMatP= 5.60D-07
 IDIUse=1 WtCom= 1.00D+00 WtEn= 0.00D+00
 Coeff-Com:  0.100D+01
 Coeff:      0.100D+01
 Gap=     0.289 Goal=   None    Shift=    0.000
 Gap=     0.246 Goal=   None    Shift=    0.000
 RMSDP=7.52D-06 MaxDP=3.27D-04 DE=-1.08D-05 OVMax= 2.76D-04

 Cycle   9  Pass 1  IDiag  1:
 E= -154.045211281072     Delta-E=       -0.000000232144 Rises=F Damp=F
 DIIS: error= 3.08D-05 at cycle   2 NSaved=   2.
 NSaved= 2 IEnMin= 2 EnMin= -154.045211281072     IErMin= 2 ErrMin= 3.08D-05
 ErrMax= 3.08D-05  0.00D+00 EMaxC= 1.00D-01 BMatC= 1.78D-07 BMatP= 5.60D-07
 IDIUse=1 WtCom= 1.00D+00 WtEn= 0.00D+00
 Coeff-Com:  0.259D+00 0.741D+00
 Coeff:      0.259D+00 0.741D+00
 Gap=     0.289 Goal=   None    Shift=    0.000
 Gap=     0.246 Goal=   None    Shift=    0.000
 RMSDP=1.71D-06 MaxDP=4.56D-05 DE=-2.32D-07 OVMax= 2.75D-04

 Cycle  10  Pass 1  IDiag  1:
 E= -154.045211363971     Delta-E=       -0.000000082899 Rises=F Damp=F
 DIIS: error= 2.64D-05 at cycle   3 NSaved=   3.
 NSaved= 3 IEnMin= 3 EnMin= -154.045211363971     IErMin= 3 ErrMin= 2.64D-05
 ErrMax= 2.64D-05  0.00D+00 EMaxC= 1.00D-01 BMatC= 1.07D-07 BMatP= 1.78D-07
 IDIUse=1 WtCom= 1.00D+00 WtEn= 0.00D+00
 Coeff-Com: -0.959D-01 0.400D+00 0.695D+00
 Coeff:     -0.959D-01 0.400D+00 0.695D+00
 Gap=     0.289 Goal=   None    Shift=    0.000
 Gap=     0.246 Goal=   None    Shift=    0.000
 RMSDP=1.40D-06 MaxDP=5.83D-05 DE=-8.29D-08 OVMax= 1.33D-04

 Cycle  11  Pass 1  IDiag  1:
 E= -154.045211424311     Delta-E=       -0.000000060339 Rises=F Damp=F
 DIIS: error= 1.61D-05 at cycle   4 NSaved=   4.
 NSaved= 4 IEnMin= 4 EnMin= -154.045211424311     IErMin= 4 ErrMin= 1.61D-05
 ErrMax= 1.61D-05  0.00D+00 EMaxC= 1.00D-01 BMatC= 2.68D-08 BMatP= 1.07D-07
 IDIUse=1 WtCom= 1.00D+00 WtEn= 0.00D+00
 Coeff-Com: -0.108D+00 0.345D-01 0.279D+00 0.795D+00
 Coeff:     -0.108D+00 0.345D-01 0.279D+00 0.795D+00
 Gap=     0.289 Goal=   None    Shift=    0.000
 Gap=     0.246 Goal=   None    Shift=    0.000
 RMSDP=1.01D-06 MaxDP=5.12D-05 DE=-6.03D-08 OVMax= 1.57D-04

 Cycle  12  Pass 1  IDiag  1:
 E= -154.045211451584     Delta-E=       -0.000000027273 Rises=F Damp=F
 DIIS: error= 1.10D-05 at cycle   5 NSaved=   5.
 NSaved= 5 IEnMin= 5 EnMin= -154.045211451584     IErMin= 5 ErrMin= 1.10D-05
 ErrMax= 1.10D-05  0.00D+00 EMaxC= 1.00D-01 BMatC= 1.18D-08 BMatP= 2.68D-08
 IDIUse=1 WtCom= 1.00D+00 WtEn= 0.00D+00
 Coeff-Com:  0.364D-01-0.317D+00-0.520D+00 0.404D+00 0.140D+01
 Coeff:      0.364D-01-0.317D+00-0.520D+00 0.404D+00 0.140D+01
 Gap=     0.289 Goal=   None    Shift=    0.000
 Gap=     0.246 Goal=   None    Shift=    0.000
 RMSDP=1.71D-06 MaxDP=8.17D-05 DE=-2.73D-08 OVMax= 2.10D-04

 Cycle  13  Pass 1  IDiag  1:
 E= -154.045211472066     Delta-E=       -0.000000020483 Rises=F Damp=F
 DIIS: error= 2.37D-06 at cycle   6 NSaved=   6.
 NSaved= 6 IEnMin= 6 EnMin= -154.045211472066     IErMin= 6 ErrMin= 2.37D-06
 ErrMax= 2.37D-06  0.00D+00 EMaxC= 1.00D-01 BMatC= 4.07D-10 BMatP= 1.18D-08
 IDIUse=1 WtCom= 1.00D+00 WtEn= 0.00D+00
 Coeff-Com:  0.894D-02-0.353D-01-0.610D-01-0.366D-02 0.139D+00 0.952D+00
 Coeff:      0.894D-02-0.353D-01-0.610D-01-0.366D-02 0.139D+00 0.952D+00
 Gap=     0.289 Goal=   None    Shift=    0.000
 Gap=     0.246 Goal=   None    Shift=    0.000
 RMSDP=1.81D-07 MaxDP=6.93D-06 DE=-2.05D-08 OVMax= 2.25D-05

 Cycle  14  Pass 1  IDiag  1:
 E= -154.045211472503     Delta-E=       -0.000000000437 Rises=F Damp=F
 DIIS: error= 1.42D-06 at cycle   7 NSaved=   7.
 NSaved= 7 IEnMin= 7 EnMin= -154.045211472503     IErMin= 7 ErrMin= 1.42D-06
 ErrMax= 1.42D-06  0.00D+00 EMaxC= 1.00D-01 BMatC= 2.42D-10 BMatP= 4.07D-10
 IDIUse=1 WtCom= 1.00D+00 WtEn= 0.00D+00
 Coeff-Com: -0.642D-02 0.751D-01 0.126D+00-0.120D+00-0.347D+00 0.510D+00
 Coeff-Com:  0.763D+00
 Coeff:     -0.642D-02 0.751D-01 0.126D+00-0.120D+00-0.347D+00 0.510D+00
 Coeff:      0.763D+00
 Gap=     0.289 Goal=   None    Shift=    0.000
 Gap=     0.246 Goal=   None    Shift=    0.000
 RMSDP=9.63D-08 MaxDP=2.97D-06 DE=-4.37D-10 OVMax= 1.29D-05

 Cycle  15  Pass 1  IDiag  1:
 E= -154.045211472681     Delta-E=       -0.000000000178 Rises=F Damp=F
 DIIS: error= 7.59D-07 at cycle   8 NSaved=   8.
 NSaved= 8 IEnMin= 8 EnMin= -154.045211472681     IErMin= 8 ErrMin= 7.59D-07
 ErrMax= 7.59D-07  0.00D+00 EMaxC= 1.00D-01 BMatC= 2.84D-11 BMatP= 2.42D-10
 IDIUse=1 WtCom= 1.00D+00 WtEn= 0.00D+00
 Coeff-Com: -0.157D-02 0.696D-02 0.136D-01-0.435D-03-0.331D-01-0.152D+00
 Coeff-Com:  0.497D-01 0.112D+01
 Coeff:     -0.157D-02 0.696D-02 0.136D-01-0.435D-03-0.331D-01-0.152D+00
 Coeff:      0.497D-01 0.112D+01
 Gap=     0.289 Goal=   None    Shift=    0.000
 Gap=     0.246 Goal=   None    Shift=    0.000
 RMSDP=4.72D-08 MaxDP=1.72D-06 DE=-1.78D-10 OVMax= 8.56D-06

 Cycle  16  Pass 1  IDiag  1:
 E= -154.045211472730     Delta-E=       -0.000000000049 Rises=F Damp=F
 DIIS: error= 3.34D-07 at cycle   9 NSaved=   9.
 NSaved= 9 IEnMin= 9 EnMin= -154.045211472730     IErMin= 9 ErrMin= 3.34D-07
 ErrMax= 3.34D-07  0.00D+00 EMaxC= 1.00D-01 BMatC= 8.90D-12 BMatP= 2.84D-11
 IDIUse=1 WtCom= 1.00D+00 WtEn= 0.00D+00
 Coeff-Com:  0.137D-02-0.199D-01-0.327D-01 0.331D-01 0.926D-01-0.169D+00
 Coeff-Com: -0.231D+00 0.182D+00 0.114D+01
 Coeff:      0.137D-02-0.199D-01-0.327D-01 0.331D-01 0.926D-01-0.169D+00
 Coeff:     -0.231D+00 0.182D+00 0.114D+01
 Gap=     0.289 Goal=   None    Shift=    0.000
 Gap=     0.246 Goal=   None    Shift=    0.000
 RMSDP=3.41D-08 MaxDP=1.11D-06 DE=-4.91D-11 OVMax= 5.32D-06

 Cycle  17  Pass 1  IDiag  1:
 E= -154.045211472748     Delta-E=       -0.000000000018 Rises=F Damp=F
 DIIS: error= 1.36D-07 at cycle  10 NSaved=  10.
 NSaved=10 IEnMin=10 EnMin= -154.045211472748     IErMin=10 ErrMin= 1.36D-07
 ErrMax= 1.36D-07  0.00D+00 EMaxC= 1.00D-01 BMatC= 1.65D-12 BMatP= 8.90D-12
 IDIUse=1 WtCom= 1.00D+00 WtEn= 0.00D+00
 Coeff-Com:  0.381D-03-0.430D-03-0.148D-02-0.333D-02 0.270D-02 0.630D-01
 Coeff-Com:  0.638D-02-0.320D+00-0.153D+00 0.141D+01
 Coeff:      0.381D-03-0.430D-03-0.148D-02-0.333D-02 0.270D-02 0.630D-01
 Coeff:      0.638D-02-0.320D+00-0.153D+00 0.141D+01
 Gap=     0.289 Goal=   None    Shift=    0.000
 Gap=     0.246 Goal=   None    Shift=    0.000
 RMSDP=1.82D-08 MaxDP=6.61D-07 DE=-1.84D-11 OVMax= 3.06D-06

 Cycle  18  Pass 1  IDiag  1:
 E= -154.045211472753     Delta-E=       -0.000000000004 Rises=F Damp=F
 DIIS: error= 2.86D-08 at cycle  11 NSaved=  11.
 NSaved=11 IEnMin=11 EnMin= -154.045211472753     IErMin=11 ErrMin= 2.86D-08
 ErrMax= 2.86D-08  0.00D+00 EMaxC= 1.00D-01 BMatC= 1.80D-13 BMatP= 1.65D-12
 IDIUse=1 WtCom= 1.00D+00 WtEn= 0.00D+00
 Coeff-Com: -0.212D-03 0.305D-02 0.517D-02-0.557D-02-0.146D-01 0.328D-01
 Coeff-Com:  0.429D-01-0.781D-01-0.166D+00 0.120D+00 0.106D+01
 Coeff:     -0.212D-03 0.305D-02 0.517D-02-0.557D-02-0.146D-01 0.328D-01
 Coeff:      0.429D-01-0.781D-01-0.166D+00 0.120D+00 0.106D+01
 Gap=     0.289 Goal=   None    Shift=    0.000
 Gap=     0.246 Goal=   None    Shift=    0.000
 RMSDP=4.92D-09 MaxDP=1.52D-07 DE=-4.49D-12 OVMax= 7.74D-07

 SCF Done:  E(UM062X) =  -154.045211473     A.U. after   18 cycles
            NFock= 18  Conv=0.49D-08     -V/T= 2.0061
 <Sx>= 0.0000 <Sy>= 0.0000 <Sz>= 0.5000 <S**2>= 0.7779 S= 0.5139
 <L.S>= 0.000000000000E+00
 KE= 1.531139202556D+02 PE=-5.228717223461D+02 EE= 1.327304805624D+02
 Annihilation of the first spin contaminant:
 S**2 before annihilation     0.7779,   after     0.7505
 Leave Link  502 at Fri Sep 25 23:33:19 2020, MaxMem=   268435456 cpu:             153.5 elap:              23.2
 (Enter /applis/site/cecic/gaussian16/B.01/nehalem/g16/l701.exe)
 ... and contract with generalized density number  0.
 Compute integral first derivatives.
 Leave Link  701 at Fri Sep 25 23:33:19 2020, MaxMem=   268435456 cpu:               1.2 elap:               0.2
 (Enter /applis/site/cecic/gaussian16/B.01/nehalem/g16/l702.exe)
 L702 exits ... SP integral derivatives will be done elsewhere.
 Leave Link  702 at Fri Sep 25 23:33:19 2020, MaxMem=   268435456 cpu:               0.5 elap:               0.1
 (Enter /applis/site/cecic/gaussian16/B.01/nehalem/g16/l703.exe)
 Integral derivatives from FoFJK, PRISM(SPDF).
 Compute integral first derivatives, UseDBF=F ICtDFT=           0.
 Calling FoFJK, ICntrl=      2127 FMM=F ISym2X=0 I1Cent= 0 IOpClX= 1 NMat=1 NMatS=1 NMatT=0.
 FoFJK:  IHMeth= 1 ICntrl=    2127 DoSepK=F KAlg= 0 I1Cent=           0 FoldK=F
 IRaf=         0 NMat=       1 IRICut=       1 DoRegI=T DoRafI=F ISym2E= 0 IDoP0=0 IntGTp=1.
 FoFCou: FMM=F IPFlag=           0 FMFlag=      100000 FMFlg1=         800
         NFxFlg=           0 DoJE=F BraDBF=F KetDBF=F FulRan=T
         wScrn=  0.000000 ICntrl=      2127 IOpCl=  1 I1Cent=           0 NGrid=           0
         NMat0=    1 NMatS0=      1 NMatT0=    0 NMatD0=    1 NMtDS0=    0 NMtDT0=    0
 Symmetry not used in FoFCou.
 Leave Link  703 at Fri Sep 25 23:33:22 2020, MaxMem=   268435456 cpu:              21.1 elap:               2.7
 (Enter /applis/site/cecic/gaussian16/B.01/nehalem/g16/l716.exe)
 Dipole        = 3.02859719D-01 4.09960200D-10-3.10045566D-02
 -------------------------------------------------------------------
 Center     Atomic                   Forces (Hartrees/Bohr)
 Number     Number              X              Y              Z
 -------------------------------------------------------------------
      1        6          -0.015212237   -0.000000000    0.003342630
      2        6          -0.018828001   -0.000000000   -0.016763319
      3        6           0.003800791   -0.000000000    0.005980625
      4        1           0.001637512    0.000000000   -0.001059623
      5        1           0.001446059   -0.000000000   -0.000101869
      6        1          -0.000717634    0.000000000    0.000081126
      7        6           0.027873509    0.000000000    0.008520429
 -------------------------------------------------------------------
 Cartesian Forces:  Max     0.027873509 RMS     0.009217631
 Leave Link  716 at Fri Sep 25 23:33:22 2020, MaxMem=   268435456 cpu:               0.5 elap:               0.1
 (Enter /applis/site/cecic/gaussian16/B.01/nehalem/g16/l103.exe)

 GradGradGradGradGradGradGradGradGradGradGradGradGradGradGradGradGradGrad
 Berny optimization.
 Using GEDIIS/GDIIS optimizer.
 FormGI is forming the generalized inverse of G from B-inverse, IUseBI=4.
 Internal  Forces:  Max     0.025048629 RMS     0.007661570
 Search for a local minimum.
 Step number   2 out of a maximum of  100
 All quantities printed in internal units (Hartrees-Bohrs-Radians)
 RMS Force = .76616D-02 SwitMx=.10000D-02 MixMth= 1
 Mixed Optimization -- RFO/linear search
 Update second derivatives using D2CorX and points    1    2
 DE= -8.98D-03 DEPred=-6.47D-03 R= 1.39D+00
 TightC=F SS=  1.41D+00  RLast= 2.28D-01 DXNew= 5.0454D-01 6.8510D-01
 Trust test= 1.39D+00 RLast= 2.28D-01 DXMaxT set to 5.05D-01
 The second derivative matrix:
                          R1        R2        R3        R4        R5
           R1           0.35456
           R2          -0.00027   0.35473
           R3           0.00313  -0.00106   0.58225
           R4           0.00663  -0.00066   0.01101   1.03957
           R5           0.00265  -0.00170  -0.01945   0.01156   0.35141
           R6          -0.00170   0.00028  -0.00097  -0.00517   0.00077
           A1           0.00016  -0.00013  -0.00157   0.00076  -0.00341
           A2           0.00213  -0.00034   0.00146   0.00642  -0.00045
           A3          -0.00229   0.00046   0.00011  -0.00719   0.00386
           A4          -0.00633   0.00292   0.02759  -0.02444   0.06542
           A5          -0.00139   0.00015  -0.00205  -0.00400  -0.00190
           A6           0.00148  -0.00011   0.00310   0.00411   0.00386
           A7           0.00000  -0.00000   0.00000   0.00000   0.00000
           A8          -0.00000   0.00000  -0.00000  -0.00000  -0.00000
           D1           0.00000  -0.00000   0.00000   0.00000   0.00000
           D2          -0.00000   0.00000  -0.00000  -0.00000  -0.00000
           D3          -0.00000   0.00000  -0.00000  -0.00000  -0.00000
                          R6        A1        A2        A3        A4
           R6           0.38858
           A1           0.00009   0.15973
           A2          -0.00142  -0.00008   0.16180
           A3           0.00132   0.00035  -0.00173   0.16138
           A4           0.00040   0.00521  -0.00131  -0.00390   0.15323
           A5           0.00105  -0.00012  -0.00131   0.00143   0.00430
           A6          -0.00123   0.00027   0.00152  -0.00178  -0.00747
           A7          -0.00000   0.00000   0.00000  -0.00000  -0.00000
           A8           0.00000  -0.00000  -0.00000   0.00000   0.00000
           D1          -0.00000   0.00000   0.00000  -0.00000  -0.00000
           D2           0.00000  -0.00000  -0.00000   0.00000   0.00000
           D3           0.00000  -0.00000  -0.00000   0.00000   0.00000
                          A5        A6        A7        A8        D1
           A5           0.01632
           A6          -0.00089   0.00740
           A7          -0.00000   0.00000   0.01548
           A8           0.00000  -0.00000  -0.00000   0.00654
           D1          -0.00000   0.00000   0.00000  -0.00000   0.00310
           D2           0.00000  -0.00000  -0.00000   0.00000  -0.00000
           D3           0.00000  -0.00000  -0.00000   0.00000  -0.00000
                          D2        D3
           D2           0.02983
           D3           0.00000   0.02983
 ITU=  1  0
 Use linear search instead of GDIIS.
     Eigenvalues ---    0.00654   0.00672   0.01217   0.01548   0.01610
     Eigenvalues ---    0.02983   0.12895   0.16135   0.16344   0.35436
     Eigenvalues ---    0.35498   0.37061   0.38868   0.58494   1.04086
 RFO step:  Lambda=-1.55270979D-03 EMin= 6.54028044D-03
 Quartic linear search produced a step of  1.31586.
 Iteration  1 RMS(Cart)=  0.22592666 RMS(Int)=  0.03604308
 Iteration  2 RMS(Cart)=  0.08510443 RMS(Int)=  0.00302259
 Iteration  3 RMS(Cart)=  0.00498610 RMS(Int)=  0.00000288
 Iteration  4 RMS(Cart)=  0.00000463 RMS(Int)=  0.00000000
 Iteration  5 RMS(Cart)=  0.00000000 RMS(Int)=  0.00000001
 ITry= 1 IFail=0 DXMaxC= 6.18D-01 DCOld= 1.00D+10 DXMaxT= 5.05D-01 DXLimC= 3.00D+00 Rises=F
 Variable       Old X    -DE/DX   Delta X   Delta X   Delta X     New X
                                 (Linear)    (Quad)   (Total)
    R1        2.04642   0.00176  -0.00875   0.01865   0.00990   2.05632
    R2        2.04774  -0.00076  -0.00182  -0.00349  -0.00530   2.04244
    R3        2.49080  -0.00665  -0.03557   0.00390  -0.03168   2.45912
    R4        2.27365   0.00676  -0.00601   0.02050   0.01449   2.28813
    R5        2.65130  -0.01648  -0.09417  -0.01894  -0.11311   2.53818
    R6        2.00833  -0.00022   0.01108  -0.01038   0.00069   2.00902
    A1        2.06724  -0.00141  -0.01765  -0.00733  -0.02498   2.04226
    A2        2.09174   0.00031  -0.03123   0.02729  -0.00394   2.08780
    A3        2.12420   0.00111   0.04888  -0.01995   0.02892   2.15312
    A4        2.30047   0.02505   0.24523   0.03775   0.28298   2.58345
    A5        3.22417  -0.00023   0.10750   0.02740   0.13490   3.35906
    A6        3.09019   0.00138  -0.06754   0.25277   0.18524   3.27542
    A7        3.14159   0.00000   0.00000   0.00000   0.00000   3.14159
    A8        3.14159  -0.00000   0.00000  -0.00000  -0.00000   3.14159
    D1        3.14159   0.00000   0.00000   0.00000   0.00000   3.14159
    D2        0.00000  -0.00000   0.00000  -0.00000  -0.00000  -0.00000
    D3        3.14159  -0.00000   0.00000  -0.00000  -0.00000   3.14159
         Item               Value     Threshold  Converged?
 Maximum Force            0.025049     0.000450     NO 
 RMS     Force            0.007662     0.000300     NO 
 Maximum Displacement     0.618110     0.001800     NO 
 RMS     Displacement     0.299093     0.001200     NO 
 Predicted change in Energy=-3.341016D-03
 Lowest energy point so far.  Saving SCF results.
 GradGradGradGradGradGradGradGradGradGradGradGradGradGradGradGradGradGrad

 Leave Link  103 at Fri Sep 25 23:33:22 2020, MaxMem=   268435456 cpu:               1.0 elap:               0.2
 (Enter /applis/site/cecic/gaussian16/B.01/nehalem/g16/l202.exe)
                          Input orientation:                          
 ---------------------------------------------------------------------
 Center     Atomic      Atomic             Coordinates (Angstroms)
 Number     Number       Type             X           Y           Z
 ---------------------------------------------------------------------
      1          6           0       -0.013976    0.000000   -0.094670
      2          6           0        0.335703   -0.000000    2.423343
      3          6           0        0.570385   -0.000000    3.611211
      4          1           0        0.999997   -0.000000   -0.489574
      5          1           0       -0.820852   -0.000000   -0.813771
      6          1           0        0.635433    0.000000    4.672349
      7          6           0       -0.202798    0.000000    1.192869
 ---------------------------------------------------------------------
                    Distance matrix (angstroms):
                    1          2          3          4          5
     1  C    0.000000
     2  C    2.542177   0.000000
     3  C    3.751671   1.210829   0.000000
     4  H    1.088160   2.987704   4.123227   0.000000
     5  H    1.080812   3.437518   4.638535   1.849486   0.000000
     6  H    4.811050   2.268891   1.063130   5.174781   5.676115
     7  C    1.301312   1.343149   2.538934   2.068172   2.099666
                    6          7
     6  H    0.000000
     7  C    3.579024   0.000000
[...]
 DE(Corr)= -0.60537605     E(CORR)=     -153.74430679     Delta=-4.73D-06
 NORM(A)=   0.11719212D+01
 Iteration Nr.  15
 **********************
 DD1Dir will call FoFJK   5 times, MxPair=        54
 NAB=    90 NAA=    45 NBB=    36 NumPrc=  8.
 DD1Dir:  Pass   1 NRAB=    27 NRAA=     0 NRBB=     0 NR=    54.
 DD1Dir:  Pass   2 NRAB=    27 NRAA=     0 NRBB=     0 NR=    54.
 DD1Dir:  Pass   3 NRAB=    27 NRAA=     0 NRBB=     0 NR=    54.
 DD1Dir:  Pass   4 NRAB=     9 NRAA=    36 NRBB=     0 NR=    54.
 DD1Dir:  Pass   5 NRAB=     0 NRAA=     9 NRBB=    36 NR=    45.
 A-vector RMS=  3.4576183D-07 Max=  5.3102595D-06 conv= 1.00D-05.
 RLE energy=       -0.6053792656
 DE(Corr)= -0.60537842     E(CORR)=     -153.74430916     Delta=-2.37D-06
 NORM(A)=   0.11719283D+01
 Iteration Nr.  16
 **********************
 DD1Dir will call FoFJK   5 times, MxPair=        54
 NAB=    90 NAA=    45 NBB=    36 NumPrc=  8.
 DD1Dir:  Pass   1 NRAB=    27 NRAA=     0 NRBB=     0 NR=    54.
 DD1Dir:  Pass   2 NRAB=    27 NRAA=     0 NRBB=     0 NR=    54.
 DD1Dir:  Pass   3 NRAB=    27 NRAA=     0 NRBB=     0 NR=    54.
 DD1Dir:  Pass   4 NRAB=     9 NRAA=    36 NRBB=     0 NR=    54.
 DD1Dir:  Pass   5 NRAB=     0 NRAA=     9 NRBB=    36 NR=    45.
 A-vector RMS=  2.1212812D-07 Max=  2.8947368D-06 conv= 1.00D-05.
 RLE energy=       -0.6053795492
 DE(Corr)= -0.60537944     E(CORR)=     -153.74431018     Delta=-1.02D-06
 NORM(A)=   0.11719301D+01
 Iteration Nr.  17
 **********************
 DD1Dir will call FoFJK   5 times, MxPair=        54
 NAB=    90 NAA=    45 NBB=    36 NumPrc=  8.
 DD1Dir:  Pass   1 NRAB=    27 NRAA=     0 NRBB=     0 NR=    54.
 DD1Dir:  Pass   2 NRAB=    27 NRAA=     0 NRBB=     0 NR=    54.
 DD1Dir:  Pass   3 NRAB=    27 NRAA=     0 NRBB=     0 NR=    54.
 DD1Dir:  Pass   4 NRAB=     9 NRAA=    36 NRBB=     0 NR=    54.
 DD1Dir:  Pass   5 NRAB=     0 NRAA=     9 NRBB=    36 NR=    45.
 A-vector RMS=  1.0000781D-07 Max=  1.3698575D-06 conv= 1.00D-05.
 RLE energy=       -0.6053795721
 DE(Corr)= -0.60537952     E(CORR)=     -153.74431026     Delta=-8.09D-08
 NORM(A)=   0.11719310D+01
 CI/CC converged in   17 iterations to DelEn=-8.09D-08 Conv= 1.00D-07 ErrA1= 1.00D-07 Conv= 1.00D-05
 Wavefunction amplitudes converged. E(Corr)=     -153.74431026    
 Dominant configurations:
 ***********************
 Spin Case        I    J    A    B          Value
    AA           13        18           -0.112512D+00
    AA           13        24            0.118346D+00
    AA           13        27           -0.100293D+00
    BB           13        24            0.110110D+00
    BB           13        27           -0.104022D+00
 Largest amplitude= 1.18D-01
 Time for triples=    12916.86 seconds.
 T4(CCSD)= -0.35445962D-01
 T5(CCSD)=  0.18586025D-02
 CCSD(T)= -0.15377789762D+03

 S**2, projected HF & approx projected MPn energies after annihilation of
 unwanted spin states (see manual for definitions):

 spins       (S**2,0) (S**2,1)    PUHF        PMP2        PMP3        PMP4
 annihilated
 s+1         0.56011  0.67561 -153.183316 -153.729718 -153.754185
 s+1,s+2     0.76382  0.74967 -153.171899 -153.719022 -153.744522
 s+1 to s+3  0.74965  0.75021 -153.172711 -153.719663 -153.744895
 s+1 to s+4  0.75000  0.75000 -153.172689 -153.719642 -153.744875
 s+1 to s+5  0.75000  0.75000 -153.172689
 s+1 to s+6  0.75000  0.75000 -153.172689

 Discarding MO integrals.
 Leave Link  913 at Sat Sep 26 00:28:38 2020, MaxMem=   327680000 cpu:           22063.9 elap:            2822.9
 (Enter /applis/site/cecic/gaussian16/B.01/nehalem/g16/l601.exe)
 Copying SCF densities to generalized density rwf, IOpCl= 1 IROHF=0.

 **********************************************************************

            Population analysis using the SCF Density.

 **********************************************************************

 Orbital symmetries:
 Alpha Orbitals:
       Occupied  (A) (A) (A) (A) (A) (A) (A) (A) (A) (A) (A) (A)
                 (A) (A)
       Virtual   (A) (A) (A) (A) (A) (A) (A) (A) (A) (A) (A) (A)
                 (A) (A) (A) (A) (A) (A) (A) (A) (A) (A) (A) (A)
                 (A) (A) (A) (A) (A) (A) (A) (A) (A) (A) (A) (A)
                 (A) (A) (A) (A) (A) (A) (A) (A) (A) (A) (A) (A)
                 (A) (A) (A) (A) (A) (A) (A) (A) (A) (A) (A) (A)
                 (A) (A) (A) (A) (A) (A) (A) (A) (A) (A) (A) (A)
                 (A) (A) (A) (A) (A) (A) (A) (A) (A) (A) (A) (A)
                 (A) (A) (A) (A) (A) (A) (A) (A) (A) (A) (A) (A)
                 (A) (A) (A) (A) (A) (A) (A) (A) (A) (A) (A) (A)
                 (A) (A) (A) (A) (A) (A) (A) (A) (A) (A) (A) (A)
                 (A) (A) (A) (A) (A) (A) (A) (A) (A) (A) (A) (A)
                 (A) (A) (A) (A) (A) (A) (A) (A) (A) (A) (A) (A)
                 (A) (A) (A) (A) (A) (A) (A) (A) (A) (A) (A) (A)
                 (A) (A) (A) (A) (A) (A) (A) (A) (A) (A) (A) (A)
                 (A) (A) (A) (A) (A) (A) (A) (A) (A) (A) (A) (A)
                 (A) (A) (A) (A) (A) (A) (A) (A) (A) (A) (A) (A)
                 (A) (A) (A) (A) (A) (A) (A) (A) (A) (A) (A) (A)
                 (A) (A) (A) (A) (A) (A) (A) (A) (A) (A) (A) (A)
                 (A) (A) (A) (A) (A) (A) (A) (A) (A) (A) (A) (A)
                 (A) (A) (A) (A) (A) (A) (A) (A) (A) (A) (A)
 Beta  Orbitals:
       Occupied  (A) (A) (A) (A) (A) (A) (A) (A) (A) (A) (A) (A)
                 (A)
       Virtual   (A) (A) (A) (A) (A) (A) (A) (A) (A) (A) (A) (A)
                 (A) (A) (A) (A) (A) (A) (A) (A) (A) (A) (A) (A)
                 (A) (A) (A) (A) (A) (A) (A) (A) (A) (A) (A) (A)
                 (A) (A) (A) (A) (A) (A) (A) (A) (A) (A) (A) (A)
                 (A) (A) (A) (A) (A) (A) (A) (A) (A) (A) (A) (A)
                 (A) (A) (A) (A) (A) (A) (A) (A) (A) (A) (A) (A)
                 (A) (A) (A) (A) (A) (A) (A) (A) (A) (A) (A) (A)
                 (A) (A) (A) (A) (A) (A) (A) (A) (A) (A) (A) (A)
                 (A) (A) (A) (A) (A) (A) (A) (A) (A) (A) (A) (A)
                 (A) (A) (A) (A) (A) (A) (A) (A) (A) (A) (A) (A)
                 (A) (A) (A) (A) (A) (A) (A) (A) (A) (A) (A) (A)
                 (A) (A) (A) (A) (A) (A) (A) (A) (A) (A) (A) (A)
                 (A) (A) (A) (A) (A) (A) (A) (A) (A) (A) (A) (A)
                 (A) (A) (A) (A) (A) (A) (A) (A) (A) (A) (A) (A)
                 (A) (A) (A) (A) (A) (A) (A) (A) (A) (A) (A) (A)
                 (A) (A) (A) (A) (A) (A) (A) (A) (A) (A) (A) (A)
                 (A) (A) (A) (A) (A) (A) (A) (A) (A) (A) (A) (A)
                 (A) (A) (A) (A) (A) (A) (A) (A) (A) (A) (A) (A)
                 (A) (A) (A) (A) (A) (A) (A) (A) (A) (A) (A) (A)
                 (A) (A) (A) (A) (A) (A) (A) (A) (A) (A) (A) (A)
 The electronic state is 2-A.
 Alpha  occ. eigenvalues --  -11.26688 -11.25645 -11.23931 -11.23598  -1.10174
 Alpha  occ. eigenvalues --   -1.03044  -0.87462  -0.72432  -0.66657  -0.63314
 Alpha  occ. eigenvalues --   -0.49656  -0.48497  -0.37776  -0.34296
 Alpha virt. eigenvalues --    0.02939   0.03241   0.04505   0.07201   0.07264
 Alpha virt. eigenvalues --    0.08489   0.09035   0.10435   0.11014   0.11701
 Alpha virt. eigenvalues --    0.12853   0.13511   0.14910   0.15635   0.16845
 Alpha virt. eigenvalues --    0.18074   0.18725   0.19744   0.20654   0.23916
 Alpha virt. eigenvalues --    0.24311   0.24415   0.25969   0.27259   0.29170
 Alpha virt. eigenvalues --    0.29522   0.31175   0.32236   0.33117   0.33628
 Alpha virt. eigenvalues --    0.35756   0.35864   0.36247   0.37584   0.38330
 Alpha virt. eigenvalues --    0.38437   0.39232   0.39502   0.41301   0.43291
 Alpha virt. eigenvalues --    0.43396   0.43609   0.45109   0.45641   0.46556
 Alpha virt. eigenvalues --    0.47442   0.49489   0.50619   0.53402   0.54179
 Alpha virt. eigenvalues --    0.57193   0.60082   0.61393   0.62485   0.62598
 Alpha virt. eigenvalues --    0.63814   0.67549   0.75205   0.77090   0.80739
 Alpha virt. eigenvalues --    0.82033   0.82664   0.83207   0.84907   0.85096
 Alpha virt. eigenvalues --    0.87505   0.88795   0.89123   0.89845   0.92340
 Alpha virt. eigenvalues --    0.92997   0.93874   0.94673   0.96009   0.96609
 Alpha virt. eigenvalues --    0.96703   0.98690   1.00088   1.00256   1.03046
 Alpha virt. eigenvalues --    1.03293   1.03902   1.05314   1.05982   1.06400
 Alpha virt. eigenvalues --    1.07646   1.08464   1.10375   1.10744   1.10746
 Alpha virt. eigenvalues --    1.11208   1.14526   1.17928   1.18657   1.18764
 Alpha virt. eigenvalues --    1.22497   1.22828   1.24068   1.26826   1.28729
 Alpha virt. eigenvalues --    1.29012   1.33663   1.36532   1.40578   1.41743
 Alpha virt. eigenvalues --    1.45524   1.47906   1.52286   1.53792   1.54665
 Alpha virt. eigenvalues --    1.55645   1.57274   1.60608   1.61439   1.66170
 Alpha virt. eigenvalues --    1.67751   1.71277   1.71342   1.74268   1.76340
 Alpha virt. eigenvalues --    1.77604   1.78208   1.83229   1.83342   1.87022
 Alpha virt. eigenvalues --    1.92124   1.92768   1.93847   1.95951   2.02763
 Alpha virt. eigenvalues --    2.03750   2.04080   2.09246   2.14693   2.15707
 Alpha virt. eigenvalues --    2.21820   2.22870   2.25677   2.30248   2.36479
 Alpha virt. eigenvalues --    2.46825   2.51198   2.51781   2.52848   2.64080
 Alpha virt. eigenvalues --    2.65902   2.70604   2.91285   2.97661   3.07804
 Alpha virt. eigenvalues --    3.11642   3.12262   3.20069   3.20631   3.21706
 Alpha virt. eigenvalues --    3.24660   3.28563   3.30665   3.30847   3.31198
 Alpha virt. eigenvalues --    3.31282   3.32327   3.34967   3.37805   3.40199
 Alpha virt. eigenvalues --    3.42702   3.43563   3.44048   3.48491   3.50846
 Alpha virt. eigenvalues --    3.51735   3.53063   3.54684   3.60302   3.63427
 Alpha virt. eigenvalues --    3.64070   3.70302   3.70752   3.73051   3.75543
 Alpha virt. eigenvalues --    3.79474   3.80237   3.80333   3.81303   3.81569
 Alpha virt. eigenvalues --    3.83849   3.89229   3.96163   3.96593   3.97162
 Alpha virt. eigenvalues --    4.00594   4.02675   4.04515   4.15361   4.15797
 Alpha virt. eigenvalues --    4.21740   4.24808   4.27297   4.33403   4.34894
 Alpha virt. eigenvalues --    4.38553   4.41032   4.42799   4.51947   4.61751
 Alpha virt. eigenvalues --    4.64265   4.68834   4.71933   4.72628   4.80771
 Alpha virt. eigenvalues --    4.91430   4.91825   4.95591   4.96212   4.99452
 Alpha virt. eigenvalues --    5.09262   5.16576   5.29837   5.31305   5.36110
 Alpha virt. eigenvalues --    5.41967   5.46119   5.46277   5.77967   5.90076
 Alpha virt. eigenvalues --    6.00723   6.03230   6.15371   6.24482   6.51781
 Alpha virt. eigenvalues --    6.62700   6.88520   6.94897   7.08243   7.21346
 Alpha virt. eigenvalues --   15.86149  16.47595  18.49419  20.91404
  Beta  occ. eigenvalues --  -11.26036 -11.25692 -11.23506 -11.22790  -1.07727
  Beta  occ. eigenvalues --   -1.01716  -0.83859  -0.70386  -0.65974  -0.60265
  Beta  occ. eigenvalues --   -0.48461  -0.43625  -0.37784
  Beta virt. eigenvalues --    0.02979   0.03242   0.04480   0.07284   0.07411
  Beta virt. eigenvalues --    0.07694   0.09011   0.09788   0.10484   0.11092
  Beta virt. eigenvalues --    0.11797   0.13619   0.13952   0.15307   0.15856
  Beta virt. eigenvalues --    0.16889   0.18594   0.18727   0.19659   0.20799
  Beta virt. eigenvalues --    0.24269   0.24670   0.25246   0.26206   0.27741
  Beta virt. eigenvalues --    0.29615   0.29946   0.31794   0.32895   0.34005
  Beta virt. eigenvalues --    0.35973   0.36142   0.36728   0.37405   0.38160
  Beta virt. eigenvalues --    0.38404   0.38613   0.40275   0.40861   0.41586
  Beta virt. eigenvalues --    0.42789   0.43848   0.44100   0.45492   0.45932
  Beta virt. eigenvalues --    0.47440   0.47510   0.48822   0.50083   0.53518
  Beta virt. eigenvalues --    0.55440   0.57523   0.61353   0.61893   0.62496
  Beta virt. eigenvalues --    0.64130   0.64898   0.67423   0.75130   0.80185
  Beta virt. eigenvalues --    0.80593   0.82854   0.83518   0.83652   0.84852
  Beta virt. eigenvalues --    0.87651   0.87691   0.89310   0.90487   0.90608
  Beta virt. eigenvalues --    0.91126   0.93250   0.94322   0.94956   0.95008
  Beta virt. eigenvalues --    0.97317   0.99009   0.99123   1.00433   1.01468
  Beta virt. eigenvalues --    1.03432   1.03640   1.04938   1.05813   1.06604
  Beta virt. eigenvalues --    1.07073   1.09099   1.09224   1.10032   1.10803
  Beta virt. eigenvalues --    1.11916   1.13378   1.14666   1.18495   1.18719
  Beta virt. eigenvalues --    1.19534   1.22328   1.23707   1.23760   1.28635
  Beta virt. eigenvalues --    1.28909   1.30339   1.34731   1.36656   1.41528
  Beta virt. eigenvalues --    1.42120   1.45864   1.48744   1.52970   1.55277
  Beta virt. eigenvalues --    1.55285   1.56090   1.57336   1.60532   1.61285
  Beta virt. eigenvalues --    1.66597   1.69028   1.70873   1.71870   1.75753
  Beta virt. eigenvalues --    1.76245   1.77620   1.78517   1.83905   1.85311
  Beta virt. eigenvalues --    1.87395   1.92884   1.92946   1.95382   1.95481
  Beta virt. eigenvalues --    2.02586   2.03663   2.03903   2.09964   2.14679
  Beta virt. eigenvalues --    2.15496   2.22026   2.23473   2.27384   2.32200
  Beta virt. eigenvalues --    2.36833   2.46834   2.52061   2.52495   2.53811
  Beta virt. eigenvalues --    2.64761   2.66962   2.70558   2.92315   2.99152
  Beta virt. eigenvalues --    3.08048   3.12086   3.12173   3.19629   3.21418
  Beta virt. eigenvalues --    3.22006   3.25721   3.29287   3.30881   3.31137
  Beta virt. eigenvalues --    3.31334   3.31817   3.33051   3.35026   3.40191
  Beta virt. eigenvalues --    3.40791   3.44314   3.44642   3.45168   3.50930
  Beta virt. eigenvalues --    3.51751   3.53255   3.56104   3.58271   3.61390
  Beta virt. eigenvalues --    3.64973   3.65521   3.70291   3.71335   3.73553
  Beta virt. eigenvalues --    3.75639   3.79692   3.79704   3.81130   3.81585
  Beta virt. eigenvalues --    3.82612   3.84755   3.90131   3.96769   3.97229
  Beta virt. eigenvalues --    3.98254   4.00092   4.02988   4.04749   4.15417
  Beta virt. eigenvalues --    4.15673   4.23582   4.25563   4.28697   4.34546
  Beta virt. eigenvalues --    4.35818   4.38232   4.41529   4.43052   4.52290
  Beta virt. eigenvalues --    4.62156   4.65563   4.69648   4.72250   4.73604
  Beta virt. eigenvalues --    4.81072   4.91704   4.92381   4.95439   4.96786
  Beta virt. eigenvalues --    4.99614   5.09736   5.16263   5.30793   5.31696
  Beta virt. eigenvalues --    5.36275   5.41478   5.46295   5.46535   5.78253
  Beta virt. eigenvalues --    5.90884   6.00859   6.03383   6.15451   6.24801
  Beta virt. eigenvalues --    6.52155   6.62900   6.88869   6.95040   7.08435
  Beta virt. eigenvalues --    7.21950  15.85655  16.49168  18.48456  20.92352
          Condensed to atoms (all electrons):
               1          2          3          4          5          6
     1  C    6.775005  -0.422552   0.020158   0.388466   0.388136   0.004573
     2  C   -0.422552   6.282788  -1.342062  -0.028887  -0.028407  -0.112286
     3  C    0.020158  -1.342062   8.969142   0.018084   0.018018   0.475524
     4  H    0.388466  -0.028887   0.018084   0.368970  -0.014345   0.000905
     5  H    0.388136  -0.028407   0.018018  -0.014345   0.368478   0.000902
     6  H    0.004573  -0.112286   0.475524   0.000905   0.000902   0.304754
     7  C   -0.029281   0.364599  -0.491105  -0.034564  -0.034465  -0.002213
               7
     1  C   -0.029281
     2  C    0.364599
     3  C   -0.491105
     4  H   -0.034564
     5  H   -0.034465
     6  H   -0.002213
     7  C    5.652461
          Atomic-Atomic Spin Densities.
               1          2          3          4          5          6
     1  C   -1.100863   0.085902   0.010854   0.069540   0.069737   0.001628
     2  C    0.085902  -1.560800   0.145614  -0.004774  -0.004735   0.065014
     3  C    0.010854   0.145614   1.526899  -0.006942  -0.006944  -0.084814
     4  H    0.069540  -0.004774  -0.006942   0.120573  -0.042391  -0.000196
     5  H    0.069737  -0.004735  -0.006944  -0.042391   0.120305  -0.000196
     6  H    0.001628   0.065014  -0.084814  -0.000196  -0.000196  -0.101446
     7  C    0.002374  -0.070173  -0.175651  -0.040690  -0.040931  -0.006895
               7
     1  C    0.002374
     2  C   -0.070173
     3  C   -0.175651
     4  H   -0.040690
     5  H   -0.040931
     6  H   -0.006895
     7  C    2.064670
 Mulliken charges and spin densities:
               1          2
     1  C   -1.124506  -0.860828
     2  C    1.286806  -1.343951
     3  C   -1.667760   1.409016
     4  H    0.301370   0.095120
     5  H    0.301682   0.094843
     6  H    0.327840  -0.126905
     7  C    0.574567   1.732704
 Sum of Mulliken charges =  -0.00000   1.00000
 Mulliken charges and spin densities with hydrogens summed into heavy atoms:
               1          2
     1  C   -0.521453  -0.670865
     2  C    1.286806  -1.343951
     3  C   -1.339920   1.282112
     7  C    0.574567   1.732704
 Electronic spatial extent (au):  <R**2>=            308.4237
 Charge=             -0.0000 electrons
 Dipole moment (field-independent basis, Debye):
    X=             -0.0253    Y=              0.0014    Z=              0.0000  Tot=              0.0253
 Quadrupole moment (field-independent basis, Debye-Ang):
   XX=            -15.6661   YY=            -24.1384   ZZ=            -25.9989
   XY=              0.0016   XZ=             -0.0000   YZ=             -0.0000
 Traceless Quadrupole moment (field-independent basis, Debye-Ang):
   XX=              6.2684   YY=             -2.2040   ZZ=             -4.0644
   XY=              0.0016   XZ=             -0.0000   YZ=             -0.0000
 Octapole moment (field-independent basis, Debye-Ang**2):
  XXX=             12.6684  YYY=              0.0058  ZZZ=              0.0000  XYY=             -4.5718
  XXY=              0.0049  XXZ=              0.0000  XZZ=             -0.0926  YZZ=              0.0006
  YYZ=              0.0000  XYZ=              0.0000
 Hexadecapole moment (field-independent basis, Debye-Ang**3):
 XXXX=           -285.0856 YYYY=            -34.3739 ZZZZ=            -31.1450 XXXY=              0.0391
 XXXZ=             -0.0000 YYYX=             -0.0064 YYYZ=              0.0000 ZZZX=             -0.0000
 ZZZY=              0.0000 XXYY=            -66.7461 XXZZ=            -75.6684 YYZZ=            -11.3408
 XXYZ=             -0.0000 YYXZ=             -0.0000 ZZXY=              0.0002
 N-N= 8.288997703891D+01 E-N=-5.222940087855D+02  KE= 1.531460909810D+02
 Leave Link  601 at Sat Sep 26 00:28:39 2020, MaxMem=   327680000 cpu:               1.0 elap:               0.3
 (Enter /applis/site/cecic/gaussian16/B.01/nehalem/g16/l9999.exe)
 1\1\GINC-DAHU93\SP\UCCSD(T)-FC\Aug-CC-pVTZ\C4H3(2)\TINACCIL\26-Sep-202
 0\0\\#P CCSD(T)/aug-cc-pvtz geom=allcheck guess=read\\Title\\0,2\C,0,0
 .0484024976,-0.0000000282,-0.1398617417\C,0,0.3130303631,-0.0000000069
 ,2.4713918373\C,0,0.4367055024,0.0000000025,3.6876704203\H,0,0.9118318
 922,0.0000000258,-0.8000312223\H,0,-0.9290977389,0.000000015,-0.614920
 321\H,0,0.5444479598,0.0000000094,4.7444111486\C,0,0.1785702541,-0.000
 0000176,1.1530972778\\Version=ES64L-G16RevB.01\State=2-A\HF=-153.13893
 07\MP2=-153.6891776\MP3=-153.7200756\MP4D=-153.7329617\MP4DQ=-153.7177
 201\PUHF=-153.183316\PMP2-0=-153.7297183\PMP3-0=-153.7541853\MP4SDQ=-1
 53.7284573\CCSD=-153.7443103\CCSD(T)=-153.7778976\S2=1.376449\S2-1=1.2
 3503\S2A=1.083127\RMSD=5.377e-09\PG=C01 [X(C4H3)]\\@


 ASKING FOR EFFICIENCY AND ADAPTABILITY IN THE SAME PROGRAM IS LIKE
 ASKING FOR A BEAUTIFUL AND MODEST WIFE ...
 WE'LL PROBABLY HAVE TO SETTLE FOR ONE OR THE OTHER.

             -- THE PSYCHOLOGY OF COMPUTER PROGRAMMING
                GERALD M. WEINBERG
 Job cpu time:       0 days  6 hours 24 minutes 27.8 seconds.
 Elapsed time:       0 days  0 hours 49 minutes 10.3 seconds.
 File lengths (MBytes):  RWF=  13063 Int=      0 D2E=      0 Chk=      8 Scr=      1
 Normal termination of Gaussian 16 at Sat Sep 26 00:28:39 2020.
