5
 energy: -7.912286812413 gnorm: 0.259430539270 xtb: 6.2.2 (9d81278992624c895f80dd42a50cac0aa55982e2)
C         0.72563500000000   -0.21198300000000    0.68928800000000
N        -0.67424400000000   -0.06784500000000    0.31014100000000
C         1.64329600000000    0.09001200000000   -0.48543300000000
H        -0.86975600000000   -0.71965200000000   -0.48391400000000
H        -0.82493100000000    0.90946800000000   -0.03008200000000
5
 energy: -7.985961998268 gnorm: 0.152978481731 xtb: 6.2.2 (9d81278992624c895f80dd42a50cac0aa55982e2)
C         0.74262180549829   -0.17210412020845    0.54445554785934
N        -0.64292561502922   -0.06442696632413    0.29477744337032
C         1.65570812110130    0.06042470427587   -0.38044845368186
H        -0.89993557867036   -0.71999794780480   -0.45449497917160
H        -0.85546873290002    0.89610433006151   -0.00428955837620
5
 energy: -7.988397808359 gnorm: 0.370477135894 xtb: 6.2.2 (9d81278992624c895f80dd42a50cac0aa55982e2)
C         0.76263983249457   -0.12189412148637    0.36223749218077
N        -0.61691041476284   -0.06303214157483    0.28720075104186
C         1.68351836005888    0.02439610160654   -0.25386217330138
H        -0.93666768906729   -0.72089454008379   -0.42097083550489
H        -0.89258008872332    0.88142470153845    0.02539476558364
5
 energy: -8.015459845643 gnorm: 0.090328671266 xtb: 6.2.2 (9d81278992624c895f80dd42a50cac0aa55982e2)
C         0.71955092933168   -0.09641146965967    0.27501735124024
N        -0.64903745380715   -0.06298356881509    0.29019979518146
C         1.87902306610559    0.01532347695207   -0.24060400873574
H        -0.99696779845441   -0.73477787737834   -0.38706436164436
H        -0.95256874317571    0.87884943890102    0.06245122395840
5
 energy: -8.019843266940 gnorm: 0.045206884977 xtb: 6.2.2 (9d81278992624c895f80dd42a50cac0aa55982e2)
C         0.74066653883363   -0.09998204147727    0.28574885440535
N        -0.60793351403390   -0.05443724807428    0.25546097520800
C         1.87257221939446    0.01170964058607   -0.22699318269884
H        -1.02522318569209   -0.74893117878575   -0.38561910615218
H        -0.98008205850210    0.89164082775123    0.07140245923767
5
 energy: -8.021895043667 gnorm: 0.022313069406 xtb: 6.2.2 (9d81278992624c895f80dd42a50cac0aa55982e2)
C         0.74697963657102   -0.08928341202350    0.24672214917407
N        -0.59208203880842   -0.04793862688018    0.23056671677607
C         1.89277191486459    0.00264743998830   -0.19646015419564
H        -1.04631377512470   -0.74969049195677   -0.36800394557102
H        -1.00135573750249    0.88426509087215    0.08717523381651
5
 energy: -8.022766032725 gnorm: 0.010506681195 xtb: 6.2.2 (9d81278992624c895f80dd42a50cac0aa55982e2)
C         0.74353301360977   -0.08011856614093    0.21415219564081
N        -0.58891496540412   -0.04189022741289    0.20854361555320
C         1.90593252825370   -0.00336726913048   -0.17615461372966
H        -1.05271179929522   -0.75263876057186   -0.35039810261985
H        -1.00783877716412    0.87801482325616    0.10385690515551
5
 energy: -8.023004853415 gnorm: 0.012710263364 xtb: 6.2.2 (9d81278992624c895f80dd42a50cac0aa55982e2)
C         0.74836408811642   -0.07076566800141    0.18015159304293
N        -0.58270471853250   -0.03432250094218    0.18075604988725
C         1.93771163880543   -0.01087275980773   -0.15241787306374
H        -1.07428104839811   -0.76363161784705   -0.33313326493902
H        -1.02908995999124    0.87959254659836    0.12464349507259
5
 energy: -8.023248976184 gnorm: 0.009357308772 xtb: 6.2.2 (9d81278992624c895f80dd42a50cac0aa55982e2)
C         0.74642619689988   -0.07090611578528    0.18071381021099
N        -0.58057099912322   -0.02874581628625    0.16054672352678
C         1.92943924879249   -0.01103216209114   -0.15085296628499
H        -1.07036268432549   -0.76930241261698   -0.32491072053708
H        -1.02493176224366    0.87998650677965    0.13450315308430
5
 energy: -8.023320859681 gnorm: 0.006968082203 xtb: 6.2.2 (9d81278992624c895f80dd42a50cac0aa55982e2)
C         0.74736040346295   -0.07097447440781    0.18133881713624
N        -0.57934236320463   -0.02608314397025    0.15079412550364
C         1.93219943771455   -0.01145983162183   -0.15021366912229
H        -1.07274166144633   -0.77210680813914   -0.32123857919908
H        -1.02747581652655    0.88062425813904    0.13931930568150
5
 energy: -8.023387032298 gnorm: 0.002015021941 xtb: 6.2.2 (9d81278992624c895f80dd42a50cac0aa55982e2)
C         0.74881737152550   -0.07400049926677    0.18586191628698
N        -0.57659173757627   -0.02132224591530    0.13438649732128
C         1.93618879742738   -0.00913256256870   -0.15078367639631
H        -1.07860260459234   -0.77628643943389   -0.31439440045134
H        -1.02981182678426    0.88074174718465    0.14492966323939
5
 energy: -8.023233964207 gnorm: 0.015365727396 xtb: 6.2.2 (9d81278992624c895f80dd42a50cac0aa55982e2)
C         0.74990204638500   -0.06106047230318    0.19301763317282
N        -0.57487252830564   -0.02144427048687    0.12646591988397
C         1.93689448299310   -0.02712477212705   -0.15687218844095
H        -1.06564138605268   -0.77121349342917   -0.32081031324394
H        -1.04628261501977    0.88084300834627    0.15819894862810
5
 energy: -8.023374109043 gnorm: 0.004982621120 xtb: 6.2.2 (9d81278992624c895f80dd42a50cac0aa55982e2)
C         0.74936324481197   -0.06905324465980    0.18953060227838
N        -0.57543169162942   -0.02117694772061    0.13049381485037
C         1.93631553361202   -0.01626540864095   -0.15352000674094
H        -1.07358418443381   -0.77376959444491   -0.31671568077585
H        -1.03666290236076    0.88026519546627    0.15021127038805
5
 energy: -8.023390819185 gnorm: 0.000259305707 xtb: 6.2.2 (9d81278992624c895f80dd42a50cac0aa55982e2)
C         0.74919951251758   -0.07259420588410    0.18721784272206
N        -0.57547829308611   -0.02083148437793    0.13157694959411
C         1.93667119602050   -0.01128718550304   -0.15142265016939
H        -1.07786668577403   -0.77523023760136   -0.31435239728239
H        -1.03252572967795    0.87994311336643    0.14698025513561
5
 energy: -8.023390865028 gnorm: 0.000189618124 xtb: 6.2.2 (9d81278992624c895f80dd42a50cac0aa55982e2)
C         0.74915383120653   -0.07281541489997    0.18724424194170
N        -0.57570420520927   -0.02102185396232    0.13243855225692
C         1.93631578723740   -0.01104787074756   -0.15151474185074
H        -1.07764993800368   -0.77503285217817   -0.31458181227833
H        -1.03211547523098    0.87991799178802    0.14641375993045
