[Molden Format]
[Title]
[Atoms] AU
C      1     6  0.13677248474148E+01 -0.11497201515731E+01  0.21830382993032E+00
N      2     7  0.33735509792147E+01  0.95245817821137E-01 -0.24575417004503E+00
C      3     6 -0.92511958907241E+00  0.66140145885817E-01  0.43477975676714E-01
H      4     1 -0.25908844004289E+01 -0.10457452786593E+01  0.44386093382881E+00
H      5     1 -0.12252737268441E+01  0.20340813562613E+01 -0.45988856938752E+00
[GTO]
           1 0
 s           4   1.0000000000000000     
   51.049363095579913      -0.16312063210127389     
   8.7911227406887544      -0.19911024581000730     
  0.70640422258929825       0.31882047753655751     
  0.26922813413411617       0.12706504184240380     
 p           4   1.0000000000000000     
   5.8263656140800002       0.73716451545209605     
   1.5106896018720002       0.68216371614850257     
  0.53256483288000001       0.35783053929253711     
  0.21202323690600003        5.3983030275847881E-002

           2 0
 s           4   1.0000000000000000     
   63.594024466941008      -0.19234388414721629     
   10.951417231523665      -0.23478107924953728     
  0.87999310257376984       0.37593753901700888     
  0.33538715296521110       0.14982889271862770     
 p           4   1.0000000000000000     
   7.2965040481495080       0.97658666315667420     
   1.8918745450712575       0.90372226730345739     
  0.66694432110824120       0.47404958461536373     
  0.26552202674130870        7.1516067715011844E-002

           3 0
 s           4   1.0000000000000000     
   51.049363095579913      -0.16312063210127389     
   8.7911227406887544      -0.19911024581000730     
  0.70640422258929825       0.31882047753655751     
  0.26922813413411617       0.12706504184240380     
 p           4   1.0000000000000000     
   5.8263656140800002       0.73716451545209605     
   1.5106896018720002       0.68216371614850257     
  0.53256483288000001       0.35783053929253711     
  0.21202323690600003        5.3983030275847881E-002

           4 0
 s           3   1.0000000000000000     
   3.3702276975336001       0.27359110588908298     
  0.61389118221497996       0.26460540653860526     
  0.16614291148415999        8.2465947534082318E-002

           5 0
 s           3   1.0000000000000000     
   3.3702276975336001       0.27359110588908298     
  0.61389118221497996       0.26460540653860526     
  0.16614291148415999        8.2465947534082318E-002

[MO]
Sym=     1a
Ene=  -0.65398416174815399     
Spin= Alpha
Occup=     2.00000000
           1  0.47283032427200528     
           2   6.7142376795401026E-004
           3  0.13939758544297817     
           4  -3.7308645726122164E-002
           5  0.34759019155688431     
           6 -0.19132949021685169     
           7  -6.2518302785150706E-002
           8   2.9241416828794182E-002
           9  0.35929140625869438     
          10  0.14002043655933200     
          11  -4.9396285807976080E-002
          12   4.0000430405562901E-003
          13   8.7839379185037106E-002
          14   9.0355301089379725E-002
Sym=     2a
Ene=  -0.61563091535807157     
Spin= Alpha
Occup=     2.00000000
           1   8.7756480105255968E-002
           2  0.31435427941882976     
           3   3.4706024692609062E-002
           4  -2.9805831406490960E-002
           5  0.44013257997131311     
           6  -6.7126436362421965E-002
           7  -9.7286670552033563E-002
           8   3.0388463405760797E-002
           9 -0.45310222969633612     
          10   7.6216522270780601E-002
          11   3.9896225737287322E-002
          12  -1.5508501252658876E-002
          13 -0.22476783636821210     
          14 -0.16353820995721161     
Sym=     3a
Ene=  -0.54636108906433500     
Spin= Alpha
Occup=     2.00000000
           1 -0.32035922778075687     
           2  0.24366474526104176     
           3   9.3959216727350220E-002
           4  -4.1034738924336664E-002
           5  0.36216721906419269     
           6  0.10672405917907579     
           7   2.5224254304792824E-002
           8  -1.3759156638419293E-002
           9  0.13766218130627020     
          10 -0.31497488703054305     
          11  0.34249567914384033     
          12  -7.0843694306556113E-002
          13  0.12848222600383860     
          14  0.34874538145590178     
Sym=     4a
Ene=  -0.52277313901995659     
Spin= Alpha
Occup=     2.00000000
           1  -6.1125643426597223E-002
           2 -0.11980367518769316     
           3  0.22169300400883160     
           4  -5.0328604375499124E-002
           5 -0.23572111246668584     
           6 -0.19473227463288695     
           7  0.17603300528164925     
           8  -3.3465155613099200E-002
           9   3.2132814042151667E-003
          10  0.35014377808478941     
          11  0.36086548059924711     
          12 -0.11771845895711865     
          13 -0.41503090043336988     
          14  0.24132116552721294     
Sym=     5a
Ene=  -0.48595795359862354     
Spin= Alpha
Occup=     2.00000000
           1   7.1913767628546503E-004
           2   3.5311340033740674E-002
           3  0.14092744554296510     
           4  0.53232892167542356     
           5  -5.0155530035067462E-005
           6   3.6602030207599300E-002
           7  0.14574342125749312     
           8  0.55065002702257104     
           9   1.9096651124934628E-004
          10   2.3130159851700863E-002
          11   9.7992928768291201E-002
          12  0.36994296262756554     
          13   4.9476676603154462E-004
          14   3.7991744457911999E-005
Sym=     6a
Ene=  -0.46777794506905745     
Spin= Alpha
Occup=     2.00000000
           1 -0.27724077569063593     
           2 -0.25253105382796942     
           3  0.28730122171762090     
           4  -5.9237483831134620E-002
           5  0.47926639619574785     
           6  0.18470707428721370     
           7  0.54120211667438334     
           8 -0.15557985929622473     
           9   2.8886565844467492E-002
          10  0.10795216771724296     
          11 -0.19059117710235998     
          12   4.4175910485210863E-002
          13   3.4150511812754629E-002
          14 -0.20616595366064591     
Sym=     7a
Ene=  -0.42779501821467331     
Spin= Alpha
Occup=     1.00000000
           1  0.15284010695513522     
           2 -0.19351739345093791     
           3 -0.31706169671735190     
           4   9.6927528760022516E-002
           5  0.26706140533597811     
           6  0.71684561514360845     
           7 -0.20897724663171377     
           8   6.8617967207511531E-003
           9  0.10887004468373804     
          10  0.24058601357622456     
          11   8.0879203159163346E-002
          12  -3.5546438872210241E-002
          13 -0.24829564874054183     
          14  0.16023156776989081     
Sym=     8a
Ene=  -0.38148325106420705     
Spin= Alpha
Occup=     1.00000000
           1  -2.6220836771834974E-004
           2   5.7482090488985066E-003
           3   2.1995876365282559E-002
           4   8.0718881291661659E-002
           5  -2.0201448300247147E-004
           6  -4.2870480215393386E-002
           7 -0.16601656914797444     
           8 -0.62511830855704031     
           9  -1.6952638779699616E-006
          10   4.6756318241939980E-002
          11  0.19639211467691520     
          12  0.74083277999777586     
          13   4.0358496864350922E-004
          14  -3.2523420867770986E-004
Sym=     9a
Ene=  -0.30590958115490546     
Spin= Alpha
Occup=     1.00000000
           1 -0.40176228428953542     
           2  -2.4408666212800609E-002
           3  0.62477705291646823     
           4 -0.16484065176967302     
           5  -8.7518808056016653E-002
           6  0.21863603329023221     
           7 -0.66264127197365397     
           8  0.16215905948606552     
           9  0.17925598620903821     
          10  0.15233618237052293     
          11  -8.7738421478108786E-002
          12   1.3960192695743915E-002
          13   3.4486194275635054E-002
          14 -0.21005088640251859     
Sym=    10a
Ene=  -0.19852493447737410     
Spin= Alpha
Occup=     0.00000000
           1  -3.7305446605937289E-004
           2  -5.5623991404090765E-002
           3 -0.22653877713587994     
           4 -0.84935762085428224     
           5   1.2530034943648982E-004
           6   3.4328788627130832E-002
           7  0.14074402995471810     
           8  0.52776492158322086     
           9   4.1473645117121765E-004
          10   3.3987781926171641E-002
          11  0.14102752874337512     
          12  0.53226569695817894     
          13  -7.2739508857160072E-004
          14   1.9649789855590155E-004
Sym=    11a
Ene=   0.12055564928808388     
Spin= Alpha
Occup=     0.00000000
           1 -0.11236505878145731     
           2  0.16811955428818087     
           3 -0.20634128352666417     
           4   4.4377906964464420E-002
           5   4.8222275228923001E-002
           6 -0.12170885611046151     
           7   6.0718059514290240E-002
           8  -8.3014041607883410E-003
           9   1.0833378823024338     
          10 -0.38999866512739284     
          11  0.16781952390021262     
          12  -2.0287360528178564E-002
          13 -0.75119952905759879     
          14 -0.74833278360477407     
Sym=    12a
Ene=   0.20846309960530329     
Spin= Alpha
Occup=     0.00000000
           1 -0.21783262131374392     
           2 -0.32412225321684252     
           3   3.4501734097167031E-002
           4   1.2734865226165919E-002
           5  0.25283519099940760     
           6 -0.27321618844037032     
           7 -0.20437907151802762     
           8   7.2304543379004507E-002
           9  -7.3835882495035088E-002
          10 -0.50408689617969737     
          11 -0.82803153321898082     
          12  0.25147246875283780     
          13 -0.81983855283565465     
          14  0.76778541726368077     
Sym=    13a
Ene=   0.40641257823577570     
Spin= Alpha
Occup=     0.00000000
           1  0.93164040148587757     
           2 -0.42816626041322692     
           3  0.63313214839060439     
           4 -0.14112166982159563     
           5 -0.24442280809381414     
           6  0.39886497000250359     
           7   6.3358689094580548E-002
           8  -4.3051177011826355E-002
           9 -0.36493139974531302     
          10 -0.91006375057154276     
          11  0.37021941805614095     
          12  -3.9630645391140258E-002
          13 -0.24118979052956582     
          14 -0.21765909435413816     
Sym=    14a
Ene=   0.51368652848121288     
Spin= Alpha
Occup=     0.00000000
           1  0.32080306300613420     
           2   1.0578774076313899     
           3  0.32891179748571159     
           4 -0.15700256593925738     
           5 -0.67259755482149408     
           6  0.59858663461191286     
           7  0.45819255209564475     
           8 -0.16168648324523033     
           9  0.25009710806343333     
          10  0.13132233744712091     
          11 -0.61462019961387471     
          12  0.15484943756356784     
          13 -0.23346912881797330     
          14  0.36283757734356187     
