 Entering Gaussian System
 *********************************************
 Gaussian 98:
 frequency output generated by the xtb code
 *********************************************
                         Standard orientation:
 --------------------------------------------------------------------
  Center     Atomic     Atomic              Coordinates (Angstroms)
  Number     Number      Type              X           Y           Z
 --------------------------------------------------------------------
    1          6             0        0.723769   -0.608406    0.115521
    2          7             0        1.785206    0.050402   -0.130048
    3          6             0       -0.489552    0.035000    0.023008
    4          1             0       -1.371037   -0.553385    0.234881
    5          1             0       -0.648387    1.076390   -0.243363
 --------------------------------------------------------------------
     1 basis functions        1 primitive gaussians
     1 alpha electrons        1 beta electrons

 Harmonic frequencies (cm**-1), IR intensities (KM/Mole),
 Raman scattering activities (A**4/amu), Raman depolarization ratios,
 reduced masses (AMU), force constants (mDyne/A) and normal coordinates:
                      1                      2                      3
                        a                      a                      a 
 Frequencies --   419.5055               574.1983               737.7786
 Red. masses --     9.4551                 3.4341                 4.3910
 Frc consts  --     0.0000                 0.0000                 0.0000
 IR Inten    --     0.0586                 0.0623                 0.2977
 Raman Activ --     0.0000                 0.0000                 0.0000
 Depolar     --     0.0000                 0.0000                 0.0000
 Atom AN      X      Y      Z        X      Y      Z        X      Y      Z
   1   6    -0.07   0.48  -0.12    -0.02  -0.10  -0.36    -0.01  -0.06  -0.23
   2   7     0.49  -0.30   0.05     0.02   0.07   0.25     0.00   0.02   0.06
   3   6    -0.35  -0.05   0.04    -0.00  -0.01  -0.05     0.03   0.13   0.48
   4   1     0.08  -0.28   0.07     0.05   0.21   0.79    -0.02  -0.10  -0.38
   5   1    -0.44  -0.06   0.04    -0.02  -0.09  -0.33    -0.05  -0.19  -0.71
                      4                      5                      6
                        a                      a                      a 
 Frequencies --   844.0118              1211.8565              1277.7191
 Red. masses --     5.5987                 8.7381                 4.8880
 Frc consts  --     0.0000                 0.0000                 0.0000
 IR Inten    --     0.0285                 0.3063                 0.4226
 Raman Activ --     0.0000                 0.0000                 0.0000
 Depolar     --     0.0000                 0.0000                 0.0000
 Atom AN      X      Y      Z        X      Y      Z        X      Y      Z
   1   6    -0.06   0.20  -0.05     0.55  -0.37   0.06     0.28  -0.05  -0.01
   2   7     0.32   0.05  -0.04     0.07   0.04  -0.02    -0.04  -0.04   0.01
   3   6    -0.30  -0.37   0.12    -0.44   0.24  -0.04    -0.48   0.20  -0.02
   4   1    -0.43   0.41  -0.08    -0.28   0.27  -0.05     0.26  -0.46   0.11
   5   1     0.49  -0.01  -0.03    -0.38   0.04   0.01     0.58   0.11  -0.07
                      7                      8                      9
                        a                      a                      a 
 Frequencies --  1529.5135              2937.0783              3041.8674
 Red. masses --    12.5906                 1.6696                 1.8280
 Frc consts  --     0.0000                 0.0000                 0.0000
 IR Inten    --     0.6577                 0.0935                 0.1580
 Raman Activ --     0.0000                 0.0000                 0.0000
 Depolar     --     0.0000                 0.0000                 0.0000
 Atom AN      X      Y      Z        X      Y      Z        X      Y      Z
   1   6     0.50   0.49  -0.16     0.01  -0.02   0.00    -0.01  -0.01   0.00
   2   7    -0.53  -0.36   0.13    -0.00   0.00  -0.00     0.00   0.00  -0.00
   3   6     0.10  -0.14   0.03     0.05  -0.23   0.06    -0.21  -0.16   0.06
   4   1    -0.08   0.13  -0.03    -0.06  -0.08   0.03     0.78   0.52  -0.19
   5   1     0.01  -0.02   0.01    -0.13   0.93  -0.24    -0.04   0.06  -0.01
