5
 energy: -10.919070750980 gnorm: 0.399996378454 xtb: 6.2.2 (9d81278992624c895f80dd42a50cac0aa55982e2)
N         0.96451900000000    0.23413200000000    0.41588200000000
C         0.11245400000000   -0.31095500000000   -0.62702900000000
C        -1.14261700000000   -0.90702300000000   -0.01585500000000
C         2.13017900000000    0.79012200000000   -0.24581900000000
C        -2.06453600000000    0.19372500000000    0.47282100000000
5
 energy: -11.061828457523 gnorm: 0.247834808212 xtb: 6.2.2 (9d81278992624c895f80dd42a50cac0aa55982e2)
N         1.02203413286766    0.24123026125297    0.31299712616122
C         0.05937555365612   -0.32035693336827   -0.52521097414797
C        -1.14783303011420   -0.80584331724035   -0.02010133279502
C         2.08504914923793    0.76953068226316   -0.20195751428408
C        -2.01862680564752    0.11544030709250    0.43427269506585
5
 energy: -11.095140396350 gnorm: 0.343043938023 xtb: 6.2.2 (9d81278992624c895f80dd42a50cac0aa55982e2)
N         1.06769887160092    0.25154253236343    0.14156324664427
C         0.00656879171119   -0.33689425604554   -0.41869883936005
C        -1.14411849394666   -0.68560110009119   -0.00794411358994
C         2.04762474697046    0.74473726658525   -0.11690818278680
C        -1.97777491633591    0.02621655718805    0.40198788909251
5
 energy: -11.131007513818 gnorm: 0.105814853974 xtb: 6.2.2 (9d81278992624c895f80dd42a50cac0aa55982e2)
N         1.06118075293781    0.23835707463201    0.04835038082545
C         0.02860008182954   -0.37682376926557   -0.43612732153138
C        -1.13268258133815   -0.66764168963764    0.01257915781288
C         2.15946151295409    0.78122065832943   -0.07124383466968
C        -2.11656076638329    0.02488872594177    0.44644161756272
5
 energy: -11.135898950545 gnorm: 0.108287312224 xtb: 6.2.2 (9d81278992624c895f80dd42a50cac0aa55982e2)
N         1.19887261989470    0.16689115477577    0.02867274191416
C         0.08004455523605   -0.35204844741563   -0.35442538916330
C        -1.16683288105726   -0.60956302097197    0.01870902767375
C         2.17670287581267    0.81375422388699   -0.11511666634805
C        -2.28878816988616   -0.01903291027515    0.42216028592345
5
 energy: -11.142980245057 gnorm: 0.069517925055 xtb: 6.2.2 (9d81278992624c895f80dd42a50cac0aa55982e2)
N         1.19606399969981    0.13910594704090   -0.05668737017617
C         0.06446045691594   -0.38325698803934   -0.33409206623483
C        -1.18757621071061   -0.58865926229650    0.03735050310119
C         2.19098695544181    0.85474286951970   -0.06403313619147
C        -2.26393620134695   -0.02193156622477    0.41746206950128
5
 energy: -11.143267572928 gnorm: 0.134235752932 xtb: 6.2.2 (9d81278992624c895f80dd42a50cac0aa55982e2)
N         1.11790527010502    0.27482248516664   -0.15064928671304
C         0.02350187654512   -0.27788307667385   -0.29973654894975
C        -1.12417446360064   -0.55499898987833    0.05959405461423
C         2.26810644016344    0.69315726600981   -0.02769885397969
C        -2.28534012321293   -0.13509668462427    0.41849063502826
5
 energy: -11.150119205333 gnorm: 0.034033218977 xtb: 6.2.2 (9d81278992624c895f80dd42a50cac0aa55982e2)
N         1.18054446540818    0.24168518923472   -0.12239216805713
C         0.04907557566243   -0.28699203942143   -0.25311275568492
C        -1.17094158831768   -0.55359565079912    0.03195105270569
C         2.25508560080641    0.72945265312013   -0.06610190836006
C        -2.31376505355934   -0.13054915213430    0.40965577939642
5
 energy: -11.147101122768 gnorm: 0.091863149495 xtb: 6.2.2 (9d81278992624c895f80dd42a50cac0aa55982e2)
N         1.25833856047151    0.20664222629963   -0.16339266770231
C         0.01846391859061   -0.21595987559212   -0.21732571091157
C        -1.16961253340224   -0.52163675649402    0.09060747964816
C         2.32830793817462    0.72536331326493   -0.07368836163121
C        -2.43549888383451   -0.19440790747842    0.36379926059694
5
 energy: -11.151843760007 gnorm: 0.032988761167 xtb: 6.2.2 (9d81278992624c895f80dd42a50cac0aa55982e2)
N         1.20562641609401    0.24463047722330   -0.17401415636485
C         0.05625359470773   -0.25517393236980   -0.21531086001591
C        -1.18193026516873   -0.51149520989883    0.05315721016424
C         2.30805794044377    0.71135293852350   -0.06312194225563
C        -2.38800868607677   -0.18931327347817    0.39928974847216
5
 energy: -11.150986008248 gnorm: 0.048014516631 xtb: 6.2.2 (9d81278992624c895f80dd42a50cac0aa55982e2)
N         1.21077879398305    0.18822498413041   -0.14713771780303
C         0.04591868963700   -0.22639919542045   -0.19059581361683
C        -1.15726882952328   -0.51079076131571    0.06349639576630
C         2.25428847942170    0.72417231303911   -0.08865016128325
C        -2.35371813351847   -0.17520634043336    0.36288729693682
5
 energy: -11.153415242458 gnorm: 0.021755334608 xtb: 6.2.2 (9d81278992624c895f80dd42a50cac0aa55982e2)
N         1.22377940376272    0.22009870743769   -0.17796147173874
C         0.04754767318768   -0.22372481137272   -0.16536032426082
C        -1.18049858464760   -0.49218757038009    0.05573338068968
C         2.30342578892968    0.70869060503950   -0.08409819111772
C        -2.39425528123248   -0.21287593072439    0.37168660642761
5
 energy: -11.153814530655 gnorm: 0.037331226424 xtb: 6.2.2 (9d81278992624c895f80dd42a50cac0aa55982e2)
N         1.23202193419092    0.22645273173922   -0.20199943347762
C         0.06079441415303   -0.20800736574246   -0.13518963073454
C        -1.18216909816878   -0.44905572159787    0.05960975702520
C         2.33073824151811    0.68927285865140   -0.09131987970757
C        -2.44138649169328   -0.25866150305030    0.36889918689454
5
 energy: -11.154619062329 gnorm: 0.017982518040 xtb: 6.2.2 (9d81278992624c895f80dd42a50cac0aa55982e2)
N         1.23164032427308    0.23529482028590   -0.20254716460575
C         0.05157309356149   -0.19010722722508   -0.11230341351061
C        -1.18850512411287   -0.44532896043660    0.05604876680625
C         2.34222335987009    0.67718028201226   -0.10082579786383
C        -2.43693265359179   -0.27703791463648    0.35962760917395
5
 energy: -11.155476072998 gnorm: 0.010465178686 xtb: 6.2.2 (9d81278992624c895f80dd42a50cac0aa55982e2)
N         1.23441519117396    0.22422260701132   -0.18677669891956
C         0.04684647317841   -0.16239016047177   -0.08673533783232
C        -1.18678624568975   -0.42592139051295    0.06044072925590
C         2.34412207711188    0.66693983670783   -0.12577242240177
C        -2.43859849577450   -0.30284989273444    0.33884372989775
5
 energy: -11.156375682537 gnorm: 0.029292486113 xtb: 6.2.2 (9d81278992624c895f80dd42a50cac0aa55982e2)
N         1.24433412377652    0.23022987007540   -0.17005965301959
C         0.04277071718068   -0.09435238477591   -0.01316483271155
C        -1.19323701428160   -0.36164607196922    0.06381463454248
C         2.38157358688138    0.62076837109344   -0.18149812578257
C        -2.47544241355698   -0.39499878442372    0.30090797697125
5
 energy: -11.156871858485 gnorm: 0.024779380682 xtb: 6.2.2 (9d81278992624c895f80dd42a50cac0aa55982e2)
N         1.23874300056719    0.23041255182096   -0.14230319405893
C         0.04385060838396   -0.08718344748930   -0.01631460431600
C        -1.19387238282470   -0.35384628107737    0.06328443649506
C         2.37758332936376    0.61461726184639   -0.19923981674682
C        -2.46630555549021   -0.40399908510069    0.29457317862671
5
 energy: -11.157219198554 gnorm: 0.013577706755 xtb: 6.2.2 (9d81278992624c895f80dd42a50cac0aa55982e2)
N         1.24782298006409    0.22397196130453   -0.11843794113593
C         0.04142221911974   -0.06878411950859   -0.00391039021469
C        -1.19707244126927   -0.33378673480525    0.06732385390818
C         2.37857278902979    0.60667047546899   -0.22308182841279
C        -2.47074654694434   -0.42807058245970    0.27810630585525
5
 energy: -11.157459272635 gnorm: 0.015339500483 xtb: 6.2.2 (9d81278992624c895f80dd42a50cac0aa55982e2)
N         1.25012193791357    0.23427633524865   -0.09635292564837
C         0.03634432166126   -0.04521998366048    0.00347175005080
C        -1.20132477219926   -0.31102059383996    0.07349007672055
C         2.38849612041464    0.58515641686996   -0.24412058688181
C        -2.47363860779021   -0.46319117461818    0.26351168575885
5
 energy: -11.157626941461 gnorm: 0.013736906201 xtb: 6.2.2 (9d81278992624c895f80dd42a50cac0aa55982e2)
N         1.25198806316195    0.24717208247135   -0.08775497943373
C         0.03405620227432   -0.04305684259959   -0.01061997660544
C        -1.20604983305840   -0.29685484606163    0.08176273707362
C         2.38779228137921    0.57304135549598   -0.24358840845988
C        -2.46778771375706   -0.48030074930611    0.26020062742543
5
 energy: -11.157776477827 gnorm: 0.007899365927 xtb: 6.2.2 (9d81278992624c895f80dd42a50cac0aa55982e2)
N         1.24953602353000    0.26040806126542   -0.08927300472234
C         0.03320103507239   -0.02647183163581   -0.00484994707162
C        -1.20822878134612   -0.27510234756603    0.08972001847570
C         2.39760091843252    0.55214097691862   -0.24840470474796
C        -2.47211019568878   -0.51097385898221    0.25280763806623
5
 energy: -11.157828014974 gnorm: 0.004003252665 xtb: 6.2.2 (9d81278992624c895f80dd42a50cac0aa55982e2)
N         1.24648547798321    0.26393314898130   -0.09074677102543
C         0.03139141839955   -0.02312260118524   -0.00812824022929
C        -1.20746854149046   -0.27629317012928    0.09145354937360
C         2.39707922694343    0.54729261268508   -0.24570345816212
C        -2.46748858183574   -0.51180899035187    0.25312492004325
5
 energy: -11.157859925782 gnorm: 0.003628801389 xtb: 6.2.2 (9d81278992624c895f80dd42a50cac0aa55982e2)
N         1.24558903931542    0.26199659312347   -0.09412796504582
C         0.03090773701144   -0.01951170904549   -0.00385166197625
C        -1.20847078586541   -0.27126404942746    0.09461836400264
C         2.39684970616348    0.54532089529967   -0.24599520671742
C        -2.46487669662493   -0.51654072995020    0.24935646973686
5
 energy: -11.157905711172 gnorm: 0.006744488193 xtb: 6.2.2 (9d81278992624c895f80dd42a50cac0aa55982e2)
N         1.24275747784840    0.26734988977924   -0.10165990037951
C         0.02885932625498   -0.00986610719891   -0.00745903976730
C        -1.20864655224181   -0.27166843606586    0.10215670918520
C         2.40001697257565    0.53640287573473   -0.24035240143119
C        -2.46298822443721   -0.52221722224919    0.24731463239281
5
 energy: -11.157955159367 gnorm: 0.006546986464 xtb: 6.2.2 (9d81278992624c895f80dd42a50cac0aa55982e2)
N         1.24205567162657    0.26755097164771   -0.11190240869495
C         0.02722912092763    0.00210043817845   -0.00162477128121
C        -1.21004464016354   -0.26222665209914    0.11165948920843
C         2.40313236162411    0.52798132430655   -0.23813079214980
C        -2.46237351401476   -0.53540508203356    0.23999848291753
5
 energy: -11.157974747100 gnorm: 0.003200654210 xtb: 6.2.2 (9d81278992624c895f80dd42a50cac0aa55982e2)
N         1.24207446697122    0.26898023739020   -0.11871179753443
C         0.02574769707455    0.00911450210484   -0.00058739419713
C        -1.20973863608914   -0.25940586162209    0.11800902516828
C         2.40512719075847    0.52285430074658   -0.23524691360735
C        -2.46321171871508   -0.54154217861952    0.23653708017062
5
 energy: -11.157978249520 gnorm: 0.000907290894 xtb: 6.2.2 (9d81278992624c895f80dd42a50cac0aa55982e2)
N         1.24242992423137    0.26936453760667   -0.11932588700205
C         0.02550328081454    0.00839054932102   -0.00199853043387
C        -1.20886276935768   -0.26165442908364    0.11842974783506
C         2.40490788134695    0.52354317821554   -0.23417960720140
C        -2.46397931703517   -0.53964283605958    0.23707427680225
