$hessian                                                                        
        1.1730135128   0.2469963720  -0.1110669534  -0.3753374636  -0.0749242229
        0.0334845101  -0.1581227341  -0.0357955622   0.0157315187  -0.6988293486
       -0.1494553389   0.0674309147   0.0592760335   0.0131787520  -0.0055799902
        0.2469963720   0.0857667271  -0.0291929438  -0.0744057506  -0.0397286834
        0.0129039773  -0.0347391468  -0.0057168271   0.0055548102  -0.1499645457
       -0.0455667636   0.0151280625   0.0121130711   0.0052455469  -0.0043939061
       -0.1110669534  -0.0291929438   0.0363894199   0.0342128684   0.0089202888
       -0.0168141128   0.0177465002  -0.0026284795   0.0087617509   0.0666045346
        0.0192929443  -0.0217916310  -0.0074969499   0.0036081902  -0.0065454270
       -0.3753374636  -0.0744057506   0.0342128684   1.1636767455   0.2429891750
       -0.1090378982  -0.4738512826  -0.0977689882   0.0449245872  -0.1724373525
       -0.0384899666   0.0166986189  -0.1420506468  -0.0323244696   0.0132018237
       -0.0749242229  -0.0397286834   0.0089202888   0.2429891750   0.0932143424
       -0.0287618867  -0.0992781586  -0.0432545569   0.0053779393  -0.0377843198
       -0.0052852582   0.0061586316  -0.0310024738  -0.0049458439   0.0083050270
        0.0334845101   0.0129039773  -0.0168141128  -0.1090378982  -0.0287618867
        0.0381172240   0.0424642922   0.0157128982  -0.0307657064   0.0177421438
        0.0004218434   0.0013919598   0.0153469520  -0.0002768322   0.0080706354
       -0.1581227341  -0.0347391468   0.0177465002  -0.4738512826  -0.0992781586
        0.0424642922   1.0587965970   0.2274583119  -0.0992556126   0.0612931502
        0.0127982510  -0.0065265754  -0.4881157305  -0.1062392575   0.0455713956
       -0.0357955622  -0.0057168271  -0.0026284795  -0.0977689882  -0.0432545569
        0.0157128982   0.2274583119   0.0755021345  -0.0201521725   0.0128742978
        0.0058505253  -0.0002061318  -0.1067680593  -0.0323812758   0.0072738856
        0.0157315187   0.0055548102   0.0087617509   0.0449245872   0.0053779393
       -0.0307657064  -0.0992556126  -0.0201521725   0.0405503767  -0.0060703090
       -0.0011054146  -0.0017436477   0.0446698157   0.0103248377  -0.0168027734
       -0.6988293486  -0.1499645457   0.0666045346  -0.1724373525  -0.0377843198
        0.0177421438   0.0612931502   0.0128742978  -0.0060703090   0.8407311133
        0.1817173010  -0.0814559360  -0.0307575624  -0.0068427333   0.0031795666
       -0.1494553389  -0.0455667636   0.0192929443  -0.0384899666  -0.0052852582
        0.0004218434   0.0127982510   0.0058505253  -0.0011054146   0.1817173010
        0.0471267726  -0.0196876324  -0.0065702465  -0.0021252762   0.0010782594
        0.0674309147   0.0151280625  -0.0217916310   0.0166986189   0.0061586316
        0.0013919598  -0.0065265754  -0.0002061318  -0.0017436477  -0.0814559360
       -0.0196876324   0.0186138113   0.0038529778  -0.0013929299   0.0035295076
        0.0592760335   0.0121130711  -0.0074969499  -0.1420506468  -0.0310024738
        0.0153469520  -0.4881157305  -0.1067680593   0.0446698157  -0.0307575624
       -0.0065702465   0.0038529778   0.6016479062   0.1322277085  -0.0563727957
        0.0131787520   0.0052455469   0.0036081902  -0.0323244696  -0.0049458439
       -0.0002768322  -0.1062392575  -0.0323812758   0.0103248377  -0.0068427333
       -0.0021252762  -0.0013929299   0.1322277085   0.0342068490  -0.0122632658
       -0.0055799902  -0.0043939061  -0.0065454270   0.0132018237   0.0083050270
        0.0080706354   0.0455713956   0.0072738856  -0.0168027734   0.0031795666
        0.0010782594   0.0035295076  -0.0563727957  -0.0122632658   0.0117480575
