 Entering Gaussian System
 *********************************************
 Gaussian 98:
 frequency output generated by the xtb code
 *********************************************
                         Standard orientation:
 --------------------------------------------------------------------
  Center     Atomic     Atomic              Coordinates (Angstroms)
  Number     Number      Type              X           Y           Z
 --------------------------------------------------------------------
    1          6             0        1.837135   -0.377294    0.081753
    2          6             0        0.579375   -0.179276   -0.237776
    3          6             0       -0.623290    0.171605    0.175556
    4          7             0       -1.793220    0.384963   -0.019533
 --------------------------------------------------------------------
     1 basis functions        1 primitive gaussians
     1 alpha electrons        1 beta electrons

 Harmonic frequencies (cm**-1), IR intensities (KM/Mole),
 Raman scattering activities (A**4/amu), Raman depolarization ratios,
 reduced masses (AMU), force constants (mDyne/A) and normal coordinates:
                      1                      2                      3
                        a                      a                      a 
 Frequencies --    80.9976               239.7649               364.9470
 Red. masses --    12.5427                12.4800                12.2689
 Frc consts  --     0.0000                 0.0000                 0.0000
 IR Inten    --     0.4779                 0.2963                 0.3774
 Raman Activ --     0.0000                 0.0000                 0.0000
 Depolar     --     0.0000                 0.0000                 0.0000
 Atom AN      X      Y      Z        X      Y      Z        X      Y      Z
   1   6     0.09   0.42  -0.09    -0.08   0.12   0.47    -0.30   0.10   0.19
   2   6    -0.08  -0.35   0.07     0.05  -0.13  -0.48    -0.17  -0.09  -0.57
   3   6    -0.13  -0.61   0.14     0.05  -0.11  -0.50     0.15   0.10   0.58
   4   7     0.11   0.49  -0.11    -0.02   0.11   0.47     0.28  -0.11  -0.19
                      4                      5                      6
                        a                      a                      a 
 Frequencies --  1001.2212              1462.5236              1889.4486
 Red. masses --    12.4344                12.3834                12.4916
 Frc consts  --     0.0000                 0.0000                 0.0000
 IR Inten    --     0.5361                 1.3853                 0.6449
 Raman Activ --     0.0000                 0.0000                 0.0000
 Depolar     --     0.0000                 0.0000                 0.0000
 Atom AN      X      Y      Z        X      Y      Z        X      Y      Z
   1   6    -0.64   0.11  -0.12     0.45  -0.08   0.09    -0.14   0.02  -0.05
   2   6    -0.16   0.11   0.34    -0.72   0.15  -0.00     0.38  -0.08  -0.01
   3   6     0.32  -0.13  -0.28    -0.18   0.01  -0.13    -0.75   0.16  -0.02
   4   7     0.45  -0.09   0.06     0.42  -0.08   0.04     0.48  -0.09   0.08
