4
 energy: -8.817413837503 gnorm: 0.218416513874 xtb: 6.2.2 (9d81278992624c895f80dd42a50cac0aa55982e2)
C         1.45824300000000   -0.02027000000000   -0.33267500000000
C         0.23142800000000   -0.02322500000000    0.55451300000000
C        -0.85796300000000   -0.71255600000000   -0.12553900000000
N        -0.83170800000000    0.75605000000000   -0.09629900000000
4
 energy: -8.860934720385 gnorm: 0.132993842200 xtb: 6.2.2 (9d81278992624c895f80dd42a50cac0aa55982e2)
C         1.48107609789208   -0.04420004576325   -0.27516076861789
C         0.27208169488004   -0.01461973529193    0.45092734940830
C        -0.85951296533307   -0.65619169909054   -0.10751956259858
N        -0.89364482743906    0.71501048014571   -0.06824701819184
4
 energy: -8.880865485060 gnorm: 0.118845975673 xtb: 6.2.2 (9d81278992624c895f80dd42a50cac0aa55982e2)
C         1.50868867624162   -0.02013571391812   -0.18960124509157
C         0.34531639188538   -0.05610111397861    0.30830584060019
C        -0.91898422735114   -0.57346052912428   -0.05316619899229
N        -0.93502084077587    0.64969635702102   -0.06553839651632
4
 energy: -8.888359037549 gnorm: 0.042190196568 xtb: 6.2.2 (9d81278992624c895f80dd42a50cac0aa55982e2)
C         1.59425388866000   -0.01545564572978   -0.17196540772851
C         0.34506679585518   -0.07144198149142    0.25295891579664
C        -0.96057555742749   -0.59029910600592   -0.02590406194368
N        -0.97874512708770    0.67719573322712   -0.05508944612444
4
 energy: -8.890446326903 gnorm: 0.030286181989 xtb: 6.2.2 (9d81278992624c895f80dd42a50cac0aa55982e2)
C         1.59145641417356   -0.01739779918239   -0.16057722957330
C         0.34933594935919   -0.08502503520580    0.23160465113193
C        -0.94840511501696   -0.58494300942884   -0.01477955184056
N        -0.99238724851579    0.68736484381703   -0.05624786971806
4
 energy: -8.893969121604 gnorm: 0.030257001424 xtb: 6.2.2 (9d81278992624c895f80dd42a50cac0aa55982e2)
C         1.61202130448095   -0.00455533945917   -0.12285859085039
C         0.36971895852262   -0.14461021188811    0.15938361849473
C        -0.94642588702253   -0.55382252549918    0.03269585804581
N        -1.03531437598104    0.70298707684646   -0.06922088569014
4
 energy: -8.897561792653 gnorm: 0.049239177356 xtb: 6.2.2 (9d81278992624c895f80dd42a50cac0aa55982e2)
C         1.62128815854935    0.00350034531652   -0.08977392339740
C         0.40034691604097   -0.20558867121194    0.10549623138727
C        -0.93539954732129   -0.52054419890006    0.07278254326623
N        -1.08623552726903    0.72263152479547   -0.08850485125609
4
 energy: -8.904088323969 gnorm: 0.049864067680 xtb: 6.2.2 (9d81278992624c895f80dd42a50cac0aa55982e2)
C         1.64074476984946    0.00895482219532   -0.04851999182180
C         0.44254174938832   -0.26756101698214    0.03907161203158
C        -0.93098606569600   -0.47967374270579    0.11537633557598
N        -1.15230045354178    0.73827893749260   -0.10592795578576
4
 energy: -8.913457236738 gnorm: 0.060496247123 xtb: 6.2.2 (9d81278992624c895f80dd42a50cac0aa55982e2)
C         1.67248195059333    0.00917568519142    0.01587475922363
C         0.49998527082460   -0.35390802450343   -0.07039393190072
C        -0.91496493516210   -0.41727077177419    0.17896409625298
N        -1.25750228625583    0.76200211108620   -0.12444492357589
4
 energy: -8.916180178506 gnorm: 0.145763514297 xtb: 6.2.2 (9d81278992624c895f80dd42a50cac0aa55982e2)
C         1.69291973316760   -0.04977016004315    0.07802487286124
C         0.56100054879499   -0.41073550950782   -0.17300637865054
C        -0.82336028929266   -0.32027475875516    0.21818613926519
N        -1.43055999266993    0.78077942830612   -0.12320463347590
4
 energy: -8.922858096738 gnorm: 0.070064647047 xtb: 6.2.2 (9d81278992624c895f80dd42a50cac0aa55982e2)
C         1.70849395272314   -0.04809377378105    0.06483045302494
C         0.54578869219610   -0.38877472611932   -0.15711710409929
C        -0.84192319005369   -0.31414590920274    0.20738957521927
N        -1.41235945486554    0.75101340910310   -0.11510292414491
4
 energy: -8.928819117845 gnorm: 0.039741339113 xtb: 6.2.2 (9d81278992624c895f80dd42a50cac0aa55982e2)
C         1.73429367844491   -0.09954657608608    0.06017619664960
C         0.53654460683209   -0.35112908160522   -0.16021914462436
C        -0.79689923246483   -0.27051016195630    0.18740055120179
N        -1.47393905281217    0.72118481964760   -0.08735760322703
4
 energy: -8.925503629261 gnorm: 0.148405740645 xtb: 6.2.2 (9d81278992624c895f80dd42a50cac0aa55982e2)
C         1.85589123180744   -0.22951710785976    0.10085268897200
C         0.54215182956372   -0.31534413802273   -0.27439267419010
C        -0.68455331345475   -0.11137154343949    0.19287283635977
N        -1.71348974791641    0.65623178932198   -0.01933285114167
4
 energy: -8.936365382943 gnorm: 0.026278531833 xtb: 6.2.2 (9d81278992624c895f80dd42a50cac0aa55982e2)
C         1.79028177129203   -0.17415380542050    0.07999321741814
C         0.54203666040087   -0.32391195758052   -0.21390361541063
C        -0.73092506363984   -0.16679043577703    0.18340682643185
N        -1.60139336805307    0.66485519877805   -0.04949642843935
4
 energy: -8.937904970031 gnorm: 0.021411730899 xtb: 6.2.2 (9d81278992624c895f80dd42a50cac0aa55982e2)
C         1.79013769521340   -0.19346038306352    0.08463441532558
C         0.54809302275042   -0.31676657433866   -0.22088451487515
C        -0.70850050084392   -0.13152220206768    0.17908593714570
N        -1.62973021711990    0.64174815946986   -0.04283583759612
4
 energy: -8.939609858896 gnorm: 0.031249310894 xtb: 6.2.2 (9d81278992624c895f80dd42a50cac0aa55982e2)
C         1.81447045493146   -0.23253377012533    0.10841591695022
C         0.56578124173791   -0.31162710358966   -0.26756270713581
C        -0.67175022779536   -0.03121822281897    0.18471381903416
N        -1.70850146887401    0.57537809653396   -0.02556702884857
4
 energy: -8.940404925902 gnorm: 0.013726169441 xtb: 6.2.2 (9d81278992624c895f80dd42a50cac0aa55982e2)
C         1.81527160948064   -0.24550210039134    0.10214145297512
C         0.55877990946182   -0.28934718706010   -0.25904008842958
C        -0.66424394282509   -0.02438125028759    0.17168377706666
N        -1.70980757611737    0.55922953773904   -0.01478514161220
4
 energy: -8.940642450992 gnorm: 0.005364575174 xtb: 6.2.2 (9d81278992624c895f80dd42a50cac0aa55982e2)
C         1.81778107637657   -0.25438032594125    0.10468851351700
C         0.56095485680683   -0.28013857885039   -0.26398655766884
C        -0.65916079077290   -0.00276706414791    0.16788265710019
N        -1.71957514241051    0.53728496893955   -0.00858461294835
4
 energy: -8.940619431306 gnorm: 0.028146209591 xtb: 6.2.2 (9d81278992624c895f80dd42a50cac0aa55982e2)
C         1.82857915216909   -0.28514106248684    0.11064903096739
C         0.56590694438746   -0.25558371635110   -0.27709271152744
C        -0.63634118065670    0.05129484663829    0.15693016227030
N        -1.75814491589985    0.48942893219964    0.00951351828974
4
 energy: -8.940815204241 gnorm: 0.004991545996 xtb: 6.2.2 (9d81278992624c895f80dd42a50cac0aa55982e2)
C         1.82317068242642   -0.27199358189961    0.10890952569766
C         0.56580215996743   -0.26513892880833   -0.27180386084495
C        -0.64735700210247    0.03188274942020    0.16100731413660
N        -1.74161584029138    0.50524876128774    0.00188702101069
4
 energy: -8.940846278691 gnorm: 0.005096473036 xtb: 6.2.2 (9d81278992624c895f80dd42a50cac0aa55982e2)
C         1.82507936128318   -0.27760371531219    0.10989805971104
C         0.56759161465792   -0.25946475150165   -0.27341204091993
C        -0.64448872129335    0.04232224006265    0.15812847728873
N        -1.74818225464776    0.49474522675119    0.00538550392016
4
 energy: -8.941130709598 gnorm: 0.016664875790 xtb: 6.2.2 (9d81278992624c895f80dd42a50cac0aa55982e2)
C         1.83101323478450   -0.32925040759515    0.10161179514816
C         0.57197455979675   -0.21939333700091   -0.27071029265321
C        -0.62671252917071    0.11101863667572    0.18120168617902
N        -1.77627526541054    0.43762410792035   -0.01210318867397
4
 energy: -8.941255583980 gnorm: 0.004698387954 xtb: 6.2.2 (9d81278992624c895f80dd42a50cac0aa55982e2)
C         1.83154882764478   -0.32615788708219    0.09817941926259
C         0.57123201964273   -0.21897390756949   -0.26534198331150
C        -0.63195803573469    0.10240924111905    0.18056271060288
N        -1.77082281155282    0.44272155353263   -0.01340014655396
4
 energy: -8.941353325617 gnorm: 0.005085021554 xtb: 6.2.2 (9d81278992624c895f80dd42a50cac0aa55982e2)
C         1.83581711691196   -0.34295421951053    0.08918058770415
C         0.57269291487893   -0.20197229226632   -0.25509053641838
C        -0.63265851960781    0.11741728233766    0.18812545164608
N        -1.77585151218307    0.42750822943919   -0.02221550293185
4
 energy: -8.941395897875 gnorm: 0.004390891175 xtb: 6.2.2 (9d81278992624c895f80dd42a50cac0aa55982e2)
C         1.83764049179368   -0.35673812803592    0.08206551985596
C         0.57465932475343   -0.18845926664271   -0.24659463111988
C        -0.63144441221676    0.13057287442593    0.19317865244737
N        -1.78085540433035    0.41462352025270   -0.02864954118344
4
 energy: -8.941418239015 gnorm: 0.002383000552 xtb: 6.2.2 (9d81278992624c895f80dd42a50cac0aa55982e2)
C         1.83741964881290   -0.36281024559659    0.07744594597845
C         0.57636782819587   -0.18188864721639   -0.24008613535232
C        -0.63103326797899    0.13526365322665    0.19408300997524
N        -1.78275420902978    0.40943423958634   -0.03144282060136
4
 energy: -8.941426019801 gnorm: 0.001443352830 xtb: 6.2.2 (9d81278992624c895f80dd42a50cac0aa55982e2)
C         1.83733481544874   -0.36501917845022    0.07573702419241
C         0.57740965706717   -0.17983036017657   -0.23706736796566
C        -0.63059070787917    0.13726249297295    0.19307178220886
N        -1.78415376463674    0.40758604565384   -0.03174143843561
4
 energy: -8.941432372614 gnorm: 0.001938039526 xtb: 6.2.2 (9d81278992624c895f80dd42a50cac0aa55982e2)
C         1.83788416529552   -0.36563911311269    0.07497377904658
C         0.57835978738856   -0.17981260167508   -0.23441873323018
C        -0.63045353037247    0.13814236970634    0.18981644767790
N        -1.78579042231162    0.40730834508143   -0.03037149349430
4
 energy: -8.941437568585 gnorm: 0.001630463901 xtb: 6.2.2 (9d81278992624c895f80dd42a50cac0aa55982e2)
C         1.83894990206392   -0.36512163737261    0.07576642882260
C         0.57841934967518   -0.18129061448496   -0.23414278432022
C        -0.63047800995706    0.13879173405707    0.18675369318796
N        -1.78689124178204    0.40761951780050   -0.02837733769033
4
 energy: -8.941441497837 gnorm: 0.001054191847 xtb: 6.2.2 (9d81278992624c895f80dd42a50cac0aa55982e2)
C         1.83969216204726   -0.36440960031647    0.07736165137139
C         0.57821853835818   -0.18338226280395   -0.23482129315448
C        -0.63023821592248    0.14039468962259    0.18316693082101
N        -1.78767248448297    0.40739617349783   -0.02570728903791
4
 energy: -8.941444300878 gnorm: 0.002065219581 xtb: 6.2.2 (9d81278992624c895f80dd42a50cac0aa55982e2)
C         1.84009212266935   -0.36726739775838    0.07807375343704
C         0.57842796373974   -0.18241496618702   -0.23497306868319
C        -0.62893808457897    0.14666141882375    0.18134482209079
N        -1.78958200183011    0.40301994512165   -0.02444550684463
4
 energy: -8.941447824559 gnorm: 0.001633578259 xtb: 6.2.2 (9d81278992624c895f80dd42a50cac0aa55982e2)
C         1.83972995059763   -0.36927769485649    0.07934828561644
C         0.57858913294589   -0.18232306408177   -0.23582191825975
C        -0.62764333906909    0.15258959356437    0.17910369717640
N        -1.79067574447443    0.39901016537389   -0.02263006453308
4
 energy: -8.941452837595 gnorm: 0.001273618140 xtb: 6.2.2 (9d81278992624c895f80dd42a50cac0aa55982e2)
C         1.83800978612303   -0.37686897578703    0.08187840969326
C         0.57935595405540   -0.17980734715270   -0.23764883851894
C        -0.62351997069509    0.17087774790501    0.17495960101744
N        -1.79384576948334    0.38579757503472   -0.01918917219175
4
 energy: -8.941453911757 gnorm: 0.000357082467 xtb: 6.2.2 (9d81278992624c895f80dd42a50cac0aa55982e2)
C         1.83713697346755   -0.37728403084668    0.08175851209847
C         0.57937675771451   -0.17927221142406   -0.23777422763713
C        -0.62329151878403    0.17160160435606    0.17555457854569
N        -1.79322221239804    0.38495363791468   -0.01953886300702
