4
 energy: -8.941453913561 gnorm: 0.000361894611 xtb: 6.2.2 (9d81278992624c895f80dd42a50cac0aa55982e2)
C         1.83713528337070   -0.37729350737360    0.08175275776491
C         0.57937498904622   -0.17927566002091   -0.23777593715269
C        -0.62329000746614    0.17160517429754    0.17555645474089
N        -1.79322026495602    0.38496299309697   -0.01953327535135
