5
 energy: -9.032300612017 gnorm: 0.096305099178 xtb: 6.2.2 (9d81278992624c895f80dd42a50cac0aa55982e2)
C        -0.03816400000000   -0.07164200000000    0.01127500000000
C         1.36988400000000    0.46389500000000   -0.13971400000000
O        -0.94698000000000    0.98225200000000   -0.06723000000000
H        -0.13906400000000   -0.57445200000000    0.99502900000000
H        -0.24567600000000   -0.80005200000000   -0.79935900000000
5
 energy: -9.042839420765 gnorm: 0.063394573169 xtb: 6.2.2 (9d81278992624c895f80dd42a50cac0aa55982e2)
C        -0.06168671272343   -0.03502664136085    0.00806906709725
C         1.34169870056612    0.39270307568927   -0.12908863721408
O        -0.96917814188931    0.95364459763102   -0.06231434934042
H        -0.10187418962669   -0.54235905055297    0.99284507509681
H        -0.20895965632669   -0.76896098140647   -0.80951015563956
5
 energy: -9.048430072087 gnorm: 0.014997056734 xtb: 6.2.2 (9d81278992624c895f80dd42a50cac0aa55982e2)
C        -0.10522194873296    0.03496959108857    0.00185538063487
C         1.31272116845801    0.28922646891293   -0.11435726659285
O        -1.00847490980887    0.92038415814524   -0.05579781934209
H        -0.04596983354475   -0.50898945381678    0.98532102118601
H        -0.15305447637143   -0.73558976432996   -0.81702031588594
5
 energy: -9.048695423609 gnorm: 0.007208188824 xtb: 6.2.2 (9d81278992624c895f80dd42a50cac0aa55982e2)
C        -0.11027977560850    0.02903808977981    0.00290164025739
C         1.31403564265463    0.29618910827639   -0.11531078526314
O        -1.00735073750770    0.93322049489022   -0.05747847159738
H        -0.04440902607478   -0.51539155347334    0.99034372298370
H        -0.15199610346365   -0.74305513947308   -0.82045510638057
5
 energy: -9.048741398008 gnorm: 0.002937310167 xtb: 6.2.2 (9d81278992624c895f80dd42a50cac0aa55982e2)
C        -0.11557709818625    0.02751127727857    0.00340838398088
C         1.31227085299321    0.29918721630604   -0.11558296587525
O        -1.00309056453415    0.93670390811782   -0.05816953148861
H        -0.04291463368353   -0.51767108058642    0.99214574458160
H        -0.15068855658927   -0.74573032111601   -0.82180063119862
5
 energy: -9.048748957290 gnorm: 0.000848188908 xtb: 6.2.2 (9d81278992624c895f80dd42a50cac0aa55982e2)
C        -0.11788456959591    0.02803567440399    0.00347967971412
C         1.31331181053591    0.29881196245926   -0.11559785962499
O        -1.00335104231375    0.93690498193491   -0.05817932236327
H        -0.04219453278081   -0.51793770751842    0.99139522295623
H        -0.14988166584545   -0.74581391127974   -0.82109672068207
5
 energy: -9.048749900823 gnorm: 0.000367403837 xtb: 6.2.2 (9d81278992624c895f80dd42a50cac0aa55982e2)
C        -0.11846893749048    0.02759089862622    0.00357073062763
C         1.31346880136143    0.29864474492405   -0.11558686203559
O        -1.00330026254400    0.93659293103483   -0.05814307611764
H        -0.04203202251341   -0.51752931356759    0.99090176780436
H        -0.14966757881355   -0.74529826101750   -0.82074156027876
