$hessian                                                                        
        0.3767872636  -0.1105109708   0.0061948297  -0.1732395709  -0.0489630253
        0.0194930050  -0.1934735971   0.1647288762  -0.0113771607  -0.0012698887
        0.0035007789   0.0014945984  -0.0088042069  -0.0087556590  -0.0158052724
       -0.1105109708   0.3940615458  -0.0117139148  -0.0396295264  -0.0232500273
        0.0116275018   0.1790665125  -0.2349260954   0.0142826197  -0.0043144042
       -0.0502728244   0.0487203818  -0.0246116111  -0.0856125986  -0.0629165884
        0.0061948297  -0.0117139148   0.2492570228   0.0182964167   0.0122077478
        0.0481462383  -0.0131471228   0.0150949158  -0.0377063738   0.0475498725
        0.0742807468  -0.1512825907  -0.0588939961  -0.0898694955  -0.1084142966
       -0.1732395709  -0.0396295264   0.0182964167   0.2663921366   0.0434611093
       -0.0227706282  -0.0601643105   0.0254680506  -0.0000360455  -0.0168995037
       -0.0134821129   0.0117098728  -0.0160887514  -0.0158175206  -0.0071996158
       -0.0489630253  -0.0232500273   0.0122077478   0.0434611093   0.0386373918
       -0.0105582289   0.0292020431   0.0016470414  -0.0028083972  -0.0134622632
       -0.0076596149   0.0077695085  -0.0102378640  -0.0093747910  -0.0066106302
        0.0194930050   0.0116275018   0.0481462383  -0.0227706282  -0.0105582289
       -0.0221509323  -0.0005281401  -0.0025618933  -0.0065506260  -0.0143625332
        0.0003130277  -0.0101731681   0.0181682964   0.0011795928  -0.0092715119
       -0.1934735971   0.1790665125  -0.0131471228  -0.0601643105   0.0292020431
       -0.0005281401   0.2849311181  -0.2488154852   0.0166362653  -0.0179356516
        0.0194075734  -0.0160527944  -0.0133575589   0.0211393563   0.0130917920
        0.1647288762  -0.2349260954   0.0150949158   0.0254680506   0.0016470414
       -0.0025618933  -0.2488154852   0.2936102399  -0.0172641168   0.0274114390
       -0.0258353457   0.0204407073   0.0312071195  -0.0344958402  -0.0157096130
       -0.0113771607   0.0142826197  -0.0377063738  -0.0000360455  -0.0028083972
       -0.0065506260   0.0166362653  -0.0172641168   0.0397947344  -0.0264919751
        0.0189683858   0.0001844725   0.0212689160  -0.0131784915   0.0042777929
       -0.0012698887  -0.0043144042   0.0475498725  -0.0168995037  -0.0134622632
       -0.0143625332  -0.0179356516   0.0274114390  -0.0264919751   0.0164896519
       -0.0167468915   0.0013818759   0.0196153921   0.0071121199  -0.0080772402
        0.0035007789  -0.0502728244   0.0742807468  -0.0134821129  -0.0076596149
        0.0003130277   0.0194075734  -0.0258353457   0.0189683858  -0.0167468915
        0.0759977962  -0.0812361342   0.0073206522   0.0077699889  -0.0123260260
        0.0014945984   0.0487203818  -0.1512825907   0.0117098728   0.0077695085
       -0.0101731681  -0.0160527944   0.0204407073   0.0001844725   0.0013818759
       -0.0812361342   0.1812840639   0.0014664473   0.0043055366  -0.0200127776
       -0.0088042069  -0.0246116111  -0.0588939961  -0.0160887514  -0.0102378640
        0.0181682964  -0.0133575589   0.0312071195   0.0212689160   0.0196153921
        0.0073206522   0.0014664473   0.0186351251  -0.0036782965   0.0179903364
       -0.0087556590  -0.0856125986  -0.0898694955  -0.0158175206  -0.0093747910
        0.0011795928   0.0211393563  -0.0344958402  -0.0131784915   0.0071121199
        0.0077699889   0.0043055366  -0.0036782965   0.1217132409   0.0975628576
       -0.0158052724  -0.0629165884  -0.1084142966  -0.0071996158  -0.0066106302
       -0.0092715119   0.0130917920  -0.0157096130   0.0042777929  -0.0080772402
       -0.0123260260  -0.0200127776   0.0179903364   0.0975628576   0.1334207932
