[Molden Format]
[Title]
[Atoms] AU
C      1     6 -0.22387352880291E+00  0.52140421075049E-01  0.67483927918642E-02
C      2     6  0.24820982699795E+01  0.56434334664705E+00 -0.21843714172292E+00
O      3     8 -0.18959536573791E+01  0.17699137011494E+01 -0.10987095061803E+00
H      4     1 -0.79427587984102E-01 -0.97798488931445E+00  0.18725347679817E+01
H      5     1 -0.28284349579689E+00 -0.14084106898278E+01 -0.15509731787100E+01
[GTO]
           1 0
 s           4   1.0000000000000000     
   51.049363095579913      -0.16312063210127389     
   8.7911227406887544      -0.19911024581000730     
  0.70640422258929825       0.31882047753655751     
  0.26922813413411617       0.12706504184240380     
 p           4   1.0000000000000000     
   5.8263656140800002       0.73716451545209605     
   1.5106896018720002       0.68216371614850257     
  0.53256483288000001       0.35783053929253711     
  0.21202323690600003        5.3983030275847881E-002

           2 0
 s           4   1.0000000000000000     
   51.049363095579913      -0.16312063210127389     
   8.7911227406887544      -0.19911024581000730     
  0.70640422258929825       0.31882047753655751     
  0.26922813413411617       0.12706504184240380     
 p           4   1.0000000000000000     
   5.8263656140800002       0.73716451545209605     
   1.5106896018720002       0.68216371614850257     
  0.53256483288000001       0.35783053929253711     
  0.21202323690600003        5.3983030275847881E-002

           3 0
 s           4   1.0000000000000000     
   69.137961906196551      -0.20478756370077797     
   11.906129132707308      -0.24997023136827334     
  0.95670827744340703       0.40025880240639616     
  0.36462520496073686       0.15952206667693555     
 p           4   1.0000000000000000     
   8.2124193257781641        1.1321556799186829     
   2.1293576997098116        1.0476840782254817     
  0.75066448202360914       0.54956508217158984     
  0.29885246543283073        8.2908486592766617E-002

           4 0
 s           3   1.0000000000000000     
   3.3702276975336001       0.27359110588908298     
  0.61389118221497996       0.26460540653860526     
  0.16614291148415999        8.2465947534082318E-002

           5 0
 s           3   1.0000000000000000     
   3.3702276975336001       0.27359110588908298     
  0.61389118221497996       0.26460540653860526     
  0.16614291148415999        8.2465947534082318E-002

[MO]
Sym=     1a
Ene=  -0.73203547780136291     
Spin= Alpha
Occup=     2.00000000
           1  0.41215514933139230     
           2 -0.11608372381011248     
           3  0.15136266566660314     
           4  -1.2133107932639071E-002
           5  0.13353490744205296     
           6  -7.1148509141742769E-002
           7  -2.0105971984102759E-003
           8   4.4803463566535900E-003
           9  0.57625466773546286     
          10  0.14971199084520137     
          11 -0.15793463940745997     
          12   1.0960992019419949E-002
          13   6.9822372141318034E-002
          14   6.9822579951921704E-002
Sym=     2a
Ene=  -0.68307915524475482     
Spin= Alpha
Occup=     2.00000000
           1 -0.27904685192735190     
           2 -0.30076723755695628     
           3  0.11386816576558272     
           4   3.5551982329806477E-003
           5 -0.48430283324649032     
           6  0.11684832057901187     
           7   5.6735764101057948E-002
           8  -1.4076202669526035E-002
           9  0.43663044112181182     
          10  -8.7107867866629288E-002
          11   1.4356848702695419E-002
          12   3.3709090991996464E-003
          13 -0.13971992525388979     
          14 -0.13972055777376893     
Sym=     3a
Ene=  -0.61255971732995340     
Spin= Alpha
Occup=     2.00000000
           1 -0.21623611344932517     
           2  0.28323457948412234     
           3  0.31398924090769764     
           4  -5.6307277152942301E-002
           5  0.47165011059083606     
           6   1.2334344978582219E-003
           7   6.6964039481349213E-002
           8  -8.4925900671965118E-003
           9  0.31560793056012304     
          10   1.8062587269800506E-002
          11  0.35046551812219390     
          12  -4.5137015964405169E-002
          13 -0.21130652753175017     
          14 -0.21130527605309665     
Sym=     4a
Ene=  -0.59233435915108179     
Spin= Alpha
Occup=     2.00000000
           1  -4.6624166732686523E-007
           2  -3.1574504790573221E-002
           3  -6.6809859676188979E-002
           4 -0.53137918244799598     
           5  -1.2033584798024924E-006
           6  -1.0205095097642281E-002
           7  -2.1593911726519258E-002
           8 -0.17174885234154708     
           9   2.0756032627411170E-007
          10  -2.4720194503372282E-002
          11  -5.2305745742530475E-002
          12 -0.41602190258593275     
          13 -0.28583101827934715     
          14  0.28583212855477436     
Sym=     5a
Ene=  -0.56409785533325285     
Spin= Alpha
Occup=     2.00000000
           1   8.0353444443126212E-002
           2  -6.4820916835205342E-002
           3  0.37824508827060149     
           4  -4.3704886334557685E-002
           5 -0.13305147094008313     
           6  -8.0875549438003708E-002
           7  0.14445727808593459     
           8  -1.3356793286633771E-002
           9 -0.46880900076608351     
          10  0.58352544737208756     
          11 -0.26597776204196927     
          12  -1.2318894054822722E-003
          13 -0.16262814323819941     
          14 -0.16262730998947222     
Sym=     6a
Ene=  -0.50331074427966538     
Spin= Alpha
Occup=     2.00000000
           1  0.10620940558362009     
           2  0.26268708705922883     
           3  -5.3255079755609161E-003
           4  -1.4938802897352501E-002
           5 -0.59058169231417412     
           6 -0.43143844544796878     
           7  -8.7852795579896836E-002
           8   3.6681408939307152E-002
           9   9.3375382975659685E-002
          10  0.21655296454567013     
          11  0.52004726995813289     
          12  -7.8251550025529817E-002
          13   8.2022639287611124E-002
          14   8.2022756952279563E-002
Sym=     7a
Ene=  -0.44390667659110300     
Spin= Alpha
Occup=     1.99999974
           1   3.5815813328976137E-007
           2   8.2010095653623442E-003
           3   1.7352383794217795E-002
           4  0.13801752986771051     
           5   2.2869270545305350E-007
           6   2.1486699135882175E-002
           7   4.5465285868376344E-002
           8  0.36161257170535788     
           9   1.3994001281866068E-008
          10  -5.0229767548741915E-002
          11 -0.10628457550206924     
          12 -0.84535620960516167     
          13  0.25801434050828798     
          14 -0.25801468426597024     
Sym=     8a
Ene=  -0.41507119274206589     
Spin= Alpha
Occup=     1.00000026
           1  -5.9192156457757154E-002
           2 -0.22832205237187192     
           3 -0.14593736045783862     
           4   3.1915067883804077E-002
           5  0.12843756097186107     
           6  0.55300913553613507     
           7  -8.3547094246745862E-002
           8  -2.2356729639045714E-002
           9   6.4739349453397322E-005
          10  0.57294031332223982     
          11  0.47098672417889709     
          12  -9.3259790406424750E-002
          13  0.18838231779109749     
          14  0.18838121799063531     
Sym=     9a
Ene=  -0.37101975514771462     
Spin= Alpha
Occup=     0.99858271
           1  -2.5477198553505030E-002
           2   6.0231437419771799E-002
           3  0.10264300183459027     
           4  -1.6484418358637488E-002
           5  -6.6520345402064666E-003
           6   5.4417827292145136E-002
           7 -0.96414843408690831     
           8  0.11799163891421602     
           9   3.9446837686554194E-002
          10   8.3966128774356621E-002
          11 -0.17141275215837248     
          12   1.6562902845545908E-002
          13 -0.16458785325155847     
          14 -0.16458489329010403     
Sym=    10a
Ene=  -0.35855977121692073     
Spin= Alpha
Occup=     0.00141729
           1  -1.3596378294058407E-007
           2   1.0542113295870608E-002
           3   2.2305934763268514E-002
           4  0.17740569281214608     
           5   1.3280998887132632E-007
           6  -5.4300675836811842E-002
           7 -0.11489979968089399     
           8 -0.91383843681662535     
           9   1.8553678962389485E-007
          10  -1.4302961300491026E-002
          11  -3.0265339204567802E-002
          12 -0.24070887992964149     
          13  0.29330869560465916     
          14 -0.29331135531386754     
Sym=    11a
Ene=    4.6512052397463387E-002
Spin= Alpha
Occup=     0.00000000
           1 -0.61759539700903587     
           2  0.37363045122867644     
           3  0.78443737164996763     
           4 -0.12081901630412946     
           5 -0.25077674120741444     
           6  0.27280199459325005     
           7  -3.5461086224549701E-002
           8  -1.1751676018047337E-002
           9  -2.8786271200305608E-002
          10 -0.13216391253451434     
          11 -0.20802788412912723     
          12   3.4005879273517961E-002
          13  0.69802201780372530     
          14  0.69803096024557520     
Sym=    12a
Ene=   0.11846713636968535     
Spin= Alpha
Occup=     0.00000000
           1  -1.1743427366462090E-005
           2  -6.3054189758790333E-002
           3 -0.13341418002886776     
           4  -1.0611669693131662     
           5   2.3110101414611377E-006
           6   7.2975660248257926E-003
           7   1.5449348888925480E-002
           8  0.12289043516671419     
           9   1.0528295698383239E-006
          10   1.6340840692174577E-002
          11   3.4570656219679800E-002
          12  0.27498296886128970     
          13  0.78094146044476487     
          14 -0.78092960533913602     
Sym=    13a
Ene=   0.16854624498970652     
Spin= Alpha
Occup=     0.00000000
           1  -1.0093383594774779     
           2 -0.54425897286100211     
           3 -0.23345424864853612     
           4   6.1699594806104152E-002
           5  0.50066453416582468     
           6 -0.80231066964513420     
           7  -8.8973262136666981E-002
           8   5.8858629316649626E-002
           9  0.16003792748089843     
          10  0.33732852362576365     
          11 -0.12291070947480424     
          12  -4.5924296720550491E-003
          13  0.22093494917692613     
          14  0.22094692405054378     
Sym=    14a
Ene=   0.37575646248372663     
Spin= Alpha
Occup=     0.00000000
           1  0.34910452510569862     
           2 -0.89651636119789446     
           3  0.70215526438059295     
           4  -3.5010568414219075E-002
           5  0.23458460143260138     
           6 -0.23945295701010549     
           7 -0.21273557635988366     
           8   4.0975165088543319E-002
           9 -0.68877915503585407     
          10 -0.55088428657848842     
          11  0.62296977837102607     
          12  -4.5591963080775261E-002
          13  0.10575528821841076     
          14  0.10575509660220904     
