 Entering Gaussian System
 *********************************************
 Gaussian 98:
 frequency output generated by the xtb code
 *********************************************
                         Standard orientation:
 --------------------------------------------------------------------
  Center     Atomic     Atomic              Coordinates (Angstroms)
  Number     Number      Type              X           Y           Z
 --------------------------------------------------------------------
    1          6             0       -0.118469    0.027592    0.003571
    2          6             0        1.313470    0.298638   -0.115592
    3          8             0       -1.003296    0.936598   -0.058141
    4          1             0       -0.042031   -0.517527    0.990903
    5          1             0       -0.149674   -0.745299   -0.820740
 --------------------------------------------------------------------
     1 basis functions        1 primitive gaussians
     1 alpha electrons        1 beta electrons

 Harmonic frequencies (cm**-1), IR intensities (KM/Mole),
 Raman scattering activities (A**4/amu), Raman depolarization ratios,
 reduced masses (AMU), force constants (mDyne/A) and normal coordinates:
                      1                      2                      3
                        a                      a                      a 
 Frequencies --  -897.9358               490.6297               968.0730
 Red. masses --     4.0263                12.6689                 3.4652
 Frc consts  --     0.0000                 0.0000                 0.0000
 IR Inten    --     0.2525                 0.4131                 0.2163
 Raman Activ --     0.0000                 0.0000                 0.0000
 Depolar     --     0.0000                 0.0000                 0.0000
 Atom AN      X      Y      Z        X      Y      Z        X      Y      Z
   1   6    -0.03  -0.05  -0.43    -0.15  -0.51   0.07     0.42  -0.01  -0.02
   2   6     0.02   0.03   0.26    -0.42   0.43  -0.03     0.10   0.08  -0.02
   3   8     0.01   0.01   0.10     0.53   0.13  -0.05    -0.15   0.02   0.01
   4   1     0.54   0.26   0.04    -0.08  -0.14   0.01    -0.60  -0.17  -0.07
   5   1    -0.53  -0.24   0.17    -0.08  -0.13   0.03    -0.58  -0.14   0.18
                      4                      5                      6
                        a                      a                      a 
 Frequencies --   996.9337              1026.4968              1209.7961
 Red. masses --    12.0725                 4.0427                 1.7746
 Frc consts  --     0.0000                 0.0000                 0.0000
 IR Inten    --     0.2214                 0.0983                 0.0767
 Raman Activ --     0.0000                 0.0000                 0.0000
 Depolar     --     0.0000                 0.0000                 0.0000
 Atom AN      X      Y      Z        X      Y      Z        X      Y      Z
   1   6    -0.49  -0.37   0.08    -0.03  -0.05  -0.42     0.11  -0.19   0.02
   2   6     0.72   0.17  -0.06     0.00   0.00   0.02    -0.06   0.00   0.00
   3   8    -0.16   0.18  -0.01     0.02   0.03   0.26     0.06  -0.11   0.01
   4   1    -0.08   0.00   0.03    -0.42   0.42   0.15    -0.18   0.57   0.33
   5   1    -0.08  -0.00  -0.02     0.44  -0.37   0.20    -0.22   0.48  -0.43
                      7                      8                      9
                        a                      a                      a 
 Frequencies --  1349.4038              2491.1104              2516.5818
 Red. masses --    12.6148                 1.9100                 1.3436
 Frc consts  --     0.0000                 0.0000                 0.0000
 IR Inten    --     0.9261                 0.0415                 0.0759
 Raman Activ --     0.0000                 0.0000                 0.0000
 Depolar     --     0.0000                 0.0000                 0.0000
 Atom AN      X      Y      Z        X      Y      Z        X      Y      Z
   1   6     0.47  -0.50   0.03    -0.02  -0.04  -0.28    -0.01  -0.16   0.02
   2   6    -0.09  -0.05   0.01    -0.00  -0.00  -0.02    -0.03  -0.02   0.00
   3   8    -0.44   0.48  -0.03    -0.00  -0.00  -0.01     0.03  -0.04   0.00
   4   1     0.22  -0.01   0.02     0.01  -0.34   0.58    -0.03   0.31  -0.62
   5   1     0.22  -0.02  -0.04     0.05   0.48   0.48     0.04   0.46   0.52
