 Entering Gaussian System
 *********************************************
 Gaussian 98:
 frequency output generated by the xtb code
 *********************************************
                         Standard orientation:
 --------------------------------------------------------------------
  Center     Atomic     Atomic              Coordinates (Angstroms)
  Number     Number      Type              X           Y           Z
 --------------------------------------------------------------------
    1          6             0        1.094241    0.021451   -0.017712
    2          6             0        0.017387   -0.077172    0.980302
    3          6             0       -1.094241   -0.021457    0.017726
    4          6             0        0.006864   -0.810326   -0.557274
    5          6             0       -0.024251    0.887503   -0.423042
 --------------------------------------------------------------------
     1 basis functions        1 primitive gaussians
     1 alpha electrons        1 beta electrons

 Harmonic frequencies (cm**-1), IR intensities (KM/Mole),
 Raman scattering activities (A**4/amu), Raman depolarization ratios,
 reduced masses (AMU), force constants (mDyne/A) and normal coordinates:
                      1                      2                      3
                        a                      a                      a 
 Frequencies --  -659.4656              -658.5852               458.6923
 Red. masses --    12.0107                12.0107                12.0107
 Frc consts  --     0.0000                 0.0000                 0.0000
 IR Inten    --     6.9450                 6.9248                 4.2060
 Raman Activ --     0.0000                 0.0000                 0.0000
 Depolar     --     0.0000                 0.0000                 0.0000
 Atom AN      X      Y      Z        X      Y      Z        X      Y      Z
   1   6     0.00   0.04   0.06    -0.00   0.06  -0.04    -0.00   0.47   0.27
   2   6     0.01  -0.41   0.38     0.00  -0.46  -0.36     0.00  -0.24  -0.20
   3   6     0.00   0.04   0.06    -0.00   0.06  -0.04    -0.01   0.47   0.27
   4   6    -0.01   0.53   0.08     0.01  -0.16   0.59     0.00  -0.37  -0.23
   5   6    -0.01  -0.20  -0.59    -0.01   0.51  -0.14     0.01  -0.33  -0.10
                      4                      5                      6
                        a                      a                      a 
 Frequencies --   459.0341               747.0359               747.1005
 Red. masses --    12.0107                12.0107                12.0107
 Frc consts  --     0.0000                 0.0000                 0.0000
 IR Inten    --     4.2028                 0.0176                 0.0132
 Raman Activ --     0.0000                 0.0000                 0.0000
 Depolar     --     0.0000                 0.0000                 0.0000
 Atom AN      X      Y      Z        X      Y      Z        X      Y      Z
   1   6    -0.01   0.27  -0.47     0.01  -0.43   0.06    -0.01  -0.06  -0.43
   2   6     0.01  -0.15   0.39     0.14   0.00  -0.00    -0.63  -0.01   0.01
   3   6    -0.01   0.27  -0.47    -0.01   0.43  -0.06     0.01   0.06   0.43
   4   6     0.01  -0.13   0.26     0.48   0.01  -0.01     0.43   0.01  -0.01
   5   6     0.01  -0.25   0.30    -0.61  -0.01   0.01     0.20   0.00  -0.00
                      7                      8                      9
                        a                      a                      a 
 Frequencies --   765.5732              1300.2959              1396.9655
 Red. masses --    12.0107                12.0107                12.0107
 Frc consts  --     0.0000                 0.0000                 0.0000
 IR Inten    --     0.0084                 1.2043                 0.0074
 Raman Activ --     0.0000                 0.0000                 0.0000
 Depolar     --     0.0000                 0.0000                 0.0000
 Atom AN      X      Y      Z        X      Y      Z        X      Y      Z
   1   6    -0.46  -0.01   0.01     0.55   0.01  -0.01    -0.54  -0.01   0.01
   2   6     0.01  -0.03   0.44    -0.37  -0.01   0.01    -0.01   0.03  -0.37
   3   6     0.46   0.01  -0.01     0.55   0.01  -0.01     0.54   0.01  -0.01
   4   6     0.00  -0.36  -0.25    -0.37  -0.01   0.01    -0.00   0.31   0.21
   5   6    -0.01   0.40  -0.19    -0.37  -0.01   0.01     0.01  -0.34   0.16
