5
 energy: -10.134396126012 gnorm: 0.175548697361 xtb: 6.2.2 (9d81278992624c895f80dd42a50cac0aa55982e2)
C         1.23601700000000    0.02424100000000   -0.02000900000000
C         0.01544900000000   -0.06858700000000    0.87113900000000
C        -1.23601700000000   -0.02424000000000    0.02001100000000
C         0.00610500000000   -0.72010800000000   -0.49521100000000
C        -0.02155300000000    0.78869400000000   -0.37593000000000
5
 energy: -10.161309605142 gnorm: 0.109906456515 xtb: 6.2.2 (9d81278992624c895f80dd42a50cac0aa55982e2)
C         1.18006076313874    0.02314365151988   -0.01910285797846
C         0.01608277560951   -0.07140180032273    0.90688718597792
C        -1.18006053849099   -0.02314240891503    0.01910550369109
C         0.00635560056225   -0.74965810238567   -0.51553266073224
C        -0.02243760081952    0.82105866010355   -0.39135717095832
5
 energy: -10.177138384605 gnorm: 0.043205617525 xtb: 6.2.2 (9d81278992624c895f80dd42a50cac0aa55982e2)
C         1.09125528940037    0.02140149871482   -0.01766400690775
C         0.01706099527722   -0.07573863114445    0.96200606113007
C        -1.09125819347132   -0.02140104570393    0.01766934357726
C         0.00674314993448   -0.79521474731499   -0.54686872620095
C        -0.02380024114075    0.87095292544855   -0.41514267159862
5
 energy: -10.177996032417 gnorm: 0.020130569999 xtb: 6.2.2 (9d81278992624c895f80dd42a50cac0aa55982e2)
C         1.09411361939746    0.02145665131964   -0.01770928106697
C         0.01720867126340   -0.07639661495231    0.97036968818813
C        -1.09411466080828   -0.02145792870985    0.01771662712586
C         0.00680115113297   -0.80212578830957   -0.55162396866021
C        -0.02400778098555    0.87852368065210   -0.41875306558680
5
 energy: -10.178268336630 gnorm: 0.001103976494 xtb: 6.2.2 (9d81278992624c895f80dd42a50cac0aa55982e2)
C         1.09463017888737    0.02146556788215   -0.01771577315353
C         0.01736499049606   -0.07709107876343    0.97921811882146
C        -1.09462957000277   -0.02146919295719    0.01772688005231
C         0.00686256013466   -0.80943501051467   -0.55665675903106
C        -0.02422715951532    0.88652971435314   -0.42257246668918
5
 energy: -10.178269354271 gnorm: 0.000512389797 xtb: 6.2.2 (9d81278992624c895f80dd42a50cac0aa55982e2)
C         1.09424140650045    0.02145698094798   -0.01770789974558
C         0.01738413184047   -0.07717364581437    0.98030189690029
C        -1.09424065980484   -0.02146251890965    0.01772217242283
C         0.00686998502985   -0.81032491960608   -0.55727583489987
C        -0.02425386356593    0.88750410338212   -0.42304033467768
