[Molden Format]
[Title]
[Atoms] AU
C      1     6  0.20678164761176E+01  0.40536928225630E-01 -0.33470366466636E-01
C      2     6  0.32856947912773E-01 -0.14583397991182E+00  0.18525020725648E+01
C      3     6 -0.20678150650281E+01 -0.40547393415823E-01  0.33497337928544E-01
C      4     6  0.12970695147727E-01 -0.15312939338787E+01 -0.10530959788268E+01
C      5     6 -0.45827164423979E-01  0.16771383789708E+01 -0.79943306520649E+00
[GTO]
           1 0
 s           4   1.0000000000000000     
   51.049363095579913      -0.16312063210127389     
   8.7911227406887544      -0.19911024581000730     
  0.70640422258929825       0.31882047753655751     
  0.26922813413411617       0.12706504184240380     
 p           4   1.0000000000000000     
   5.8263656140800002       0.73716451545209605     
   1.5106896018720002       0.68216371614850257     
  0.53256483288000001       0.35783053929253711     
  0.21202323690600003        5.3983030275847881E-002

           2 0
 s           4   1.0000000000000000     
   51.049363095579913      -0.16312063210127389     
   8.7911227406887544      -0.19911024581000730     
  0.70640422258929825       0.31882047753655751     
  0.26922813413411617       0.12706504184240380     
 p           4   1.0000000000000000     
   5.8263656140800002       0.73716451545209605     
   1.5106896018720002       0.68216371614850257     
  0.53256483288000001       0.35783053929253711     
  0.21202323690600003        5.3983030275847881E-002

           3 0
 s           4   1.0000000000000000     
   51.049363095579913      -0.16312063210127389     
   8.7911227406887544      -0.19911024581000730     
  0.70640422258929825       0.31882047753655751     
  0.26922813413411617       0.12706504184240380     
 p           4   1.0000000000000000     
   5.8263656140800002       0.73716451545209605     
   1.5106896018720002       0.68216371614850257     
  0.53256483288000001       0.35783053929253711     
  0.21202323690600003        5.3983030275847881E-002

           4 0
 s           4   1.0000000000000000     
   51.049363095579913      -0.16312063210127389     
   8.7911227406887544      -0.19911024581000730     
  0.70640422258929825       0.31882047753655751     
  0.26922813413411617       0.12706504184240380     
 p           4   1.0000000000000000     
   5.8263656140800002       0.73716451545209605     
   1.5106896018720002       0.68216371614850257     
  0.53256483288000001       0.35783053929253711     
  0.21202323690600003        5.3983030275847881E-002

           5 0
 s           4   1.0000000000000000     
   51.049363095579913      -0.16312063210127389     
   8.7911227406887544      -0.19911024581000730     
  0.70640422258929825       0.31882047753655751     
  0.26922813413411617       0.12706504184240380     
 p           4   1.0000000000000000     
   5.8263656140800002       0.73716451545209605     
   1.5106896018720002       0.68216371614850257     
  0.53256483288000001       0.35783053929253711     
  0.21202323690600003        5.3983030275847881E-002

[MO]
Sym=     1a
Ene=  -0.76285307239608091     
Spin= Alpha
Occup=     2.00000000
           1 -0.24393212392660563     
           2  0.13377431569687087     
           3   2.6218564855888366E-003
           4  -2.1642262915181143E-003
           5 -0.26473254336835078     
           6   2.4491225704707381E-003
           7  -1.0872057435795425E-002
           8  0.13809828560660498     
           9 -0.24393090513028118     
          10 -0.13377367794346132     
          11  -2.6237618673590653E-003
          12   2.1681415938552030E-003
          13 -0.26473547678940956     
          14   9.6675371785659599E-004
          15 -0.11416171043122468     
          16  -7.8509082031311156E-002
          17 -0.26473778612953491     
          18  -3.4169309209483587E-003
          19  0.12504016057629211     
          20  -5.9601270429350379E-002
Sym=     2a
Ene=  -0.65637168005471214     
Spin= Alpha
Occup=     2.00000000
           1 -0.44627293556592917     
           2   3.2027237241852823E-002
           3   6.2413060802105817E-004
           4  -5.1157386323184503E-004
           5   5.0145081023529152E-007
           6 -0.27394783484393370     
           7  -5.3710524469834696E-003
           8   4.4358069023464463E-003
           9  0.44627238886294940     
          10   3.2027697654467044E-002
          11   6.3176424893062833E-004
          12  -5.2564947964160843E-004
          13   4.5024393804427503E-007
          14 -0.27396226289600373     
          15  -5.3711882007536635E-003
          16   4.4363626479894547E-003
          17   5.0478713149991623E-007
          18 -0.27397309038442069     
          19  -5.3717553413790611E-003
          20   4.4365165945492281E-003
Sym=     3a
Ene=  -0.62800768386459904     
Spin= Alpha
Occup=     2.00000000
           1   4.9739692899582179E-006
           2   3.9557508317872095E-003
           3   3.4618788620078063E-002
           4  0.28631802313630234     
           5  0.50026656961847482     
           6  -2.0163305542606291E-004
           7   5.1818300990860364E-002
           8   5.0257901612971292E-002
           9   4.9144183670355874E-006
          10   3.9593587159326921E-003
          11   3.4618662897433657E-002
          12  0.28631630630384108     
          13 -0.33746556141214107     
          14   4.9437677723200828E-003
          15  -9.3987588605171909E-002
          16  0.19152637236400658     
          17 -0.16280360065348840     
          18   2.0170357943682664E-003
          19  0.10129562995719810     
          20  0.24722170316442921     
Sym=     4a
Ene=  -0.62800292521458989     
Spin= Alpha
Occup=     2.00000000
           1  -2.8725851979908174E-006
           2  -6.1712802995553522E-003
           3  0.28629512014440195     
           4  -3.4530842673842724E-002
           5 -0.10084140063221805     
           6  -5.2037518491726336E-003
           7  0.27572266407393115     
           8   1.2489345823337989E-002
           9  -2.9454687248603911E-006
          10  -6.1733377415964623E-003
          11  0.28629342317805134     
          12  -3.4530605486397317E-002
          13 -0.38282397820497072     
          14  -4.7957654215685062E-003
          15  0.13443492985303573     
          16 -0.13336834355947547     
          17  0.48366606905238529     
          18  -5.4243863411589392E-004
          19   7.8817578750089309E-002
          20   6.1902825575938125E-002
Sym=     5a
Ene=  -0.52301866564735178     
Spin= Alpha
Occup=     2.00000000
           1  -1.8658269291446028E-005
           2  -7.1751708669105215E-003
           3  -1.0110403544349984E-003
           4 -0.44402409636598444     
           5   1.2731393505995595E-006
           6 -0.47914127348231245     
           7  -9.3941284851167626E-003
           8   7.7591330957949498E-003
           9   1.8508647339197918E-005
          10   7.1653242801992499E-003
          11   1.0108581997057312E-003
          12  0.44402401085582366     
          13  -6.4724926647689544E-007
          14  0.27318915037233399     
          15   5.3561324273928906E-003
          16  -4.4232238881342385E-003
          17  -5.1899198266315613E-007
          18  0.20594787091796857     
          19   4.0379057066396856E-003
          20  -3.3343470163003756E-003
Sym=     6a
Ene=  -0.52301745390411869     
Spin= Alpha
Occup=     2.00000000
           1   9.7965092348350800E-006
           2   8.7219306802777709E-003
           3 -0.44399878109004876     
           4   8.7027224838667533E-004
           5  -7.1604414332298652E-008
           6   3.8824196564931718E-002
           7   7.6176366779419911E-004
           8  -6.2866823439250452E-004
           9  -1.0014249449947097E-005
          10  -8.7164335471146756E-003
          11  0.44399865218006818     
          12  -8.7034934258406699E-004
          13  -9.3701442867139624E-007
          14  0.39554017968637556     
          15   7.7554897255633871E-003
          16  -6.4050164555079919E-003
          17   1.1678234896929676E-006
          18 -0.43436057434178516     
          19  -8.5156942976811322E-003
          20   7.0336098280757700E-003
Sym=     7a
Ene=  -0.48923762647946378     
Spin= Alpha
Occup=     2.00000000
           1 -0.52745594956421249     
           2 -0.38687552544744080     
           3  -7.5851131443561712E-003
           4   6.2652384344186523E-003
           5  0.21414006049170309     
           6   2.0491872402106960E-003
           7  -9.0855772856785859E-003
           8  0.11549196722673262     
           9 -0.52745457067700507     
          10  0.38687144548707281     
          11   7.5849984318112568E-003
          12  -6.2640638832426893E-003
          13  0.21411999950905664     
          14   8.0886129382860144E-004
          15  -9.5446425707590876E-002
          16  -6.5659586203772172E-002
          17  0.21410746284691803     
          18  -2.8556839507849477E-003
          19  0.10453551295976617     
          20  -4.9839309097945733E-002
Sym=     8a
Ene=  -0.46215665808284784     
Spin= Alpha
Occup=     1.78347717
           1  -5.5484708960373853E-005
           2   8.0656251890621187E-004
           3   8.9990205746456851E-003
           4   6.4829412511096307E-002
           5 -0.41535597677692598     
           6  -9.8972194514483393E-003
           7  0.14197223983220089     
           8 -0.43929113690455079     
           9  -5.5478117035675787E-005
          10   9.4002943793994613E-004
          11   9.0016103852545333E-003
          12   6.4827601291250633E-002
          13  0.28666388417872934     
          14   1.1159420198255523E-002
          15 -0.46384269557908303     
          16  0.12752591311426900     
          17  0.12844303113776251     
          18  -4.9005086564786156E-004
          19  0.32982574583038687     
          20  0.36908212967074167     
Sym=     9a
Ene=  -0.46215405142477306     
Spin= Alpha
Occup=     1.78301136
           1   3.7448179839559834E-005
           2  -1.3717452053693179E-003
           3   6.4847894238751119E-002
           4  -8.9827663541253693E-003
           5   9.1402239155113293E-002
           6  -7.1434745013890504E-003
           7  0.47740535811120277     
           8  0.13688650095784591     
           9   3.7454655078830140E-005
          10  -1.4619677355628838E-003
          11   6.4846445234305231E-002
          12  -8.9814252779964569E-003
          13  0.31401591840939369     
          14  -5.8452932334739013E-003
          15  -8.9467510869567668E-002
          16 -0.46931921673692045     
          17 -0.40525228101865107     
          18   1.1737260796513578E-002
          19 -0.33066019160973337     
          20  0.32449690914547313     
Sym=    10a
Ene=  -0.46068068666278067     
Spin= Alpha
Occup=     1.43351147
           1 -0.17407218804749924     
           2 -0.19916048692597707     
           3  -3.8947876115149696E-003
           4   3.2035191360159170E-003
           5 -0.34692029813192937     
           6  -7.1369877145382359E-003
           7   3.1730038083474396E-002
           8 -0.40235968536874284     
           9 -0.17407091755186524     
          10  0.19915643796884058     
          11   3.9147561473136337E-003
          12  -3.2463510710819478E-003
          13 -0.34705495989171720     
          14  -2.8215142426193940E-003
          15  0.33282122119269703     
          16  0.22870583253923785     
          17 -0.34713197907174953     
          18   9.9602915461020590E-003
          19 -0.36455853697468327     
          20  0.17366815994280196     
Sym=    11a
Ene=  -0.40707257487055654     
Spin= Alpha
Occup=     1.00000000
           1 -0.32112817609815958     
           2 -0.60651229086862291     
           3  -1.1895632182998663E-002
           4   9.8290099982817781E-003
           5  -2.5292554939629584E-008
           6  0.18817256628504450     
           7   3.6893188477403380E-003
           8  -3.0463622501132972E-003
           9  0.32113269336848443     
          10 -0.60651596132598795     
          11  -1.1887338555918199E-002
          12   9.8133825758072342E-003
          13  -6.0618028521123326E-008
          14  0.18816438451903347     
          15   3.6886310256812817E-003
          16  -3.0473131556896589E-003
          17  -2.5014232126368547E-008
          18  0.18815943584379069     
          19   3.6897338544183080E-003
          20  -3.0471281758351694E-003
Sym=    12a
Ene=  -0.27960560545860214     
Spin= Alpha
Occup=     0.00000000
           1  -6.6550375683751398E-007
           2  -7.2468923259664886E-003
           3  -5.1069963017450891E-002
           4 -0.50945239473946280     
           5   7.3702758094088827E-002
           6   5.9590205221616063E-003
           7   6.3439132260809772E-002
           8  0.44476420599475830     
           9  -6.8945820943618665E-007
          10  -7.2495006687288716E-003
          11  -5.1069990412688678E-002
          12 -0.50945226917425945     
          13  -4.8362853436836051E-002
          14   8.3069213410257269E-003
          15  -1.9364642171801109E-003
          16  0.51068737453485902     
          17  -2.5333219310616099E-002
          18   6.9285473042910864E-003
          19   8.7831311459314776E-002
          20  0.53423972771911288     
Sym=    13a
Ene=  -0.27959502908405925     
Spin= Alpha
Occup=     0.00000000
           1  -3.4877752114232788E-007
           2  -1.0811397309481021E-002
           3  0.50941521938925538     
           4  -5.0912457525515084E-002
           5   1.3295441814411453E-002
           6   1.1335188775916723E-002
           7 -0.54841714203284775     
           8   3.5980609852951491E-002
           9  -3.1994959997680944E-007
          10  -1.0812911063708444E-002
          11  0.50941509708660537     
          12  -5.0912439134058782E-002
          13   5.7169370291537881E-002
          14   1.1098048652431214E-002
          15 -0.48236797099661877     
          16  0.10127784330472327     
          17  -7.0461506448117883E-002
          18   9.1819110923842349E-003
          19 -0.45876506751525437     
          20   1.1611471856346681E-002
Sym=    14a
Ene=  -0.23167544279991853     
Spin= Alpha
Occup=     0.00000000
           1   7.8029226604819806E-010
           2  -7.9563483079045325E-007
           3   6.9618913775678059E-005
           4   3.5236277414452541E-005
           5  -4.5963667938091383E-006
           6  -1.2469812041987053E-002
           7  0.68042440702031382     
           8   5.3775172477123413E-002
           9   7.8120244144785027E-010
          10  -7.9401772323758486E-007
          11   6.9638606974394980E-005
          12   3.5206807228887773E-005
          13   1.1909836472742580E-005
          14   1.6688516385582799E-002
          15 -0.38667815021719204     
          16  0.56242059637280084     
          17  -7.3046925997975718E-006
          18  -4.2170944938329539E-003
          19 -0.29388629506999531     
          20 -0.61626590951636895     
Sym=    15a
Ene=    1.6872323517082444E-002
Spin= Alpha
Occup=     0.00000000
           1  -8.4568059882306498E-006
           2  -1.3690965800498767E-002
           3  0.66846662435218418     
           4  -3.6561879464010828E-002
           5   2.4627182193595403E-007
           6  0.11087196899024822     
           7   2.1743735934094200E-003
           8  -1.7955616540194389E-003
           9   8.4450349649570632E-006
          10   1.3705329623359699E-002
          11 -0.66846387585352252     
          12   3.6561607249414971E-002
          13   1.9150013495640096E-006
          14  0.65934422405312032     
          15   1.2929232602313339E-002
          16  -1.0675736320576964E-002
          17  -2.1673742298073166E-006
          18 -0.77019111947212848     
          19  -1.5098329955656152E-002
          20   1.2470769353779628E-002
Sym=    16a
Ene=    1.6883394341866684E-002
Spin= Alpha
Occup=     0.00000000
           1  -9.4632525852125612E-006
           2  -1.0096093935694618E-002
           3  -3.6772100140598341E-002
           4 -0.66852536041926580     
           5   2.2952599809987522E-006
           6  0.82535256645284238     
           7   1.6182209794677896E-002
           8  -1.3367343798414061E-002
           9   9.4735154315396487E-006
          10   1.0112618958616166E-002
          11   3.6772197178762546E-002
          12  0.66852269961403488     
          13  -1.4723339276117835E-006
          14 -0.50867297706891168     
          15  -9.9742887322716786E-003
          16   8.2355837010527500E-003
          17  -8.2026047564258078E-007
          18 -0.31665225116168638     
          19  -6.2077814942798452E-003
          20   5.1266393918832295E-003
Sym=    17a
Ene=    6.2406545590655844E-002
Spin= Alpha
Occup=     0.00000000
           1   5.2048395306709345E-006
           2  -6.7322390152935660E-003
           3  -7.3139693710757320E-002
           4 -0.50387934021307357     
           5  0.71974626747537440     
           6  -1.2414022049768414E-002
           7   3.1947990881399706E-002
           8 -0.72780574524840269     
           9   5.1850418276088148E-006
          10  -6.7183331300623940E-003
          11  -7.3140196135468558E-002
          12 -0.50388388873847934     
          13 -0.50105826009668564     
          14   1.4854193498033050E-003
          15 -0.37007694089037341     
          16 -0.35646120072469689     
          17 -0.21870319112553918     
          18  -6.1306096859831943E-003
          19  0.15260143685054831     
          20 -0.19386897733041081     
Sym=    18a
Ene=    6.2420621330884087E-002
Spin= Alpha
Occup=     0.00000000
           1  -1.5908125404142284E-006
           2   1.1062142772426824E-002
           3 -0.50380699728978795     
           4   7.2983007489590079E-002
           5 -0.16301939084939684     
           6   4.9553521364409103E-003
           7 -0.12420820912395727     
           8  0.15560194316314505     
           9  -1.6027771847646477E-006
          10   1.1057118594088504E-002
          11 -0.50381150270261177     
          12   7.2983579778525459E-002
          13 -0.54182404622554192     
          14   5.7278982651201345E-003
          15 -0.49568974731947330     
          16 -0.24656538775177919     
          17  0.70484974969775882     
          18   1.7371756869142857E-002
          19 -0.65811985295730457     
          20  0.27609866009954437     
Sym=    19a
Ene=   0.22345210257217202     
Spin= Alpha
Occup=     0.00000000
           1  0.69178399495791576     
           2 -0.55058276182445987     
           3  -1.0781917914092078E-002
           4   8.8966043348034912E-003
           5  -6.4678644386759928E-007
           6 -0.57304437346023673     
           7  -1.1235313632227691E-002
           8   9.2798200386636862E-003
           9 -0.69178243101978942     
          10 -0.55057979619708475     
          11  -1.0807763467088905E-002
          12   8.9343832110359185E-003
          13  -6.0772402626708096E-007
          14 -0.57305488723833264     
          15  -1.1235940432476386E-002
          16   9.2790754998908816E-003
          17  -6.3923598648278892E-007
          18 -0.57307321264890920     
          19  -1.1235300924896427E-002
          20   9.2794403618019269E-003
Sym=    20a
Ene=   0.37501527560558090     
Spin= Alpha
Occup=     0.00000000
           1 -0.62319276465043727     
           2  0.73282161052199912     
           3   1.4366910647889702E-002
           4  -1.1867664578176141E-002
           5  0.45325285710270247     
           6  -7.2023487545142921E-003
           7   3.1960560232164884E-002
           8 -0.40604646847952131     
           9 -0.62319458086911539     
          10 -0.73282334122380188     
          11  -1.4368916964257145E-002
          12   1.1865328426061021E-002
          13  0.45324131297146431     
          14  -2.8432678411559886E-003
          15  0.33562544433958719     
          16  0.23082931618780578     
          17  0.45324313301027169     
          18   1.0043968405489215E-002
          19 -0.36759625959567449     
          20  0.17522820991935151     
