$hessian                                                                        
        0.6481276221   0.1317867457  -0.1610542877  -0.6349229241  -0.1676452965
        0.1175001497   0.0410558935   0.0126969038   0.0464533171  -0.0488766298
        0.0238276136   0.0011030159  -0.0053839618  -0.0006659667  -0.0040021951
        0.1317867457   0.0612875107  -0.0436218039  -0.1565745204  -0.0751856190
        0.0488519119   0.0092147410  -0.0017587803   0.0067177806   0.0150472156
        0.0163746062  -0.0138857294   0.0005258181  -0.0007177177   0.0019378409
       -0.1610542877  -0.0436218039   0.0978294106   0.1721456452   0.0532132238
       -0.0666632517  -0.0149282741  -0.0025128573  -0.0427768933   0.0030941843
       -0.0073838243   0.0089710129   0.0007427323   0.0003052618   0.0026397216
       -0.6349229241  -0.1565745204   0.1721456452   0.8450183469   0.0757860811
       -0.1146654168  -0.0615104173  -0.0168282592  -0.0516170635  -0.1453377604
        0.0993169992  -0.0003535105  -0.0032472452  -0.0017003007  -0.0055096545
       -0.1676452965  -0.0751856190   0.0532132238   0.0757860811   0.2199945753
       -0.0508620643  -0.0137041311  -0.0054987019  -0.0142054010   0.1053908341
       -0.1402391071   0.0122626735   0.0001725123   0.0009288527  -0.0004084320
        0.1175001497   0.0488519119  -0.0666632517  -0.1146654168  -0.0508620643
        0.0694153251   0.0016100672  -0.0088726416   0.0165164616  -0.0037411782
        0.0105251542  -0.0192557412  -0.0007036220   0.0003576398  -0.0000127937
        0.0410558935   0.0092147410  -0.0149282741  -0.0615104173  -0.0137041311
        0.0016100672   0.3743782001  -0.0699090337  -0.1714597193   0.0009626314
       -0.0007295558   0.0002287717  -0.3548863077   0.0751279796   0.1845491545
        0.0126969038  -0.0017587803  -0.0025128573  -0.0168282592  -0.0054987019
       -0.0088726416  -0.0699090337   0.0237009814   0.0497374659   0.0015914010
        0.0018336996   0.0054747864   0.0724489881  -0.0182771988  -0.0438267534
        0.0464533171   0.0067177806  -0.0427768933  -0.0516170635  -0.0142054010
        0.0165164616  -0.1714597193   0.0497374659   0.1400665561   0.0016794575
        0.0011284220  -0.0012222478   0.1749440081  -0.0433782676  -0.1125838765
       -0.0488766298   0.0150472156   0.0030941843  -0.1453377604   0.1053908341
       -0.0037411782   0.0009626314   0.0015914010   0.0016794575   0.1932063345
       -0.1218832054  -0.0008485166   0.0000454242  -0.0001462453  -0.0001839470
        0.0238276136   0.0163746062  -0.0073838243   0.0993169992  -0.1402391071
        0.0105251542  -0.0007295558   0.0018336996   0.0011284220  -0.1218832054
        0.1220843506  -0.0039425141  -0.0005318516  -0.0000535493  -0.0003272378
        0.0011030159  -0.0138857294   0.0089710129  -0.0003535105   0.0122626735
       -0.0192557412   0.0002287717   0.0054747864  -0.0012222478  -0.0008485166
       -0.0039425141   0.0110035244  -0.0001297605   0.0000907836   0.0005034518
       -0.0053839618   0.0005258181   0.0007427323  -0.0032472452   0.0001725123
       -0.0007036220  -0.3548863077   0.0724489881   0.1749440081   0.0000454242
       -0.0005318516  -0.0001297605   0.3634720906  -0.0726154669  -0.1748533579
       -0.0006659667  -0.0007177177   0.0003052618  -0.0017003007   0.0009288527
        0.0003576398   0.0751279796  -0.0182771988  -0.0433782676  -0.0001462453
       -0.0000535493   0.0000907836  -0.0726154669   0.0181196132   0.0426245824
       -0.0040021951   0.0019378409   0.0026397216  -0.0055096545  -0.0004084320
       -0.0000127937   0.1845491545  -0.0438267534  -0.1125838765  -0.0001839470
       -0.0003272378   0.0005034518  -0.1748533579   0.0426245824   0.1094534967
