 Entering Gaussian System
 *********************************************
 Gaussian 98:
 frequency output generated by the xtb code
 *********************************************
                         Standard orientation:
 --------------------------------------------------------------------
  Center     Atomic     Atomic              Coordinates (Angstroms)
  Number     Number      Type              X           Y           Z
 --------------------------------------------------------------------
    1          8             0        0.030078   -0.139305   -0.546935
    2          6             0       -1.126179   -0.401766   -0.330358
    3          8             0        1.110687    0.210268    0.830685
    4          1             0       -1.965661    0.297208   -0.352385
    5          1             0        1.951075    0.033593    0.398994
 --------------------------------------------------------------------
     1 basis functions        1 primitive gaussians
     1 alpha electrons        1 beta electrons

 Harmonic frequencies (cm**-1), IR intensities (KM/Mole),
 Raman scattering activities (A**4/amu), Raman depolarization ratios,
 reduced masses (AMU), force constants (mDyne/A) and normal coordinates:
                      1                      2                      3
                        a                      a                      a 
 Frequencies --   185.9993               244.1405               330.7265
 Red. masses --     2.7281                13.0990                14.1412
 Frc consts  --     0.0000                 0.0000                 0.0000
 IR Inten    --     0.5416                 0.5022                 0.4830
 Raman Activ --     0.0000                 0.0000                 0.0000
 Depolar     --     0.0000                 0.0000                 0.0000
 Atom AN      X      Y      Z        X      Y      Z        X      Y      Z
   1   8    -0.01   0.21  -0.11     0.35  -0.02  -0.16     0.20   0.18   0.72
   2   6     0.09  -0.15   0.08     0.29   0.13   0.39    -0.02  -0.06  -0.18
   3   8    -0.05   0.16  -0.06    -0.62  -0.15  -0.26    -0.16  -0.09  -0.47
   4   1    -0.03  -0.11   0.12     0.12   0.08   0.29    -0.02  -0.05  -0.29
   5   1    -0.05  -0.88   0.28    -0.08   0.12   0.01    -0.06  -0.10  -0.12
                      4                      5                      6
                        a                      a                      a 
 Frequencies --   614.7381               783.3217              1012.9197
 Red. masses --     4.8595                 2.1936                 3.5350
 Frc consts  --     0.0000                 0.0000                 0.0000
 IR Inten    --     0.2027                 0.4457                 0.2396
 Raman Activ --     0.0000                 0.0000                 0.0000
 Depolar     --     0.0000                 0.0000                 0.0000
 Atom AN      X      Y      Z        X      Y      Z        X      Y      Z
   1   8    -0.05   0.15  -0.23     0.07  -0.02  -0.06     0.19  -0.16   0.02
   2   6     0.12   0.03   0.45     0.08   0.02   0.02    -0.06   0.37  -0.07
   3   8    -0.02  -0.13   0.03    -0.02   0.07   0.25     0.01  -0.00  -0.01
   4   1    -0.13  -0.22  -0.79     0.00  -0.02  -0.03    -0.58  -0.65   0.19
   5   1     0.02   0.02   0.04    -0.49  -0.22  -0.79     0.01   0.01   0.01
                      7                      8                      9
                        a                      a                      a 
 Frequencies --  1706.8350              2822.2164              3611.9702
 Red. masses --    13.4536                 1.7560                 1.8943
 Frc consts  --     0.0000                 0.0000                 0.0000
 IR Inten    --     0.5705                 0.2010                 0.3200
 Raman Activ --     0.0000                 0.0000                 0.0000
 Depolar     --     0.0000                 0.0000                 0.0000
 Atom AN      X      Y      Z        X      Y      Z        X      Y      Z
   1   8    -0.59  -0.15   0.17    -0.02   0.01   0.00     0.00   0.00   0.00
   2   6     0.72   0.21  -0.14    -0.20   0.16  -0.01    -0.00  -0.00   0.00
   3   8    -0.05  -0.01  -0.05     0.00   0.00   0.00     0.21  -0.04  -0.11
   4   1     0.05  -0.11   0.03     0.77  -0.58   0.01    -0.00   0.00   0.00
   5   1    -0.01   0.00   0.00     0.00   0.00   0.00    -0.85   0.18   0.44
