[Molden Format]
[Title]
[Atoms] AU
O      1     8  0.56838797817171E-01 -0.26324780218176E+00 -0.10335574431530E+01
C      2     6 -0.21281690648136E+01 -0.75922705921070E+00 -0.62428666951596E+00
O      3     8  0.20988940694741E+01  0.39734935875262E+00  0.15697662599512E+01
H      4     1 -0.37145600912354E+01  0.56164208721865E+00 -0.66591087729663E+00
H      5     1  0.36869962887479E+01  0.63481525695234E-01  0.75398873001773E+00
[GTO]
           1 0
 s           4   1.0000000000000000     
   69.137961906196551      -0.20478756370077797     
   11.906129132707308      -0.24997023136827334     
  0.95670827744340703       0.40025880240639616     
  0.36462520496073686       0.15952206667693555     
 p           4   1.0000000000000000     
   8.2124193257781641        1.1321556799186829     
   2.1293576997098116        1.0476840782254817     
  0.75066448202360914       0.54956508217158984     
  0.29885246543283073        8.2908486592766617E-002

           2 0
 s           4   1.0000000000000000     
   51.049363095579913      -0.16312063210127389     
   8.7911227406887544      -0.19911024581000730     
  0.70640422258929825       0.31882047753655751     
  0.26922813413411617       0.12706504184240380     
 p           4   1.0000000000000000     
   5.8263656140800002       0.73716451545209605     
   1.5106896018720002       0.68216371614850257     
  0.53256483288000001       0.35783053929253711     
  0.21202323690600003        5.3983030275847881E-002

           3 0
 s           4   1.0000000000000000     
   69.137961906196551      -0.20478756370077797     
   11.906129132707308      -0.24997023136827334     
  0.95670827744340703       0.40025880240639616     
  0.36462520496073686       0.15952206667693555     
 p           4   1.0000000000000000     
   8.2124193257781641        1.1321556799186829     
   2.1293576997098116        1.0476840782254817     
  0.75066448202360914       0.54956508217158984     
  0.29885246543283073        8.2908486592766617E-002

           4 0
 s           3   1.0000000000000000     
   3.3702276975336001       0.27359110588908298     
  0.61389118221497996       0.26460540653860526     
  0.16614291148415999        8.2465947534082318E-002

           5 0
 s           3   1.0000000000000000     
   3.3702276975336001       0.27359110588908298     
  0.61389118221497996       0.26460540653860526     
  0.16614291148415999        8.2465947534082318E-002

[MO]
Sym=     1a
Ene=  -0.75891533736981875     
Spin= Alpha
Occup=     2.00000000
           1  0.69632655670036414     
           2 -0.20207060350726955     
           3  -5.2750296366343166E-002
           4   9.5025447464340967E-003
           5  0.30556787863855850     
           6  0.20812393026499426     
           7   4.4607363102909234E-002
           8  -5.0033639475583772E-002
           9   2.5582024226095219E-003
          10  -2.9761901176035534E-002
          11  -7.3847647376896171E-003
          12  -1.7787042874100715E-002
          13   2.2345886880853066E-002
          14  -8.4194213939734718E-003
Sym=     2a
Ene=  -0.68395176012940107     
Spin= Alpha
Occup=     2.00000000
           1  0.15471730478698098     
           2  0.23411692389583122     
           3   4.6972811164606151E-002
           4  0.11168011900974781     
           5 -0.11545166317472938     
           6   4.4471798826782646E-003
           7  -4.2576583335040257E-003
           8   4.9727988231071094E-002
           9  0.78022140061957068     
          10   3.6426140552199712E-002
          11  -2.6281615705785910E-002
          12  -8.9831720811520632E-002
          13  -3.6134135688587588E-002
          14  0.19744647459219786     
Sym=     3a
Ene=  -0.64245632733064395     
Spin= Alpha
Occup=     2.00000000
           1 -0.49497786898735474     
           2 -0.50924005937240446     
           3  -4.6276726376945389E-002
           4  0.13669291873071673     
           5  0.40721197666402004     
           6  -5.5554010590335587E-002
           7   4.6364577960461131E-002
           8   1.2221028180205009E-002
           9  0.33639076851821292     
          10   8.6364080389876099E-002
          11   2.5127242207825303E-002
          12  0.14228687365909093     
          13  0.17627832897533668     
          14   6.5016296334532903E-002
Sym=     4a
Ene=  -0.59862311618779762     
Spin= Alpha
Occup=     2.00000000
           1  -3.2732883361140636E-002
           2   6.2207933505369434E-002
           3  0.22647324795042958     
           4  0.62081277793379153     
           5   3.5892402355384698E-002
           6   3.2445095667313953E-003
           7  0.12328604294044825     
           8  0.31877373602090436     
           9  -4.9046913603651918E-002
          10 -0.41448220332578734     
          11  -7.3370842111890565E-003
          12 -0.11529243237737682     
          13   5.3348192367219036E-002
          14 -0.18245004206379153     
Sym=     5a
Ene=  -0.59051274353651451     
Spin= Alpha
Occup=     2.00000000
           1  0.12996701705470506     
           2   1.6996106109538004E-002
           3  0.66544972140557590     
           4 -0.26550806284119799     
           5  -1.7249603793035112E-002
           6 -0.21122499753458465     
           7  0.36541920495497077     
           8 -0.11190393293319741     
           9  -2.5187959699516094E-003
          10   3.9343761181554845E-002
          11  0.10978239087651390     
          12  -3.6927626560061259E-002
          13  0.21052463522529816     
          14   1.7776169142996023E-002
Sym=     6a
Ene=  -0.54898427722976084     
Spin= Alpha
Occup=     2.00000000
           1   3.4604958302136148E-002
           2  0.21473314217137557     
           3 -0.12218484722229542     
           4  0.17700752720793281     
           5  0.22801714049081209     
           6 -0.20119519821776263     
           7  -4.3426345983539338E-002
           8  0.13749777185717463     
           9 -0.38231712600379969     
          10  0.38106774289578615     
          11 -0.20146454283615758     
          12 -0.46419846208479271     
          13  0.22751777765874726     
          14  0.28221134986925761     
Sym=     7a
Ene=  -0.52921554380359848     
Spin= Alpha
Occup=     2.00000000
           1  0.12489391586969133     
           2  0.37554040256813703     
           3 -0.29898575836359526     
           4 -0.21305642072867373     
           5  0.25713017868004839     
           6 -0.36548647000169937     
           7 -0.17059474783244014     
           8  -7.2288177978085844E-002
           9  0.19352555100769719     
          10 -0.36441118046589571     
          11   5.5267650307094986E-003
          12  0.15922046257639236     
          13  0.32574839589234555     
          14 -0.19984943323064322     
Sym=     8a
Ene=  -0.46476212624102736     
Spin= Alpha
Occup=     2.00000000
           1  -2.0858718092577326E-002
           2   1.4427917351075644E-002
           3  -6.6487961278099431E-002
           4   2.0983701092144817E-002
           5   8.3801617242038856E-002
           6  -9.0467486141422755E-003
           7 -0.14557178883004795     
           8   1.1402883908373256E-002
           9   1.7696875459351979E-003
          10   3.0815153763050891E-002
          11  0.93236570162939680     
          12 -0.31303218110791758     
          13  -2.5743611699136412E-002
          14  -2.3469698519192027E-003
Sym=     9a
Ene=  -0.41563047290063532     
Spin= Alpha
Occup=     1.00000000
           1  0.25460198101577203     
           2  0.21390193145785755     
           3  -2.2028972825163900E-002
           4   8.4038835953855057E-002
           5  -2.2315614997950470E-002
           6  -2.4948079674679473E-002
           7   7.5253905569365731E-002
           8  0.51912065716915978     
           9 -0.10636227223928735     
          10  0.42638849126208983     
          11  0.21927236052226443     
          12  0.67448281334805005     
          13   7.8205255562164400E-002
          14   1.8780466675943897E-002
Sym=    10a
Ene=  -0.34535401373870844     
Spin= Alpha
Occup=     1.00000000
           1   4.2029962435639820E-002
           2  -2.6162773400654704E-002
           3  0.60306736972820651     
           4 -0.12297216265910106     
           5  0.41832146231900025     
           6 -0.13458376595561666     
           7 -0.70786024582450124     
           8  0.17893119571190086     
           9  -4.2561355720456117E-003
          10   5.1161332522761732E-003
          11 -0.11109720757233935     
          12   4.3264067866334355E-002
          13 -0.30605073531724863     
          14   4.1311260089705211E-003
Sym=    11a
Ene=  -0.26758906030632496     
Spin= Alpha
Occup=     0.00000000
           1 -0.11742389320100392     
           2 -0.16307672880820828     
           3 -0.14222412397286416     
           4 -0.68953992529486907     
           5   2.0674460829727574E-002
           6  0.14177427419999691     
           7  0.17367313448064620     
           8  0.76419380614016574     
           9  0.12647068782224322     
          10 -0.21748863566962948     
          11  -7.7933503708178434E-002
          12 -0.32592060098813236     
          13  -1.5973101310572231E-002
          14  -1.8072251772925905E-002
Sym=    12a
Ene=   0.15309056918629077     
Spin= Alpha
Occup=     0.00000000
           1  -9.9121524713004741E-002
           2  0.10528545612260713     
           3  -6.4888163777611224E-002
           4  -3.7801105245414114E-002
           5  0.33397109348909071     
           6 -0.13947220901132729     
           7  0.26567815791614252     
           8  -4.0098599914751142E-002
           9 -0.57206976553648436     
          10 -0.67159598089236061     
          11  0.14036723788105449     
          12  0.33708411387937659     
          13 -0.42121403403516866     
          14   1.0803712498473221     
Sym=    13a
Ene=   0.15733522984241619     
Spin= Alpha
Occup=     0.00000000
           1   4.0540324994568396E-002
           2 -0.24129189283819880     
           3  0.15513311547235883     
           4  -1.9853044338841483E-002
           5 -0.73338274745328302     
           6  0.43517952114477654     
           7 -0.61832731353932691     
           8   6.1891910690501324E-002
           9 -0.23589884089909491     
          10 -0.28853130187968629     
          11   4.6371671070847248E-002
          12  0.11690107217426141     
          13   1.0128720294142561     
          14  0.46670092181386647     
Sym=    14a
Ene=   0.54404800036132217     
Spin= Alpha
Occup=     0.00000000
           1  0.77681227393999119     
           2 -0.85821930267202473     
           3 -0.23186677362494115     
           4  0.14754574496559966     
           5 -0.62554331329666513     
           6  -1.1036163714193645     
           7  -9.2345549408766395E-002
           8  0.17763481465019940     
           9   5.8680932691186852E-003
          10  -6.2029360286451535E-002
          11  -7.6172230259789894E-004
          12  -4.7413515888292332E-002
          13 -0.28687898892282609     
          14   7.4294951288683866E-002
