5
 energy: -11.034580388736 gnorm: 0.000833854697 xtb: 6.2.2 (9d81278992624c895f80dd42a50cac0aa55982e2)
O         0.03007779929058   -0.13930475065957   -0.54693509582032
C        -1.12617867453480   -0.40176569491097   -0.33035830922898
O         1.11068701271455    0.21026824492747    0.83068460828141
H        -1.96566073118532    0.29720822081505   -0.35238489345203
H         1.95107459370976    0.03359297982802    0.39899369022166
