5
 energy: -10.987285385284 gnorm: 0.137224263251 xtb: 6.2.2 (9d81278992624c895f80dd42a50cac0aa55982e2)
O         0.13069800000000    0.45164500000000   -0.32316300000000
C        -1.01248900000000   -0.22997400000000    0.09726400000000
O         1.00844100000000    0.26286200000000    0.64072800000000
H        -1.80706000000000   -0.12787900000000   -0.67019000000000
H         1.68041000000000   -0.35665500000000    0.25536100000000
5
 energy: -11.000965944211 gnorm: 0.058812542449 xtb: 6.2.2 (9d81278992624c895f80dd42a50cac0aa55982e2)
O         0.10968103333489    0.43886637603308   -0.30959753339198
C        -1.04556634488706   -0.21315789646410    0.04156454033299
O         1.07250725893587    0.26738127548148    0.65697310737076
H        -1.86082202142871   -0.13783753313619   -0.66267237806356
H         1.72420007404501   -0.35525322191427    0.27373226375179
5
 energy: -11.004364672089 gnorm: 0.015324675556 xtb: 6.2.2 (9d81278992624c895f80dd42a50cac0aa55982e2)
O         0.08941824635096    0.41671792710384   -0.29748482898930
C        -1.06002720986322   -0.20590503861379    0.00581765501955
O         1.11105637045373    0.27560635730004    0.66641018728615
H        -1.88319809269020   -0.13533912909425   -0.65648576006912
H         1.74275068574874   -0.35108111669583    0.28174274675273
5
 energy: -11.005104156837 gnorm: 0.011289495605 xtb: 6.2.2 (9d81278992624c895f80dd42a50cac0aa55982e2)
O         0.09084986087429    0.39380774942574   -0.30958150483026
C        -1.04955468502083   -0.23119308652730   -0.02721563804748
O         1.11765010271717    0.28422997080221    0.67207922333178
H        -1.91576775575550   -0.10704070091145   -0.63535575001175
H         1.75682247718486   -0.33980493278920    0.30007366955770
5
 energy: -11.007709285352 gnorm: 0.039178777903 xtb: 6.2.2 (9d81278992624c895f80dd42a50cac0aa55982e2)
O         0.10044875588909    0.33749131796596   -0.34958454631732
C        -1.02499289891061   -0.31153650953479   -0.08595962906657
O         1.10831266920195    0.30354813511538    0.67454237130986
H        -1.96603938894778   -0.02186000859408   -0.58229855289649
H         1.78227086276735   -0.30764393495246    0.34330035697051
5
 energy: -11.011986429209 gnorm: 0.061129245211 xtb: 6.2.2 (9d81278992624c895f80dd42a50cac0aa55982e2)
O         0.10178880702581    0.25684648439127   -0.38640366812792
C        -1.01896664984664   -0.37351066201928   -0.14656377503173
O         1.09992750983480    0.31417448395118    0.68628839749507
H        -2.00005514489980    0.06297397860783   -0.52900979516957
H         1.81730547788583   -0.26048528493099    0.37568884083414
5
 energy: -11.015336739989 gnorm: 0.092167171115 xtb: 6.2.2 (9d81278992624c895f80dd42a50cac0aa55982e2)
O         0.08987823677321    0.04073701430355   -0.47400815407692
C        -1.01147921239585   -0.51030544089482   -0.32451420078145
O         1.08717469525847    0.34977007652019    0.73622387388051
H        -2.04583772952790    0.26553232820939   -0.37467363109868
H         1.88026400989207   -0.14573497813831    0.43697211207654
5
 energy: -11.027967328498 gnorm: 0.038056921442 xtb: 6.2.2 (9d81278992624c895f80dd42a50cac0aa55982e2)
O         0.06034205279943    0.08889276261420   -0.44264575955767
C        -1.02440006891450   -0.44115674495942   -0.33014242213008
O         1.10392278033000    0.36784348373583    0.76375010069934
H        -1.92736210360536    0.18382497496487   -0.36546130348145
H         1.78749733939043   -0.19940547635548    0.37449938446986
5
 energy: -11.030401490607 gnorm: 0.055773130539 xtb: 6.2.2 (9d81278992624c895f80dd42a50cac0aa55982e2)
O         0.08171704732551    0.01484643385369   -0.46374151161632
C        -1.08753508210169   -0.39262306297042   -0.32705765053571
O         1.09158188128996    0.29918444589026    0.79106791318096
H        -1.97847517620433    0.19536639757819   -0.37525030537285
H         1.89271132969056   -0.11677521435171    0.37498155434391
5
 energy: -11.032143111872 gnorm: 0.034978027488 xtb: 6.2.2 (9d81278992624c895f80dd42a50cac0aa55982e2)
O         0.07129942568486   -0.03248878995326   -0.48675410231602
C        -1.07962283545226   -0.41539515263463   -0.37171113240773
O         1.09744406258809    0.29772217204776    0.80480425389972
H        -1.99029635232966    0.23612729794578   -0.33834570828273
H         1.90117569950897   -0.08596652740565    0.39200668910676
5
 energy: -11.033082826397 gnorm: 0.019275070020 xtb: 6.2.2 (9d81278992624c895f80dd42a50cac0aa55982e2)
O         0.05766009080265   -0.03588366869129   -0.49071846959945
C        -1.08408322965680   -0.41212679773755   -0.36803915319520
O         1.10397685730094    0.29178184585451    0.80610839443113
H        -1.96745495462358    0.23692111992458   -0.33679544007525
H         1.88990123617679   -0.08069349935025    0.38944466843876
5
 energy: -11.033939664510 gnorm: 0.017051603486 xtb: 6.2.2 (9d81278992624c895f80dd42a50cac0aa55982e2)
O         0.04745598706718   -0.08309318912932   -0.51216599518213
C        -1.11120957375389   -0.40368395695964   -0.35372611812538
O         1.09939651077432    0.25495416111638    0.81376221045109
H        -1.96284424083343    0.26233772756906   -0.34098430608152
H         1.92720131674582   -0.03051574259648    0.39311420893793
5
 energy: -11.034383665497 gnorm: 0.010989906077 xtb: 6.2.2 (9d81278992624c895f80dd42a50cac0aa55982e2)
O         0.03766650263636   -0.11446417619553   -0.52998933719850
C        -1.12364506947962   -0.40775609171378   -0.34352699622081
O         1.10282064596873    0.23137826633560    0.81624123458170
H        -1.96229436140679    0.28604121040220   -0.34383739415216
H         1.94545228228131    0.00479979117151    0.40111249298976
5
 energy: -11.034518337201 gnorm: 0.003342097162 xtb: 6.2.2 (9d81278992624c895f80dd42a50cac0aa55982e2)
O         0.03026203958861   -0.12857069899729   -0.54088404938018
C        -1.12649592521159   -0.40830004372949   -0.33890148336821
O         1.10606618978279    0.21797712497452    0.81915025632237
H        -1.96081407710259    0.29645789089266   -0.34445163982156
H         1.95098177294278    0.02243472685961    0.40508691624757
5
 energy: -11.034548532458 gnorm: 0.002881403285 xtb: 6.2.2 (9d81278992624c895f80dd42a50cac0aa55982e2)
O         0.02733262596194   -0.14135744610005   -0.54890384099802
C        -1.13010187639870   -0.40509888049655   -0.33551371808370
O         1.10676834551629    0.20596691722538    0.82352693665977
H        -1.96231484352934    0.30276585796091   -0.34547243300924
H         1.95831574844982    0.03772255141031    0.40636305543119
5
 energy: -11.034562084360 gnorm: 0.002696589094 xtb: 6.2.2 (9d81278992624c895f80dd42a50cac0aa55982e2)
O         0.02762838630240   -0.14088702763747   -0.54998862765823
C        -1.12923613758264   -0.40269150228813   -0.33415447079257
O         1.10940112521817    0.20355355667541    0.82579836116201
H        -1.96410542350667    0.30071271289271   -0.34715543528791
H         1.95631204956874    0.03931126035748    0.40550017257669
5
 energy: -11.034567284478 gnorm: 0.002004596572 xtb: 6.2.2 (9d81278992624c895f80dd42a50cac0aa55982e2)
O         0.02831135293639   -0.14061527027866   -0.54982171561685
C        -1.12836793799290   -0.40202172181439   -0.33394193988348
O         1.10931186814211    0.20407747510161    0.82690915008666
H        -1.96477455442306    0.29984374406979   -0.34762280885861
H         1.95551927133746    0.03871477292166    0.40447731427227
5
 energy: -11.034576251125 gnorm: 0.001374004868 xtb: 6.2.2 (9d81278992624c895f80dd42a50cac0aa55982e2)
O         0.03141612665664   -0.13805868520113   -0.54722390013273
C        -1.12504056693297   -0.40070953821274   -0.33105450338119
O         1.10963567163211    0.20940270870650    0.83090641699071
H        -1.96667723401287    0.29589522035064   -0.35165182038435
H         1.95066600265709    0.03346929435673    0.39902380690756
5
 energy: -11.034580390515 gnorm: 0.000833845600 xtb: 6.2.2 (9d81278992624c895f80dd42a50cac0aa55982e2)
O         0.03008043785160   -0.13930363858882   -0.54693523395467
C        -1.12617541770420   -0.40177101497172   -0.33036294154800
O         1.11068301209431    0.21027261064295    0.83068885229778
H        -1.96566105726968    0.29719854367464   -0.35239123619688
H         1.95107302502798    0.03360249924295    0.39900055940177
