      -----------------------------------------------------------      
     |                   =====================                   |     
     |                           x T B                           |     
     |                   =====================                   |     
     |                         S. Grimme                         |     
     |          Mulliken Center for Theoretical Chemistry        |     
     |                    University of Bonn                     |     
      -----------------------------------------------------------      

   * xtb version 6.2.2 (9d81278992624c895f80dd42a50cac0aa55982e2) compiled by '@Darwin' on 04/03/2020

   xtb is free software: you can redistribute it and/or modify it under
   the terms of the GNU Lesser General Public License as published by
   the Free Software Foundation, either version 3 of the License, or
   (at your option) any later version.
   
   xtb is distributed in the hope that it will be useful,
   but WITHOUT ANY WARRANTY; without even the implied warranty of
   MERCHANTABILITY or FITNESS FOR A PARTICULAR PURPOSE.  See the
   GNU Lesser General Public License for more details.
   
   Cite this work as:
   * S. Grimme, C. Bannwarth, P. Shushkov, J. Chem. Theory Comput., 2017,
     13, 1989-2009. DOI: 10.1021/acs.jctc.7b00118
   * C. Bannwarth, S. Ehlert and S. Grimme., J. Chem. Theory Comput., 2019,
     15, 1652-1671. DOI: 10.1021/acs.jctc.8b01176
   * P. Pracht, E. Caldeweyher, S. Ehlert, S. Grimme, ChemRxiv, 2019, preprint.
     DOI: 10.26434/chemrxiv.8326202.v1
   
   for DFT-D4:
   * E. Caldeweyher, C. Bannwarth and S. Grimme, J. Chem. Phys., 2017,
     147, 034112. DOI: 10.1063/1.4993215
   * E. Caldeweyher, S. Ehlert, A. Hansen, H. Neugebauer, S. Spicher,
     C. Bannwarth and S. Grimme, J. Chem. Phys., 2019, 150, 154122.
     DOI: 10.1063/1.5090222
   
   for sTDA-xTB:
   * S. Grimme and C. Bannwarth, J. Chem. Phys., 2016, 145, 054103.
     DOI: 10.1063/1.4959605
   
   in the mass-spec context:
   * V. Asgeirsson, C. Bauer and S. Grimme, Chem. Sci., 2017, 8, 4879.
     DOI: 10.1039/c7sc00601b
   
   for metadynamics refer to:
   * S. Grimme, J. Chem. Theory Comput., 2019, 155, 2847-2862
     DOI: 10.1021/acs.jctc.9b00143
   
   with help from (in alphabetical order)
   C. Bannwarth, F. Bohle, G. Brandenburg, E. Caldeweyher, M. Checinski,
   S. Dohm, S. Ehlert, S. Ehrlich, F. März, H. Neugebauer, J. Pisarek,
   P. Pracht, P. Shushkov, and S. Spicher.
   
 * started run on 2020/05/12 at 11:44:00.178     

           -------------------------------------------------
          |                Calculation Setup                |
           -------------------------------------------------

          program call               : xtb --input C4N1_7_S_1.input C4N1_7_S_1.xyz --ohess --molden --namespace C4N1_7_S_1 output.out
          calculation namespace      : C4N1_7_S_1
          coordinate file            : C4N1_7_S_1.xyz
          number of atoms            :                     5
          number of electrons        :                    21
          charge                     :                     0
          spin                       :                   0.5
          first test random number   :      0.16604688455378

   ID    Z sym.   atoms
    1    6 C      1, 3-5
    2    7 N      2

           -------------------------------------------------
          |                 G F N 2 - x T B                 |
           -------------------------------------------------

        Reference                      10.1021/acs.jctc.8b01176
      * Hamiltonian:
        H0-scaling (s, p, d)           1.850000    2.230000    2.230000
        zeta-weighting                 0.500000
      * Dispersion:
        s8                             2.700000
        a1                             0.520000
        a2                             5.000000
        s9                             5.000000
      * Repulsion:
        kExp                           1.500000    1.000000
        rExp                           1.000000
      * Coulomb:
        alpha                          2.000000
        third order                    shell-resolved
        anisotropic                    true
        a3                             3.000000
        a5                             4.000000
        cn-shift                       1.200000
        cn-exp                         4.000000
        max-rad                        5.000000


          ...................................................
          :                      SETUP                      :
          :.................................................:
          :  # basis functions                  20          :
          :  # atomic orbitals                  20          :
          :  # shells                           10          :
          :  # electrons                        21          :
          :  max. iterations                   250          :
          :  Hamiltonian                  GFN2-xTB          :
          :  restarted?                      false          :
          :  GBSA solvation                  false          :
          :  PC potential                    false          :
          :  electronic temp.          300.0000000     K    :
          :  accuracy                    1.0000000          :
          :  -> integral cutoff          0.2500000E+02      :
          :  -> integral neglect         0.1000000E-07      :
          :  -> SCF convergence          0.1000000E-05 Eh   :
          :  -> wf. convergence          0.1000000E-03 e    :
          :  Broyden damping             0.4000000          :
          ...................................................

 iter      E             dE          RMSdq      gap      omega  full diag
   1    -10.7913698 -0.107914E+02  0.121E+01    1.66       0.0  T
   2    -10.6967317  0.946381E-01  0.987E+00    0.82       1.0  T
   3    -10.7436272 -0.468956E-01  0.674E+00    1.43       1.0  T
   4     -9.4387451  0.130488E+01  0.129E+01    1.18       1.0  T
   5    -10.9454120 -0.150667E+01  0.189E+00    1.30       1.0  T
   6    -10.9428738  0.253823E-02  0.163E+00    1.32       1.0  T
   7    -10.8468870  0.959867E-01  0.314E+00    1.24       1.0  T
   8    -10.9453116 -0.984246E-01  0.578E-01    1.31       1.0  T
   9    -10.9435795  0.173219E-02  0.726E-01    1.32       1.0  T
  10    -10.9446581 -0.107861E-02  0.563E-01    1.31       1.0  T
  11    -10.9456882 -0.103008E-02  0.361E-01    1.31       1.0  T
  12    -10.9462364 -0.548212E-03  0.142E-01    1.32       1.0  T
  13    -10.9463103 -0.739093E-04  0.671E-02    1.32       1.0  T
  14    -10.9463219 -0.116461E-04  0.484E-02    1.32       1.0  T
  15    -10.9463398 -0.178675E-04  0.271E-02    1.32       1.7  T
  16    -10.9463406 -0.850899E-06  0.189E-02    1.32       2.4  T
  17    -10.9463429 -0.221860E-05  0.401E-03    1.32      11.2  T
  18    -10.9463429 -0.790969E-07  0.222E-03    1.32      20.1  T
  19    -10.9463430 -0.319870E-07  0.976E-04    1.32      45.8  T
  20    -10.9463430 -0.467561E-08  0.304E-04    1.32     147.0  T

   *** convergence criteria satisfied after 20 iterations ***

         #    Occupation            Energy/Eh            Energy/eV
      -------------------------------------------------------------
         1        2.0000           -0.7111484             -19.3513
       ...           ...                  ...                  ...
         5        2.0000           -0.5652353             -15.3808
         6        2.0000           -0.5432311             -14.7821
         7        2.0000           -0.5193526             -14.1323
         8        2.0000           -0.5145194             -14.0008
         9        1.9073           -0.4553513             -12.3907
        10        1.8842           -0.4551154             -12.3843
        11        1.2085           -0.4519166             -12.2973 (HOMO)
        12                         -0.4034833             -10.9793 (LUMO)
        13                         -0.3839381             -10.4475
        14                         -0.3761320             -10.2351
        15                         -0.3308326              -9.0024
        16                         -0.3149897              -8.5713
       ...                                ...                  ...
        20                          0.0740506               2.0150
      -------------------------------------------------------------
                  HL-Gap            0.0484333 Eh            1.3179 eV
             Fermi-level           -0.4404278 Eh          -11.9847 eV

 SCC (total)                   0 d,  0 h,  0 min,  0.005 sec
 SCC setup                      ...        0 min,  0.000 sec (  1.495%)
 Dispersion                     ...        0 min,  0.000 sec (  0.360%)
 integral evaluation            ...        0 min,  0.001 sec ( 24.638%)
 zeroth order Hamiltonian       ...        0 min,  0.000 sec (  0.365%)
 iterations                     ...        0 min,  0.002 sec ( 45.358%)
 molecular gradient             ...        0 min,  0.001 sec ( 25.079%)
 printout                       ...        0 min,  0.000 sec (  2.508%)

         :::::::::::::::::::::::::::::::::::::::::::::::::::::
         ::                     SUMMARY                     ::
         :::::::::::::::::::::::::::::::::::::::::::::::::::::
         :: total energy             -10.894896178038 Eh    ::
         :: gradient norm              0.381396874172 Eh/a0 ::
         :: HOMO-LUMO gap              1.317936845643 eV    ::
         ::.................................................::
         :: SCC energy               -10.946342969850 Eh    ::
         :: -> isotropic ES           -0.030514298862 Eh    ::
         :: -> anisotropic ES         -0.000458938706 Eh    ::
         :: -> anisotropic XC          0.013751829709 Eh    ::
         :: -> dispersion             -0.002878693285 Eh    ::
         :: repulsion energy           0.051447049648 Eh    ::
         :: add. restraining           0.000000000000 Eh    ::
         :::::::::::::::::::::::::::::::::::::::::::::::::::::

      ----------------------------------------------------------- 
     |                   =====================                   |
     |                        A N C O P T                        |
     |                   =====================                   |
     |               Approximate Normal Coordinate               |
     |                Rational Function Optimizer                |
      ----------------------------------------------------------- 

          ...................................................
          :                      SETUP                      :
          :.................................................:
          :   optimization level            normal          :
          :   max. optcycles                   200          :
          :   ANC micro-cycles                  20          :
          :   degrees of freedom                 9          :
          :.................................................:
          :   RF solver                   davidson          :
          :   write xtbopt.log                true          :
          :   linear?                        false          :
          :   energy convergence         0.5000000E-05 Eh   :
          :   grad. convergence          0.1000000E-02 Eh/α :
          :   maximium RF displ.         1.0000000          :
          :   Hlow (freq-cutoff)         0.1000000E-01      :
          :   Hmax (freq-cutoff)         5.0000000          :
          :   S6 in model hess.         20.0000000          :
          ...................................................

generating ANC from model Hessian ...
Using Lindh-Hessian (1995)
 Shifting diagonal of input Hessian by    5.8768146579416657E-003
 Lowest  eigenvalues of input Hessian
   -0.000000   -0.000000    0.000000    0.000000    0.000000    0.000000
    0.010000    0.013646    0.057184    0.123100    0.128297    0.732344
    0.779772    0.996357    1.188744
 Highest eigenvalues
    0.123100    0.128297    0.732344    0.779772    0.996357    1.188744


........................................................................
.............................. CYCLE    1 ..............................
........................................................................
   1    -10.9463430 -0.109463E+02  0.171E-05    1.32       0.0  T
   2    -10.9463430  0.245167E-09  0.157E-04    1.32     284.1  T
   3    -10.9463430 -0.225780E-09  0.474E-05    1.32     944.1  T
     SCC iter.                  ...        0 min,  0.001 sec
     gradient                   ...        0 min,  0.001 sec
 * total energy  :   -10.8948962 Eh     change       -0.2623111E-09 Eh
   gradient norm :     0.3813966 Eh/α   predicted     0.0000000E+00 (-100.00%)
   displ. norm   :     0.4319214 α      lambda       -0.1632183E+00
   maximum displ.:     0.4242765 α      in ANC's #6, #3, #4, ...

........................................................................
.............................. CYCLE    2 ..............................
........................................................................
   1    -11.1362588 -0.111363E+02  0.356E+00    1.39       0.0  T
   2    -10.9673656  0.168893E+00  0.545E+00    1.41       1.0  T
   3    -11.1595983 -0.192233E+00  0.183E+00    1.40       1.0  T
   4    -11.1632564 -0.365813E-02  0.909E-01    1.44       1.0  T
   5    -11.1643647 -0.110833E-02  0.440E-01    1.42       1.0  T
   6    -11.1654019 -0.103721E-02  0.127E-01    1.42       1.0  T
   7    -11.1653990  0.292490E-05  0.649E-02    1.42       1.0  T
   8    -11.1650130  0.385988E-03  0.182E-01    1.42       1.0  T
   9    -11.1654270 -0.413938E-03  0.107E-02    1.43       4.2  T
  10    -11.1654272 -0.272739E-06  0.310E-03    1.43      14.4  T
  11    -11.1654273 -0.271843E-07  0.982E-04    1.43      45.6  T
  12    -11.1654273 -0.169609E-08  0.586E-04    1.43      76.4  T
     SCC iter.                  ...        0 min,  0.001 sec
     gradient                   ...        0 min,  0.001 sec
 * total energy  :   -11.0348688 Eh     change       -0.1399726E+00 Eh
   gradient norm :     0.2463195 Eh/α   predicted    -0.9683379E-01 ( -30.82%)
   displ. norm   :     0.5662150 α      lambda       -0.1364880E+00
   maximum displ.:     0.5422408 α      in ANC's #6, #3, #8, ...

........................................................................
.............................. CYCLE    3 ..............................
........................................................................
   1    -11.4205650 -0.114206E+02  0.312E+00    1.09       0.0  T
   2    -11.3889443  0.316207E-01  0.325E+00    1.08       1.0  T
   3    -11.4314691 -0.425247E-01  0.152E+00    1.07       1.0  T
   4    -11.4357749 -0.430579E-02  0.281E-01    1.04       1.0  T
   5    -11.4359528 -0.177979E-03  0.131E-01    1.04       1.0  T
   6    -11.4355056  0.447234E-03  0.207E-01    1.04       1.0  T
   7    -11.4359659 -0.460254E-03  0.369E-02    1.04       1.2  T
   8    -11.4359716 -0.570176E-05  0.107E-02    1.04       4.2  T
   9    -11.4359720 -0.485487E-06  0.144E-03    1.04      31.1  T
  10    -11.4359720 -0.295283E-08  0.317E-04    1.04     140.9  T
  11    -11.4359720 -0.722586E-10  0.439E-05    1.04    1018.3  T
     SCC iter.                  ...        0 min,  0.001 sec
     gradient                   ...        0 min,  0.002 sec
 * total energy  :   -11.0655105 Eh     change       -0.3064165E-01 Eh
   gradient norm :     0.3651583 Eh/α   predicted    -0.9012300E-01 ( 194.12%)
   displ. norm   :     0.4592108 α      lambda       -0.9832391E-01
   maximum displ.:     0.4108293 α      in ANC's #3, #8, #1, ...

........................................................................
.............................. CYCLE    4 ..............................
........................................................................
   1    -11.3288161 -0.113288E+02  0.236E+00    0.58       0.0  T
   2    -11.3312245 -0.240843E-02  0.125E+00    0.58       1.0  T
   3    -11.3315500 -0.325470E-03  0.788E-01    0.58       1.0  T
   4    -11.3319544 -0.404388E-03  0.869E-02    0.58       1.0  T
   5    -11.3319374  0.169578E-04  0.435E-02    0.58       1.0  T
   6    -11.3319204  0.170208E-04  0.555E-02    0.58       1.0  T
   7    -11.3319409 -0.204342E-04  0.395E-02    0.58       1.1  T
   8    -11.3319553 -0.144032E-04  0.748E-03    0.58       6.0  T
   9    -11.3319556 -0.332119E-06  0.479E-04    0.58      93.4  T
  10    -11.3319556 -0.125762E-08  0.183E-04    0.58     243.9  T
     SCC iter.                  ...        0 min,  0.001 sec
     gradient                   ...        0 min,  0.002 sec
 * total energy  :   -11.1071191 Eh     change       -0.4160860E-01 Eh
   gradient norm :     0.0798058 Eh/α   predicted    -0.5952897E-01 (  43.07%)
   displ. norm   :     0.5616022 α      lambda       -0.1621900E-01
   maximum displ.:     0.4348471 α      in ANC's #1, #3, #6, ...

........................................................................
.............................. CYCLE    5 ..............................
........................................................................
   1    -11.3248718 -0.113249E+02  0.153E+00    0.34       0.0  T
   2    -11.3248389  0.328971E-04  0.907E-01    0.34       1.0  T
   3    -11.3211820  0.365689E-02  0.709E-01    0.36       1.0  T
   4    -11.3250256 -0.384364E-02  0.116E-01    0.34       1.0  T
   5    -11.3250642 -0.385718E-04  0.600E-02    0.34       1.0  T
   6    -11.3247788  0.285378E-03  0.160E-01    0.34       1.0  T
   7    -11.3250841 -0.305287E-03  0.259E-03    0.34      17.3  T
   8    -11.3250841 -0.137835E-07  0.129E-03    0.34      34.7  T
   9    -11.3250841 -0.193801E-11  0.343E-04    0.34     130.4  T
  10    -11.3250841 -0.700819E-09  0.108E-04    0.34     412.2  T
     SCC iter.                  ...        0 min,  0.001 sec
     gradient                   ...        0 min,  0.001 sec
 * total energy  :   -11.1149555 Eh     change       -0.7836408E-02 Eh
   gradient norm :     0.0693401 Eh/α   predicted    -0.1066721E-01 (  36.12%)
   displ. norm   :     0.2084394 α      lambda       -0.9437740E-02
   maximum displ.:     0.1513150 α      in ANC's #6, #4, #3, ...

........................................................................
.............................. CYCLE    6 ..............................
........................................................................
   1    -11.3491855 -0.113492E+02  0.985E-01    0.20       0.0  T
   2    -11.3481349  0.105063E-02  0.835E-01    0.22       1.0  T
   3    -11.3500637 -0.192879E-02  0.472E-01    0.20       1.0  T
   4    -11.3507434 -0.679706E-03  0.219E-01    0.20       1.0  T
   5    -11.3508247 -0.813359E-04  0.541E-02    0.20       1.0  T
   6    -11.3508244  0.325480E-06  0.530E-02    0.20       1.0  T
   7    -11.3508548 -0.303811E-04  0.289E-03    0.20      15.5  T
   8    -11.3508548 -0.191055E-07  0.826E-04    0.20      54.2  T
   9    -11.3508548 -0.184437E-09  0.276E-04    0.20     162.2  T
     SCC iter.                  ...        0 min,  0.001 sec
     gradient                   ...        0 min,  0.001 sec
 * total energy  :   -11.1212561 Eh     change       -0.6300661E-02 Eh
   gradient norm :     0.0380584 Eh/α   predicted    -0.4923890E-02 ( -21.85%)
   displ. norm   :     0.1895517 α      lambda       -0.4096860E-02
   maximum displ.:     0.1314981 α      in ANC's #6, #1, #3, ...

........................................................................
.............................. CYCLE    7 ..............................
........................................................................
   1    -11.3693609 -0.113694E+02  0.939E-01    0.08       0.0  T
   2    -11.3689820  0.378918E-03  0.622E-01    0.10       1.0  T
   3    -11.3680887  0.893373E-03  0.556E-01    0.09       1.0  T
   4    -11.3698373 -0.174860E-02  0.714E-02    0.10       1.0  T
   5    -11.3696816  0.155634E-03  0.119E-01    0.10       1.0  T
   6    -11.3698239 -0.142283E-03  0.532E-02    0.10       1.0  T
   7    -11.3698538 -0.298446E-04  0.746E-03    0.10       6.0  T
   8    -11.3698539 -0.111935E-06  0.134E-03    0.10      33.3  T
   9    -11.3698539 -0.130681E-08  0.512E-04    0.10      87.3  T
  10    -11.3698539 -0.124805E-08  0.169E-04    0.10     264.6  T
     SCC iter.                  ...        0 min,  0.001 sec
     gradient                   ...        0 min,  0.001 sec
 * total energy  :   -11.1241336 Eh     change       -0.2877503E-02 Eh
   gradient norm :     0.0131094 Eh/α   predicted    -0.2122032E-02 ( -26.25%)
   displ. norm   :     0.4243123 α      lambda       -0.3605739E-02
   maximum displ.:     0.3296929 α      in ANC's #1, #6, #3, ...

........................................................................
.............................. CYCLE    8 ..............................
........................................................................
   1    -11.3556952 -0.113557E+02  0.213E+00    0.02       0.0  T
   2    -11.3560552 -0.359943E-03  0.104E+00    0.02       1.0  T
   3    -11.3554376  0.617547E-03  0.432E-01    0.02       1.0  T
   4    -11.3420452  0.133924E-01  0.104E+00    0.03       1.0  T
   5    -11.3550272 -0.129820E-01  0.328E-01    0.03       1.0  T
   6    -11.3561268 -0.109958E-02  0.325E-02    0.02       1.4  T
   7    -11.3561284 -0.163811E-05  0.169E-02    0.02       2.6  T
   8    -11.3561285 -0.636226E-07  0.467E-03    0.02       9.6  T
   9    -11.3561286 -0.990774E-07  0.126E-03    0.02      35.4  T
  10    -11.3561286 -0.258999E-08  0.907E-04    0.02      49.3  T
  11    -11.3561286 -0.216257E-08  0.134E-04    0.02     333.0  T
     SCC iter.                  ...        0 min,  0.001 sec
     gradient                   ...        0 min,  0.002 sec
 * total energy  :   -11.1261327 Eh     change       -0.1999041E-02 Eh
   gradient norm :     0.0325386 Eh/α   predicted    -0.2127454E-02 (   6.42%)
   displ. norm   :     0.1088144 α      lambda       -0.1833475E-02
   maximum displ.:     0.0728285 α      in ANC's #1, #6, #3, ...

........................................................................
.............................. CYCLE    9 ..............................
........................................................................
   1    -11.3712918 -0.113713E+02  0.561E-01    0.00       0.0  T
   2    -11.3704793  0.812546E-03  0.411E-01    0.01       1.0  T
   3    -11.3648435  0.563574E-02  0.730E-01    0.01       1.0  T
   4    -11.3700019 -0.515838E-02  0.370E-01    0.01       1.0  T
   5    -11.3715240 -0.152212E-02  0.733E-02    0.01       1.0  T
   6    -11.3715391 -0.150912E-04  0.182E-02    0.01       2.5  T
   7    -11.3715397 -0.618359E-06  0.628E-03    0.01       7.1  T
   8    -11.3715398 -0.643313E-07  0.279E-03    0.01      16.0  T
   9    -11.3715399 -0.381337E-07  0.820E-04    0.01      54.5  T
  10    -11.3715399 -0.233591E-08  0.305E-04    0.01     146.8  T
     SCC iter.                  ...        0 min,  0.001 sec
     gradient                   ...        0 min,  0.001 sec
 * total energy  :   -11.1274252 Eh     change       -0.1292578E-02 Eh
   gradient norm :     0.0127366 Eh/α   predicted    -0.9275939E-03 ( -28.24%)
   displ. norm   :     0.3375898 α      lambda       -0.1763059E-02
   maximum displ.:     0.2230458 α      in ANC's #1, #2, #6, ...

........................................................................
.............................. CYCLE   10 ..............................
........................................................................
   1    -11.3488853 -0.113489E+02  0.200E+00    0.02       0.0  T
   2    -10.8410946  0.507791E+00  0.668E+00    0.09       1.0  T
   3    -11.3722962 -0.531202E+00  0.976E-01    0.01       1.0  T
   4    -11.3607253  0.115709E-01  0.114E+00    0.01       1.0  T
   5    -11.3735213 -0.127960E-01  0.443E-01    0.01       1.0  T
   6    -11.3744348 -0.913509E-03  0.255E-01    0.01       1.0  T
   7    -11.3744769 -0.420811E-04  0.195E-01    0.01       1.0  T
   8    -11.3745984 -0.121514E-03  0.806E-02    0.01       1.0  T
   9    -11.3746151 -0.166483E-04  0.229E-02    0.01       2.0  T
  10    -11.3746155 -0.454813E-06  0.659E-03    0.01       6.8  T
  11    -11.3746155 -0.165470E-07  0.730E-03    0.01       6.1  T
  12    -11.3746156 -0.554645E-07  0.601E-04    0.01      74.4  T
  13    -11.3746156 -0.426743E-09  0.190E-04    0.01     236.0  T
     SCC iter.                  ...        0 min,  0.001 sec
     gradient                   ...        0 min,  0.001 sec
 * total energy  :   -11.1230134 Eh     change        0.4411813E-02 Eh
   gradient norm :     0.1227502 Eh/α   predicted    -0.9819970E-03 (-122.26%)
   displ. norm   :     0.2223349 α      lambda       -0.1159938E-01
   maximum displ.:     0.2050089 α      in ANC's #2, #1, #6, ...

........................................................................
.............................. CYCLE   11 ..............................
........................................................................
   1    -11.3335793 -0.113336E+02  0.189E+00    0.01       0.0  T
   2    -10.8860738  0.447506E+00  0.618E+00    0.03       1.0  T
   3    -11.3669348 -0.480861E+00  0.828E-01    0.01       1.0  T
   4    -11.3663375  0.597211E-03  0.617E-01    0.01       1.0  T
   5    -11.3681378 -0.180024E-02  0.343E-01    0.01       1.0  T
   6    -11.3689124 -0.774626E-03  0.818E-02    0.01       1.0  T
   7    -11.3689143 -0.188189E-05  0.536E-02    0.01       1.0  T
   8    -11.3689220 -0.765801E-05  0.334E-02    0.01       1.3  T
   9    -11.3689245 -0.253286E-05  0.439E-03    0.01      10.2  T
  10    -11.3689245 -0.404674E-07  0.139E-03    0.01      32.3  T
  11    -11.3689245 -0.564487E-08  0.653E-04    0.01      68.5  T
  12    -11.3689245 -0.108630E-08  0.107E-04    0.01     419.1  T
     SCC iter.                  ...        0 min,  0.002 sec
     gradient                   ...        0 min,  0.001 sec
 * total energy  :   -11.1277137 Eh     change       -0.4700288E-02 Eh
   gradient norm :     0.0268009 Eh/α   predicted    -0.6086389E-02 (  29.49%)
   displ. norm   :     0.3585004 α      lambda       -0.3009653E-02
   maximum displ.:     0.2459767 α      in ANC's #6, #1, #3, ...

........................................................................
.............................. CYCLE   12 ..............................
........................................................................
   1    -11.3867391 -0.113867E+02  0.179E+00    0.06       0.0  T
   2    -11.3766264  0.101127E-01  0.129E+00    0.04       1.0  T
   3    -11.2719606  0.104666E+00  0.304E+00    0.03       1.0  T
   4    -11.3876209 -0.115660E+00  0.341E-01    0.03       1.0  T
   5    -11.3878637 -0.242822E-03  0.146E-01    0.03       1.0  T
   6    -11.3878138  0.498651E-04  0.128E-01    0.03       1.0  T
   7    -11.3879269 -0.113058E-03  0.250E-02    0.03       1.8  T
   8    -11.3879278 -0.901194E-06  0.141E-02    0.03       3.2  T
   9    -11.3879286 -0.759791E-06  0.728E-03    0.03       6.1  T
  10    -11.3879288 -0.218156E-06  0.844E-04    0.03      53.0  T
  11    -11.3879288 -0.367289E-08  0.274E-04    0.03     163.3  T
     SCC iter.                  ...        0 min,  0.001 sec
     gradient                   ...        0 min,  0.001 sec
 * total energy  :   -11.1267401 Eh     change        0.9735779E-03 Eh
   gradient norm :     0.0248492 Eh/α   predicted    -0.1698229E-02 (-274.43%)
   displ. norm   :     0.1831810 α      lambda       -0.2075927E-02
   maximum displ.:     0.1179280 α      in ANC's #6, #1, #3, ...

........................................................................
.............................. CYCLE   13 ..............................
........................................................................
   1    -11.3817681 -0.113818E+02  0.106E+00    0.02       0.0  T
   2    -11.3809415  0.826598E-03  0.544E-01    0.00       1.0  T
   3    -11.3539545  0.269870E-01  0.146E+00    0.00       1.0  T
   4    -11.3816799 -0.277254E-01  0.228E-01    0.00       1.0  T
   5    -11.3818970 -0.217084E-03  0.135E-01    0.00       1.0  T
   6    -11.3819869 -0.899909E-04  0.173E-02    0.00       2.6  T
   7    -11.3819880 -0.102649E-05  0.882E-03    0.00       5.1  T
   8    -11.3819880 -0.186317E-07  0.531E-03    0.00       8.4  T
   9    -11.3819882 -0.164043E-06  0.107E-03    0.00      42.0  T
  10    -11.3819882 -0.461429E-08  0.312E-04    0.00     143.2  T
  11    -11.3819882 -0.213362E-09  0.413E-05    0.00    1083.7  T
     SCC iter.                  ...        0 min,  0.001 sec
     gradient                   ...        0 min,  0.002 sec
 * total energy  :   -11.1281441 Eh     change       -0.1403930E-02 Eh
   gradient norm :     0.0083743 Eh/α   predicted    -0.1072792E-02 ( -23.59%)
   displ. norm   :     0.3878624 α      lambda       -0.1256865E-02
   maximum displ.:     0.3392484 α      in ANC's #1, #6, #8, ...

........................................................................
.............................. CYCLE   14 ..............................
........................................................................
   1    -11.3550188 -0.113550E+02  0.142E+00    0.00       0.0  T
   2    -11.3545777  0.441044E-03  0.890E-01    0.00       1.0  T
   3    -11.3469982  0.757958E-02  0.104E+00    0.00       1.0  T
   4    -11.3412571  0.574103E-02  0.103E+00    0.00       1.0  T
   5    -11.3555556 -0.142985E-01  0.753E-02    0.00       1.0  T
   6    -11.3555757 -0.200985E-04  0.433E-02    0.00       1.0  T
   7    -11.3555828 -0.701699E-05  0.141E-02    0.00       3.2  T
   8    -11.3555836 -0.857770E-06  0.344E-03    0.00      13.0  T
   9    -11.3555837 -0.328859E-07  0.192E-03    0.00      23.2  T
  10    -11.3555837 -0.136381E-07  0.502E-04    0.00      89.1  T
  11    -11.3555837 -0.721467E-10  0.111E-04    0.00     402.9  T
     SCC iter.                  ...        0 min,  0.001 sec
     gradient                   ...        0 min,  0.001 sec
 * total energy  :   -11.1268811 Eh     change        0.1262990E-02 Eh
   gradient norm :     0.0471108 Eh/α   predicted    -0.7229863E-03 (-157.24%)
   displ. norm   :     0.2186430 α      lambda       -0.3791779E-02
   maximum displ.:     0.1881704 α      in ANC's #1, #6, #3, ...

........................................................................
.............................. CYCLE   15 ..............................
........................................................................
   1    -11.3781745 -0.113782E+02  0.831E-01    0.00       0.0  T
   2    -11.3774338  0.740669E-03  0.583E-01    0.00       1.0  T
   3    -11.3692808  0.815300E-02  0.904E-01    0.00       1.0  T
   4    -11.3721483 -0.286744E-02  0.759E-01    0.00       1.0  T
   5    -11.3785987 -0.645043E-02  0.814E-02    0.00       1.0  T
   6    -11.3786415 -0.428100E-04  0.275E-02    0.00       1.6  T
   7    -11.3786432 -0.170952E-05  0.144E-02    0.00       3.1  T
   8    -11.3786436 -0.424361E-06  0.687E-03    0.00       6.5  T
   9    -11.3786438 -0.147354E-06  0.103E-03    0.00      43.3  T
  10    -11.3786438 -0.194367E-08  0.598E-04    0.00      74.8  T
  11    -11.3786438 -0.104476E-08  0.496E-05    0.00     901.0  T
     SCC iter.                  ...        0 min,  0.001 sec
     gradient                   ...        0 min,  0.001 sec
 * total energy  :   -11.1283802 Eh     change       -0.1499104E-02 Eh
   gradient norm :     0.0162724 Eh/α   predicted    -0.1986523E-02 (  32.51%)
   displ. norm   :     0.0935468 α      lambda       -0.7005024E-03
   maximum displ.:     0.0583181 α      in ANC's #1, #5, #6, ...

........................................................................
.............................. CYCLE   16 ..............................
........................................................................
   1    -11.3848294 -0.113848E+02  0.442E-01    0.01       0.0  T
   2    -11.3807149  0.411449E-02  0.632E-01    0.00       1.0  T
   3    -11.3832176 -0.250264E-02  0.435E-01    0.00       1.0  T
   4    -11.3851878 -0.197029E-02  0.181E-01    0.00       1.0  T
   5    -11.3853247 -0.136893E-03  0.269E-02    0.00       1.7  T
   6    -11.3853237  0.995365E-06  0.232E-02    0.00       1.9  T
   7    -11.3853271 -0.331800E-05  0.542E-03    0.00       8.3  T
   8    -11.3853271 -0.365332E-07  0.245E-03    0.00      18.3  T
   9    -11.3853271 -0.648414E-08  0.517E-04    0.00      86.5  T
  10    -11.3853271 -0.454232E-09  0.312E-04    0.00     143.5  T
     SCC iter.                  ...        0 min,  0.001 sec
     gradient                   ...        0 min,  0.001 sec
 * total energy  :   -11.1274360 Eh     change        0.9441372E-03 Eh
   gradient norm :     0.0511070 Eh/α   predicted    -0.3533144E-03 (-137.42%)
   displ. norm   :     0.1081761 α      lambda       -0.2077749E-02
   maximum displ.:     0.0949553 α      in ANC's #1, #5, #6, ...

........................................................................
.............................. CYCLE   17 ..............................
........................................................................
   1    -11.3785327 -0.113785E+02  0.427E-01    0.00       0.0  T
   2    -11.3770397  0.149300E-02  0.434E-01    0.00       1.0  T
   3    -11.3749803  0.205944E-02  0.553E-01    0.00       1.0  T
   4    -11.3785509 -0.357066E-02  0.205E-01    0.00       1.0  T
   5    -11.3787652 -0.214305E-03  0.394E-02    0.00       1.1  T
   6    -11.3787721 -0.690618E-05  0.228E-02    0.00       2.0  T
   7    -11.3787747 -0.259633E-05  0.526E-03    0.00       8.5  T
   8    -11.3787748 -0.187538E-07  0.236E-03    0.00      19.0  T
   9    -11.3787748 -0.112553E-07  0.767E-04    0.00      58.3  T
  10    -11.3787748 -0.194285E-08  0.262E-04    0.00     170.9  T
     SCC iter.                  ...        0 min,  0.001 sec
     gradient                   ...        0 min,  0.001 sec
 * total energy  :   -11.1285152 Eh     change       -0.1079200E-02 Eh
   gradient norm :     0.0032077 Eh/α   predicted    -0.1051034E-02 (  -2.61%)
   displ. norm   :     0.0586872 α      lambda       -0.8166075E-04
   maximum displ.:     0.0474552 α      in ANC's #1, #6, #4, ...

........................................................................
.............................. CYCLE   18 ..............................
........................................................................
   1    -11.3785641 -0.113786E+02  0.231E-01    0.00       0.0  T
   2    -11.3784156  0.148582E-03  0.171E-01    0.00       1.0  T
   3    -11.3762185  0.219705E-02  0.425E-01    0.00       1.0  T
   4    -11.3785742 -0.235567E-02  0.211E-02    0.00       2.1  T
   5    -11.3785755 -0.132380E-05  0.108E-02    0.00       4.1  T
   6    -11.3785762 -0.671466E-06  0.387E-03    0.00      11.6  T
   7    -11.3785762 -0.234527E-07  0.238E-03    0.00      18.8  T
   8    -11.3785762 -0.189479E-07  0.814E-04    0.00      55.0  T
   9    -11.3785762 -0.272390E-08  0.107E-04    0.00     417.4  T
     SCC iter.                  ...        0 min,  0.001 sec
     gradient                   ...        0 min,  0.001 sec
 * total energy  :   -11.1285689 Eh     change       -0.5360511E-04 Eh
   gradient norm :     0.0040955 Eh/α   predicted    -0.4097005E-04 ( -23.57%)
   displ. norm   :     0.1194621 α      lambda       -0.1102169E-03
   maximum displ.:     0.1055598 α      in ANC's #1, #3, #4, ...

........................................................................
.............................. CYCLE   19 ..............................
........................................................................
   1    -11.3770549 -0.113771E+02  0.415E-01    0.00       0.0  T
   2    -11.3770551 -0.219399E-06  0.246E-01    0.00       1.0  T
   3    -11.3767669  0.288250E-03  0.154E-01    0.00       1.0  T
   4    -11.3770173 -0.250418E-03  0.604E-02    0.00       1.0  T
   5    -11.3770593 -0.420547E-04  0.119E-02    0.00       3.8  T
   6    -11.3770596 -0.249695E-06  0.370E-03    0.00      12.1  T
   7    -11.3770596 -0.386075E-07  0.500E-04    0.00      89.4  T
   8    -11.3770596 -0.333262E-10  0.230E-04    0.00     194.6  T
     SCC iter.                  ...        0 min,  0.001 sec
     gradient                   ...        0 min,  0.001 sec
 * total energy  :   -11.1286441 Eh     change       -0.7529188E-04 Eh
   gradient norm :     0.0057960 Eh/α   predicted    -0.5589494E-04 ( -25.76%)
   displ. norm   :     0.1026350 α      lambda       -0.9186894E-04
   maximum displ.:     0.0831585 α      in ANC's #1, #3, #4, ...

........................................................................
.............................. CYCLE   20 ..............................
........................................................................
   1    -11.3776140 -0.113776E+02  0.356E-01    0.00       0.0  T
   2    -11.3774732  0.140761E-03  0.236E-01    0.00       1.0  T
   3    -11.3714378  0.603547E-02  0.684E-01    0.00       1.0  T
   4    -11.3776224 -0.618461E-02  0.275E-02    0.00       1.6  T
   5    -11.3776262 -0.386797E-05  0.108E-02    0.00       4.1  T
   6    -11.3776263 -0.374465E-07  0.710E-03    0.00       6.3  T
   7    -11.3776264 -0.156468E-06  0.213E-03    0.00      21.0  T
   8    -11.3776265 -0.247022E-07  0.824E-04    0.00      54.3  T
   9    -11.3776265 -0.394676E-08  0.133E-04    0.00     335.8  T
     SCC iter.                  ...        0 min,  0.001 sec
     gradient                   ...        0 min,  0.002 sec
 * total energy  :   -11.1287065 Eh     change       -0.6237801E-04 Eh
   gradient norm :     0.0044281 Eh/α   predicted    -0.4641898E-04 ( -25.58%)
   displ. norm   :     0.0521866 α      lambda       -0.5644445E-04
   maximum displ.:     0.0341547 α      in ANC's #3, #1, #4, ...
 * RMSD in coord.:     1.1567202 α      energy gain  -0.2338103E+00 Eh

generating ANC from model Hessian ...
Using Lindh-Hessian (1995)
 Shifting diagonal of input Hessian by    9.2871666203710561E-003
 Lowest  eigenvalues of input Hessian
   -0.000000   -0.000000   -0.000000   -0.000000    0.000000    0.000000
    0.010000    0.011294    0.157216    0.347924    0.569581    1.141859
    1.261594    2.155546    3.136533
 Highest eigenvalues
    0.347924    0.569581    1.141859    1.261594    2.155546    3.136533


........................................................................
.............................. CYCLE   21 ..............................
........................................................................
   1    -11.3802360 -0.113802E+02  0.183E-01    0.00       0.0  T
   2    -11.3802319  0.411529E-05  0.114E-01    0.00       1.0  T
   3    -11.3800467  0.185228E-03  0.140E-01    0.00       1.0  T
   4    -11.3800468 -0.120235E-06  0.123E-01    0.00       1.0  T
   5    -11.3802416 -0.194837E-03  0.673E-03    0.00       6.6  T
   6    -11.3802418 -0.129683E-06  0.373E-03    0.00      12.0  T
   7    -11.3802418  0.737312E-09  0.155E-03    0.00      28.8  T
   8    -11.3802418 -0.196250E-07  0.253E-04    0.00     176.7  T
   9    -11.3802418 -0.175975E-09  0.100E-04    0.00     447.3  T
     SCC iter.                  ...        0 min,  0.001 sec
     gradient                   ...        0 min,  0.001 sec
 * total energy  :   -11.1287384 Eh     change       -0.3185907E-04 Eh
   gradient norm :     0.0014014 Eh/α   predicted     0.0000000E+00 (-100.00%)
   displ. norm   :     0.0053071 α      lambda       -0.1746188E-05
   maximum displ.:     0.0041054 α      in ANC's #2, #3, #1, ...

........................................................................
.............................. CYCLE   22 ..............................
........................................................................
   1    -11.3799894 -0.113800E+02  0.214E-02    0.00       0.0  T
   2    -11.3799890  0.462920E-06  0.146E-02    0.00       3.1  T
   3    -11.3799794  0.958430E-05  0.281E-02    0.00       1.6  T
   4    -11.3799881 -0.867330E-05  0.130E-02    0.00       3.4  T
   5    -11.3799897 -0.161605E-05  0.161E-03    0.00      27.7  T
   6    -11.3799897 -0.822292E-08  0.893E-04    0.00      50.1  T
   7    -11.3799897 -0.327937E-08  0.321E-04    0.00     139.3  T
     SCC iter.                  ...        0 min,  0.001 sec
     gradient                   ...        0 min,  0.001 sec
 * total energy  :   -11.1287391 Eh     change       -0.6994362E-06 Eh
   gradient norm :     0.0005730 Eh/α   predicted    -0.8736648E-06 (  24.91%)
   displ. norm   :     0.0171632 α      lambda       -0.2888643E-05
   maximum displ.:     0.0158926 α      in ANC's #2, #3, #1, ...

   *** GEOMETRY OPTIMIZATION CONVERGED AFTER 22 ITERATIONS ***

------------------------------------------------------------------------
 total energy gain   :        -0.2338429 Eh     -146.7386 kcal/mol
 total RMSD          :         1.1568286 a0        0.6122 Å
 total power (kW/mol):       -27.9070210 (step)-7419.6598 (real)
------------------------------------------------------------------------

 ANCopt (total)                0 d,  0 h,  0 min,  0.083 sec
 optimizer setup                ...        0 min,  0.000 sec (  0.063%)
 model hessian                  ...        0 min,  0.000 sec (  0.101%)
 ANC generation                 ...        0 min,  0.000 sec (  0.095%)
 coordinate transformation      ...        0 min,  0.000 sec (  0.045%)
 single point calculation       ...        0 min,  0.081 sec ( 97.345%)
 optimization log               ...        0 min,  0.001 sec (  0.762%)
 hessian update                 ...        0 min,  0.000 sec (  0.073%)
 rational function              ...        0 min,  0.001 sec (  0.687%)

================
 final structure:
================
5
 xtb: 6.2.2 (9d81278992624c895f80dd42a50cac0aa55982e2)
C         1.21787014506537    0.10308289291785   -0.10267415568995
N        -0.00011109537947    0.01450009747838    0.01358895093504
C        -1.21821885298033   -0.09061446185162    0.11145525790242
C         2.48913459291972    0.18215480192926   -0.22336966263029
C        -2.48867478962529   -0.20912333047387    0.20100060948279

 Bond Distances (Angstroems)
 ---------------------------
C1-N2=1.2267         C1-C4=1.2794         N2-C1=1.2267         N2-C3=1.2265         C3-N2=1.2265         C3-C5=1.2791         
C4-C1=1.2794         C5-C3=1.2791         
 C  C  Rav=1.2793 sigma=0.0002  Rmin=1.2791  Rmax=1.2794     2
 N  C  Rav=1.2266 sigma=0.0001  Rmin=1.2265  Rmax=1.2267     2

 selected bond angles (degree)
 --------------------
C4-C1-N2=179.40                C3-N2-C1=178.84                C5-C3-N2=179.31                

 selected dihedral angles (degree)
 ---------------------------------
C3-N2-C1-C4=309.39            C5-C3-N2-C1=353.46            
           -------------------------------------------------
          |                Final Singlepoint                |
           -------------------------------------------------

          ...................................................
          :                      SETUP                      :
          :.................................................:
          :  # basis functions                  20          :
          :  # atomic orbitals                  20          :
          :  # shells                           10          :
          :  # electrons                        21          :
          :  max. iterations                   250          :
          :  Hamiltonian                  GFN2-xTB          :
          :  restarted?                      false          :
          :  GBSA solvation                  false          :
          :  PC potential                    false          :
          :  electronic temp.          300.0000000     K    :
          :  accuracy                    1.0000000          :
          :  -> integral cutoff          0.2500000E+02      :
          :  -> integral neglect         0.1000000E-07      :
          :  -> SCF convergence          0.1000000E-05 Eh   :
          :  -> wf. convergence          0.1000000E-03 e    :
          :  Broyden damping             0.4000000          :
          ...................................................

 iter      E             dE          RMSdq      gap      omega  full diag
   1    -11.3799897 -0.113800E+02  0.962E-05    0.00       0.0  T
   2    -11.3799897  0.918909E-10  0.898E-05    0.00     498.2  T
   3    -11.3799897  0.195856E-09  0.156E-04    0.00     285.9  T

   *** convergence criteria satisfied after 3 iterations ***

         #    Occupation            Energy/Eh            Energy/eV
      -------------------------------------------------------------
         1        2.0000           -0.7245977             -19.7173
       ...           ...                  ...                  ...
         5        2.0000           -0.5920642             -16.1109
         6        2.0000           -0.5920543             -16.1106
         7        2.0000           -0.4752799             -12.9330
         8        2.0000           -0.4752739             -12.9329
         9        2.0000           -0.4638954             -12.6232
        10        2.0000           -0.4482897             -12.1986
        11        0.5002           -0.4045098             -11.0073 (HOMO)
        12        0.4998           -0.4045083             -11.0072 (LUMO)
        13                         -0.2463550              -6.7037
        14                         -0.2463468              -6.7034
        15                         -0.1421464              -3.8680
        16                         -0.1419822              -3.8635
       ...                                ...                  ...
        20                          1.3765468              37.4577
      -------------------------------------------------------------
                  HL-Gap            0.0000014 Eh            0.0000 eV
             Fermi-level           -0.4156126 Eh          -11.3094 eV

 SCC (total)                   0 d,  0 h,  0 min,  0.003 sec
 SCC setup                      ...        0 min,  0.000 sec (  1.316%)
 Dispersion                     ...        0 min,  0.000 sec (  0.431%)
 integral evaluation            ...        0 min,  0.001 sec ( 41.241%)
 zeroth order Hamiltonian       ...        0 min,  0.000 sec (  0.494%)
 iterations                     ...        0 min,  0.000 sec ( 11.266%)
 molecular gradient             ...        0 min,  0.001 sec ( 42.518%)
 printout                       ...        0 min,  0.000 sec (  2.397%)

         :::::::::::::::::::::::::::::::::::::::::::::::::::::
         ::                     SUMMARY                     ::
         :::::::::::::::::::::::::::::::::::::::::::::::::::::
         :: total energy             -11.128739081424 Eh    ::
         :: gradient norm              0.000572458033 Eh/a0 ::
         :: HOMO-LUMO gap              0.000038672688 eV    ::
         ::.................................................::
         :: SCC energy               -11.379989698038 Eh    ::
         :: -> isotropic ES           -0.017019836745 Eh    ::
         :: -> anisotropic ES         -0.000490928837 Eh    ::
         :: -> anisotropic XC          0.024591399456 Eh    ::
         :: -> dispersion             -0.002677977522 Eh    ::
         :: repulsion energy           0.251251831408 Eh    ::
         :: add. restraining           0.000000000000 Eh    ::
         :::::::::::::::::::::::::::::::::::::::::::::::::::::

           ------------------------------------------------- 
          |                Numerical Hessian                |
           ------------------------------------------------- 
step length          :   0.00500
SCC accuracy         :   0.30000
Hessian scale factor :   1.00000
frozen atoms in %    :   0.00000    0
RMS gradient         :   0.00057
estimated CPU  time      0.00 min
estimated wall time      0.00 min

writing file <hessian>.

 projected vibrational frequencies (cm-1)
eigval :       -0.00    -0.00    -0.00    -0.00     0.00     0.00
eigval :       78.01   220.63   222.24   396.37   397.48   862.44
eigval :     1508.51  1976.46  2005.35
           -------------------------------------------------
          |                Property Printout                |
           -------------------------------------------------

    * Orbital Energies and Occupations

         #    Occupation            Energy/Eh            Energy/eV
      -------------------------------------------------------------
         1        2.0000           -0.7245980             -19.7173
         2        2.0000           -0.6921903             -18.8355
         3        2.0000           -0.6676581             -18.1679
         4        2.0000           -0.6421951             -17.4750
         5        2.0000           -0.5920645             -16.1109
         6        2.0000           -0.5920546             -16.1106
         7        2.0000           -0.4752800             -12.9330
         8        2.0000           -0.4752740             -12.9329
         9        2.0000           -0.4638953             -12.6232
        10        2.0000           -0.4482896             -12.1986
        11        0.5002           -0.4045097             -11.0073 (HOMO)
        12        0.4998           -0.4045083             -11.0072 (LUMO)
        13                         -0.2463550              -6.7037
        14                         -0.2463468              -6.7034
        15                         -0.1421466              -3.8680
        16                         -0.1419823              -3.8635
        17                          0.0244236               0.6646
        18                          0.4021899              10.9441
        19                          0.9117590              24.8102
        20                          1.3765466              37.4577
      -------------------------------------------------------------
                  HL-Gap            0.0000014 Eh            0.0000 eV
             Fermi-level           -0.4156125 Eh          -11.3094 eV

     #   Z        covCN         q      C6AA      α(0)
     1   6 C      1.899     0.101    28.612     8.639
     2   7 N      1.823     0.083    20.446     6.700
     3   6 C      1.899     0.101    28.611     8.639
     4   6 C      0.982    -0.142    40.543    10.695
     5   6 C      0.982    -0.142    40.545    10.695

 Mol. C6AA /au·bohr⁶  :        780.084599
 Mol. C8AA /au·bohr⁸  :      21649.695067
 Mol. α(0) /au        :         45.368103


Wiberg/Mayer (AO) data.
largest (>0.10) Wiberg bond orders for each atom
          total WBO             WBO to atom ...
     1  C   3.874        C    4 1.904    N    2 1.683    C    5 0.206
     2  N   3.440        C    3 1.683    C    1 1.683
     3  C   3.874        C    5 1.905    N    2 1.683    C    4 0.206
     4  C   2.239        C    1 1.904    C    3 0.206
     5  C   2.239        C    3 1.905    C    1 0.206

MOs/occ written to file <molden.input>


molecular dipole:
                 x           y           z       tot (Debye)
 q only:       -0.000       0.012       0.010
   full:       -0.000       0.027       0.023       0.090
molecular quadrupole (traceless):
                xx          xy          yy          xz          yz          zz
 q only:       -5.182      -0.614       2.595       0.663       0.052       2.587
  q+dip:       -9.855      -1.162       4.934       1.247       0.097       4.921
   full:      -14.470      -1.707       7.245       1.833       0.142       7.225

           -------------------------------------------------
          |                Geometry Summary                 |
           -------------------------------------------------

      molecular mass/u    :       62.0496468
   center of mass at/Å    :       -0.0000036       0.0004664       0.0004373
  moments of inertia/u·Å² :        0.1449933E-01   0.1869451E+03   0.1869592E+03
rotational constants/cm⁻¹ :        0.1162649E+04   0.9017422E-01   0.9016743E-01

 * 2 selected distances

     #   Z        #   Z                                     value/Å
     1   6 C      2   7 N                                 1.2267201 (max)
     2   7 N      3   6 C                                 1.2265453 (min)

 * 1 distinct bonds (by element types)

   Z      Z             #   av. dist./Å        max./Å        min./Å
   6 C    7 N           2     1.2266327     1.2267201     1.2265453

           -------------------------------------------------
          |               Frequency Printout                |
           -------------------------------------------------
 projected vibrational frequencies (cm-1)
eigval :       -0.00    -0.00    -0.00    -0.00     0.00     0.00
eigval :       78.01   220.63   222.24   396.37   397.48   862.44
eigval :     1508.51  1976.46  2005.35
 reduced masses (amu)
   1: 12.09   2: 12.08   3: 12.30   4: 12.93   5: 12.58   6: 12.16   7: 12.75   8: 12.02
   9: 12.01  10: 12.86  11: 12.79  12: 12.01  13: 12.66  14: 12.01  15: 12.91
 IR intensities (amu)
   1:  0.26   2:  0.26   3:  0.08   4:  0.30   5:  0.23   6:  0.18   7:  0.55   8:  0.07
   9:  0.01  10:  0.22  11:  0.24  12:  0.00  13:  0.46  14:  0.06  15:  2.20
 Raman intensities (amu)
   1:  0.00   2:  0.00   3:  0.00   4:  0.00   5:  0.00   6:  0.00   7:  0.00   8:  0.00
   9:  0.00  10:  0.00  11:  0.00  12:  0.00  13:  0.00  14:  0.00  15:  0.00
 output can be read by thermo (or use thermo option).
 writing <g98.out> molden fake output.
Molecule has the following symmetry elements: (i) (Cinf) (C2) 2*(sigma) 
It seems to be the Dinfh point group
 recommended (thermochemical) frequency scaling factor: 1.0
           -------------------------------------------------
          |             Thermodynamic Functions             |
           -------------------------------------------------

din symmetry found (for desy threshold:  0.10E+00) used in thermo

          ...................................................
          :                      SETUP                      :
          :.................................................:
          :  # frequencies                           9      :
          :  # imaginary freq.                       0      :
          :  linear?                             false      :
          :  only rotor calc.                    false      :
          :  symmetry                              din      :
          :  rotational number                       1      :
          :  scaling factor                  1.0000000      :
          :  rotor cutoff                   50.0000000 cm⁻¹ :
          :  imag. cutoff                  -20.0000000 cm⁻¹ :
          :.................................................:

    mode    ω/cm⁻¹     T·S(HO)/kcal·mol⁻¹    T·S(FR)/kcal·mol⁻¹   T·S(vib)
   ------------------------------------------------------------------------
       1     78.01    -0.00000 ( 85.56%)     0.00273 ( 14.44%)     0.00039
       2    220.63    -0.00000 ( 99.74%)     0.01305 (  0.26%)     0.00003
       3    222.24    -0.00000 ( 99.74%)     0.01312 (  0.26%)     0.00003
   ------------------------------------------------------------------------

   temp. (K)  partition function   enthalpy   heat capacity  entropy
                                   cal/mol     cal/K/mol   cal/K/mol   J/K/mol
 298.15  VIB   10.3                 1585.296      9.185      9.839
         ROT  0.172E+04              888.752      2.981     17.786
         INT  0.178E+05             2474.048     12.166     27.625
         TR   0.473E+27             1481.254      4.968     38.278
         TOT                        3955.3024    17.1343    65.9030   275.7383

   temp. (K)  partition function   enthalpy   heat capacity  entropy
                                   cal/mol     cal/K/mol   cal/K/mol   J/K/mol
 120.00  VIB   1.94                  259.549      4.919      3.481
         ROT   439.                  357.707      2.981     15.073
         INT   851.                  617.256      7.900     18.554
         TR   0.121E+27              596.178      4.968     33.759
         TOT                        1213.4335    12.8683    52.3130   218.8776

   temp. (K)  partition function   enthalpy   heat capacity  entropy
                                   cal/mol     cal/K/mol   cal/K/mol   J/K/mol
 100.00  VIB   1.62                  169.793      4.039      2.687
         ROT   334.                  298.089      2.981     14.529
         INT   542.                  467.882      7.020     17.217
         TR   0.919E+26              496.815      4.968     32.853
         TOT                         964.6974    11.9880    50.0701   209.4935

   temp. (K)  partition function   enthalpy   heat capacity  entropy
                                   cal/mol     cal/K/mol   cal/K/mol   J/K/mol
  80.00  VIB   1.38                   98.576      3.072      1.921
         ROT   239.                  238.471      2.981     13.864
         INT   330.                  337.047      6.053     15.785
         TR   0.657E+26              397.452      4.968     31.745
         TOT                         734.4990    11.0213    47.5302   198.8662

   temp. (K)  partition function   enthalpy   heat capacity  entropy
                                   cal/mol     cal/K/mol   cal/K/mol   J/K/mol
  60.00  VIB   1.19                   47.068      2.083      1.211
         ROT   155.                  178.853      2.981     13.007
         INT   185.                  225.921      5.063     14.217
         TR   0.427E+26              298.089      4.968     30.317
         TOT                         524.0101    10.0316    44.5342   186.3312

   temp. (K)  partition function   enthalpy   heat capacity  entropy
                                   cal/mol     cal/K/mol   cal/K/mol   J/K/mol
  40.00  VIB   1.07                   14.793      1.160      0.585
         ROT   84.5                  119.236      2.981     11.798
         INT   90.0                  134.028      4.141     12.383
         TR   0.232E+26              198.726      4.968     28.303
         TOT                         332.7542     9.1087    40.6863   170.2314

   temp. (K)  partition function   enthalpy   heat capacity  entropy
                                   cal/mol     cal/K/mol   cal/K/mol   J/K/mol
  20.00  VIB   1.00                    0.818      0.231      0.097
         ROT   29.9                   59.618      2.981      9.732
         INT   30.0                   60.436      3.211      9.829
         TR   0.822E+25               99.363      4.968     24.861
         TOT                         159.7990     8.1796    34.6906   145.1453

   temp. (K)  partition function   enthalpy   heat capacity  entropy
                                   cal/mol     cal/K/mol   cal/K/mol   J/K/mol
  10.00  VIB   1.00                    0.003      0.003     -0.047
         ROT   10.6                   29.809      2.981      7.666
         INT   10.6                   29.812      2.984      7.619
         TR   0.290E+25               49.681      4.968     21.419
         TOT                          79.4934     7.9524    29.0380   121.4952

       T/K    H(0)-H(T)+PV         H(T)/Eh          T*S/Eh         G(T)/Eh
   ------------------------------------------------------------------------
    298.15    0.630318E-02    0.237710E-01    0.313127E-01   -0.754165E-02
    120.00    0.193373E-02    0.194016E-01    0.100039E-01    0.939763E-02
    100.00    0.153734E-02    0.190052E-01    0.797919E-02    0.110260E-01
     80.00    0.117050E-02    0.186383E-01    0.605953E-02    0.125788E-01
     60.00    0.835063E-03    0.183029E-01    0.425819E-02    0.140447E-01
     40.00    0.530278E-03    0.179981E-01    0.259351E-02    0.154046E-01
     20.00    0.254656E-03    0.177225E-01    0.110566E-02    0.166168E-01
     10.00    0.126681E-03    0.175945E-01    0.462751E-03    0.171318E-01 (used)
   ------------------------------------------------------------------------

         :::::::::::::::::::::::::::::::::::::::::::::::::::::
         ::                  THERMODYNAMIC                  ::
         :::::::::::::::::::::::::::::::::::::::::::::::::::::
         :: total free energy         -11.111607323436 Eh   ::
         ::.................................................::
         :: total energy              -11.128739081254 Eh   ::
         :: zero point energy           0.017467827789 Eh   ::
         :: G(RRHO) w/o ZPVE           -0.000336069971 Eh   ::
         :: G(RRHO) contrib.            0.017131757818 Eh   ::
         :::::::::::::::::::::::::::::::::::::::::::::::::::::

optimized geometry written to: xtbopt.xyz


           -------------------------------------------------
          | TOTAL ENERGY              -11.128739081254 Eh   |
          | TOTAL ENTHALPY            -11.111144572702 Eh   |
          | TOTAL FREE ENERGY         -11.111607323436 Eh   |
          | GRADIENT NORM               0.000572588190 Eh/α |
          | HOMO-LUMO GAP               0.000038736564 eV   |
           -------------------------------------------------

------------------------------------------------------------------------
 * finished run on 2020/05/12 at 11:44:00.383     
------------------------------------------------------------------------
 total:
 * wall-time:     0 d,  0 h,  0 min,  0.204 sec
 *  cpu-time:     0 d,  0 h,  0 min,  0.204 sec
 * ratio c/w:     0.998 speedup
 SCF:
 * wall-time:     0 d,  0 h,  0 min,  0.005 sec
 *  cpu-time:     0 d,  0 h,  0 min,  0.005 sec
 * ratio c/w:     1.000 speedup
 ANC optimizer:
 * wall-time:     0 d,  0 h,  0 min,  0.086 sec
 *  cpu-time:     0 d,  0 h,  0 min,  0.086 sec
 * ratio c/w:     0.999 speedup
 numerical hessian:
 * wall-time:     0 d,  0 h,  0 min,  0.096 sec
 *  cpu-time:     0 d,  0 h,  0 min,  0.096 sec
 * ratio c/w:     0.997 speedup

