5
 energy: -8.547561967354 gnorm: 0.168332318274 xtb: 6.2.2 (9d81278992624c895f80dd42a50cac0aa55982e2)
C         0.62014300000000    0.20377500000000    0.09473900000000
C        -0.62109000000000    0.13926100000000    0.96096400000000
C        -0.60903300000000   -0.62099800000000   -0.31971900000000
C        -0.65222600000000    0.86583900000000   -0.39270200000000
H         1.26220600000000   -0.58787700000000   -0.34328200000000
5
 energy: -8.616228895484 gnorm: 0.164323010058 xtb: 6.2.2 (9d81278992624c895f80dd42a50cac0aa55982e2)
C         0.60408311087154    0.19145112676106    0.08866805676059
C        -0.56350716677339    0.08077164415818    0.98103638787115
C        -0.77077759249051   -0.60490283728568   -0.30738500756333
C        -0.59632095657554    0.85129868472497   -0.45458863977718
H         1.32652260496791   -0.51861861835853   -0.30773079729123
5
 energy: -8.690145195425 gnorm: 0.121247927363 xtb: 6.2.2 (9d81278992624c895f80dd42a50cac0aa55982e2)
C         0.57999700127085    0.20710641821621    0.09795354983289
C        -0.43181321172120   -0.07119966099586    1.00504029159555
C        -1.08702847032728   -0.54049862973587   -0.26557403431835
C        -0.46822296107279    0.78979484942357   -0.59919305564902
H         1.40706764185042   -0.38520297690805   -0.23822675146107
5
 energy: -8.701105694416 gnorm: 0.097819729764 xtb: 6.2.2 (9d81278992624c895f80dd42a50cac0aa55982e2)
C         0.59493133460702    0.20169112766753    0.09482780398804
C        -0.43186594518453   -0.10364829681104    1.00441019387259
C        -1.13432803089321   -0.49383329506320   -0.23938112283243
C        -0.46864129773024    0.77126320825889   -0.62593651798459
H         1.43990393920096   -0.37547274405218   -0.23392035704362
5
 energy: -8.712383507640 gnorm: 0.042262178640 xtb: 6.2.2 (9d81278992624c895f80dd42a50cac0aa55982e2)
C         0.61761110540461    0.18671616070728    0.08622408234975
C        -0.43910164011469   -0.14952075822616    0.98878770859898
C        -1.18430667698227   -0.40491631904698   -0.19055990541374
C        -0.47613596995714    0.73269721429493   -0.65524030118897
H         1.48193318164950   -0.36497629772908   -0.22921158434602
5
 energy: -8.714445909412 gnorm: 0.025970630224 xtb: 6.2.2 (9d81278992624c895f80dd42a50cac0aa55982e2)
C         0.61425170261195    0.17015096158390    0.07739253356568
C        -0.43273492704004   -0.16653275693775    0.97896258908810
C        -1.22427318173263   -0.37093559712384   -0.17146415610922
C        -0.46977837868321    0.71522603465903   -0.66419075752771
H         1.51253478484392   -0.34790864218134   -0.22070020901686
5
 energy: -8.715609674381 gnorm: 0.015304651019 xtb: 6.2.2 (9d81278992624c895f80dd42a50cac0aa55982e2)
C         0.60826165213730    0.14534069865167    0.06425096888647
C        -0.42750060226881   -0.17234263872452    0.96731636263391
C        -1.25532892794522   -0.34783586347827   -0.15837627089401
C        -0.46422086621513    0.70241527581195   -0.66278888874144
H         1.53878874429187   -0.32757747226083   -0.21040217188494
5
 energy: -8.716164192207 gnorm: 0.013748662635 xtb: 6.2.2 (9d81278992624c895f80dd42a50cac0aa55982e2)
C         0.60369822734845    0.12054547787920    0.05106125085071
C        -0.42463149374797   -0.17028104817775    0.95909350710910
C        -1.27502245226308   -0.33764103656024   -0.15248204577940
C        -0.46103443598905    0.69677523405808   -0.65662332035705
H         1.55699015465166   -0.30939862719929   -0.20104939182337
5
 energy: -8.716408569483 gnorm: 0.009159488682 xtb: 6.2.2 (9d81278992624c895f80dd42a50cac0aa55982e2)
C         0.60185501822155    0.10143180433641    0.04087563822447
C        -0.42425839393364   -0.16555869530058    0.95567930833755
C        -1.28429406490986   -0.33561366683093   -0.15118272883086
C        -0.46042912039711    0.69655884824873   -0.65082131150444
H         1.56712656101906   -0.29681829045363   -0.19455090622672
5
 energy: -8.716474257536 gnorm: 0.003709161572 xtb: 6.2.2 (9d81278992624c895f80dd42a50cac0aa55982e2)
C         0.60118486627962    0.09269322704880    0.03619885442822
C        -0.42466657859462   -0.16272544708077    0.95639263587239
C        -1.28641099917544   -0.33696938243901   -0.15187192484607
C        -0.46081550914338    0.69871648991706   -0.64883339381963
H         1.57070822063381   -0.29171488744609   -0.19188617163492
5
 energy: -8.716486927325 gnorm: 0.002064900951 xtb: 6.2.2 (9d81278992624c895f80dd42a50cac0aa55982e2)
C         0.60076326047963    0.09107031512556    0.03534682361127
C        -0.42511253611928   -0.16214039774986    0.95784794098981
C        -1.28491859845838   -0.33781536358166   -0.15235441538712
C        -0.46128654131337    0.70023936358633   -0.64913791811850
H         1.57055441541140   -0.29135391738036   -0.19170243109545
5
 energy: -8.716493069481 gnorm: 0.001573390214 xtb: 6.2.2 (9d81278992624c895f80dd42a50cac0aa55982e2)
C         0.59990214046843    0.09055030186094    0.03508363227420
C        -0.42510657536079   -0.16248454341884    0.95928597060235
C        -1.28362888300593   -0.33788997543601   -0.15242835673191
C        -0.46134106040455    0.70124277926053   -0.65021633595488
H         1.57017437830284   -0.29141856226662   -0.19172491018977
5
 energy: -8.716495784699 gnorm: 0.000798356525 xtb: 6.2.2 (9d81278992624c895f80dd42a50cac0aa55982e2)
C         0.59878754134835    0.09034681037027    0.03500554661320
C        -0.42491912371366   -0.16333946587129    0.96045092740465
C        -1.28180542368507   -0.33714117884819   -0.15206666048659
C        -0.46120204280466    0.70173583574283   -0.65158123366583
H         1.56913904885504   -0.29160200139362   -0.19180857986544
