$hessian                                                                        
        0.7794338931  -0.1803828783  -0.1091831732  -0.2050930307  -0.0311799753
        0.1864263312  -0.0828349529  -0.0364617225  -0.0165653484  -0.2150673123
        0.1377234033  -0.1254109040  -0.2764385972   0.1103011729   0.0647330944
       -0.1803828783   0.1651071430  -0.0261952782   0.0231345634  -0.0237207087
        0.0059637132  -0.0342481994   0.0124126447  -0.0170766876   0.0937365375
       -0.0871976057   0.0595597571   0.0977599768  -0.0666014734  -0.0222515045
       -0.1091831732  -0.0261952782   0.2098452850   0.0971684370   0.0202819388
       -0.1387606630  -0.0155383184  -0.0170680093   0.0368450919  -0.0304823631
        0.0455324047  -0.0652929264   0.0580354177  -0.0225510560  -0.0426367874
       -0.2050930307   0.0231345634   0.0971684370   0.2441403868   0.0349063608
       -0.0344074185  -0.1097921054  -0.0537794874  -0.0781353294   0.0854421768
        0.0090702501   0.0029227925  -0.0146974275  -0.0133316868   0.0124515185
       -0.0311799753  -0.0237207087   0.0202819388   0.0349063608   0.0614092208
       -0.0417178563  -0.0171553031  -0.0396343466  -0.0289134894   0.0109773833
        0.0045833697   0.0583733297   0.0024515343  -0.0026375352  -0.0080239228
        0.1864263312   0.0059637132  -0.1387606630  -0.0344074185  -0.0417178563
        0.4075988069  -0.1510245104  -0.0760362854  -0.1604956324  -0.0027650029
        0.1099593576  -0.1076024558   0.0017706007   0.0018310709  -0.0007400558
       -0.0828349529  -0.0342481994  -0.0155383184  -0.1097921054  -0.0171553031
       -0.1510245104   0.2904368305   0.1754134076   0.0907995470  -0.1030681471
       -0.1336356474   0.0707908748   0.0052583749   0.0096257423   0.0049724070
       -0.0364617225   0.0124126447  -0.0170680093  -0.0537794874  -0.0396343466
       -0.0760362854   0.1754134076   0.1909448194   0.0212781793  -0.0913702106
       -0.1762325096   0.0634258056   0.0061980130   0.0125093922   0.0084003098
       -0.0165653484  -0.0170766876   0.0368450919  -0.0781353294  -0.0289134894
       -0.1604956324   0.0907995470   0.0212781793   0.1532583519   0.0007551866
        0.0163991961  -0.0305954190   0.0031459443   0.0083128017   0.0009876076
       -0.2150673123   0.0937365375  -0.0304823631   0.0854421768   0.0109773833
       -0.0027650029  -0.1030681471  -0.0913702106   0.0007551866   0.2480606723
       -0.0158948977   0.0499499170  -0.0153673897   0.0025511875  -0.0174577377
        0.1377234033  -0.0871976057   0.0455324047   0.0090702501   0.0045833697
        0.1099593576  -0.1336356474  -0.1762325096   0.0163991961  -0.0158948977
        0.2629315046  -0.1742987841   0.0027368917  -0.0040847590   0.0024078257
       -0.1254109040   0.0595597571  -0.0652929264   0.0029227925   0.0583733297
       -0.1076024558   0.0707908748   0.0634258056  -0.0305954190   0.0499499170
       -0.1742987841   0.2021223255   0.0017473196  -0.0070601084   0.0013684757
       -0.2764385972   0.0977599768   0.0580354177  -0.0146974275   0.0024515343
        0.0017706007   0.0052583749   0.0061980130   0.0031459443  -0.0153673897
        0.0027368917   0.0017473196   0.3012450395  -0.1091464159  -0.0646992822
        0.1103011729  -0.0666014734  -0.0225510560  -0.0133316868  -0.0026375352
        0.0018310709   0.0096257423   0.0125093922   0.0083128017   0.0025511875
       -0.0040847590  -0.0070601084  -0.1091464159   0.0608143755   0.0194672918
        0.0647330944  -0.0222515045  -0.0426367874   0.0124515185  -0.0080239228
       -0.0007400558   0.0049724070   0.0084003098   0.0009876076  -0.0174577377
        0.0024078257   0.0013684757  -0.0646992822   0.0194672918   0.0410207598
