[Molden Format]
[Title]
[Atoms] AU
C      1     6  0.11315454798331E+01  0.17072490269182E+00  0.66146641987566E-01
C      2     6 -0.80297597506877E+00 -0.30865945507924E+00  0.18149923821860E+01
C      3     6 -0.24222653100001E+01 -0.63709225284768E+00 -0.28735474709942E+00
C      4     6 -0.87154282285880E+00  0.13260908327174E+01 -0.12313092375173E+01
H      5     1  0.29652386280945E+01 -0.55106402748230E+00 -0.36247503955676E+00
[GTO]
           1 0
 s           4   1.0000000000000000     
   51.049363095579913      -0.16312063210127389     
   8.7911227406887544      -0.19911024581000730     
  0.70640422258929825       0.31882047753655751     
  0.26922813413411617       0.12706504184240380     
 p           4   1.0000000000000000     
   5.8263656140800002       0.73716451545209605     
   1.5106896018720002       0.68216371614850257     
  0.53256483288000001       0.35783053929253711     
  0.21202323690600003        5.3983030275847881E-002

           2 0
 s           4   1.0000000000000000     
   51.049363095579913      -0.16312063210127389     
   8.7911227406887544      -0.19911024581000730     
  0.70640422258929825       0.31882047753655751     
  0.26922813413411617       0.12706504184240380     
 p           4   1.0000000000000000     
   5.8263656140800002       0.73716451545209605     
   1.5106896018720002       0.68216371614850257     
  0.53256483288000001       0.35783053929253711     
  0.21202323690600003        5.3983030275847881E-002

           3 0
 s           4   1.0000000000000000     
   51.049363095579913      -0.16312063210127389     
   8.7911227406887544      -0.19911024581000730     
  0.70640422258929825       0.31882047753655751     
  0.26922813413411617       0.12706504184240380     
 p           4   1.0000000000000000     
   5.8263656140800002       0.73716451545209605     
   1.5106896018720002       0.68216371614850257     
  0.53256483288000001       0.35783053929253711     
  0.21202323690600003        5.3983030275847881E-002

           4 0
 s           4   1.0000000000000000     
   51.049363095579913      -0.16312063210127389     
   8.7911227406887544      -0.19911024581000730     
  0.70640422258929825       0.31882047753655751     
  0.26922813413411617       0.12706504184240380     
 p           4   1.0000000000000000     
   5.8263656140800002       0.73716451545209605     
   1.5106896018720002       0.68216371614850257     
  0.53256483288000001       0.35783053929253711     
  0.21202323690600003        5.3983030275847881E-002

           5 0
 s           3   1.0000000000000000     
   3.3702276975336001       0.27359110588908298     
  0.61389118221497996       0.26460540653860526     
  0.16614291148415999        8.2465947534082318E-002

[MO]
Sym=     1a
Ene=  -0.71806493290617213     
Spin= Alpha
Occup=     2.00000000
           1 -0.32693353131913178     
           2  0.16730060361553697     
           3  -7.3024548919871759E-003
           4  -7.6845629101559140E-003
           5 -0.31067658262066106     
           6  -1.7272050697074413E-002
           7  -2.8407475139445301E-002
           8  0.14367196132541188     
           9 -0.28845323016249563     
          10 -0.11897854606148961     
          11  -5.8066877937826361E-002
          12  -2.8482603493325931E-002
          13 -0.31067611243462245     
          14  -2.2811031814420214E-002
          15  0.10364094299870917     
          16 -0.10239650899513718     
          17  -4.4037944202655062E-002
Sym=     2a
Ene=  -0.62321527581991532     
Spin= Alpha
Occup=     2.00000000
           1  0.48802739545927803     
           2  0.15211466660345918     
           3   1.7235594588553761E-002
           4   5.8196411767303061E-003
           5  -4.8777633934209315E-002
           6  0.24573851479504719     
           7   3.3807759232287168E-002
           8   3.1897683953332978E-002
           9 -0.39317399842162298     
          10   1.7843674442401401E-002
          11  -5.3391718341903753E-002
          12  -2.9057748353093174E-002
          13  -4.8764112048068721E-002
          14  0.24506493124240966     
          15   4.9871552787130013E-002
          16   1.9585729747418680E-003
          17  0.27910651997619318     
Sym=     3a
Ene=  -0.60351840931547640     
Spin= Alpha
Occup=     2.00000000
           1   7.1438667932559425E-006
           2   7.5791304125494060E-003
           3 -0.18060631382352182     
           4  0.33655291034924295     
           5  0.48508176662888564     
           6   4.7509823203823735E-002
           7  -8.8666848202198653E-002
           8   3.1769413579865388E-002
           9  -4.4503302704173072E-006
          10   5.4237477625501060E-003
          11 -0.12928308427419863     
          12  0.24091303222034721     
          13 -0.48508430235494249     
          14  -4.4692996537321075E-002
          15   2.1679882919306375E-002
          16   9.3059160307128588E-002
          17   4.5278066501595669E-006
Sym=     4a
Ene=  -0.56283519625677991     
Spin= Alpha
Occup=     2.00000000
           1  -7.8456773075806882E-002
           2 -0.28536610429948345     
           3  0.30916714853010263     
           4  0.17233632003877231     
           5  0.13549469288628771     
           6  0.13397198393798526     
           7  0.22799334438284896     
           8   7.7618712039630208E-002
           9 -0.38983051364539462     
          10   2.7072327654981718E-002
          11  0.10948746008225065     
          12   5.8144345583408134E-002
          13  0.13549323432530158     
          14  0.13542557242901587     
          15  0.19324496398278859     
          16  0.14236897693813921     
          17 -0.34318421370551416     
Sym=     5a
Ene=  -0.50992282921874921     
Spin= Alpha
Occup=     2.00000000
           1   4.7845853571566802E-002
           2  0.34768010351056705     
           3  0.24366624219384067     
           4  0.12288647879665165     
           5  0.10314310367780695     
           6 -0.21219320768334199     
           7  0.26645541876297690     
           8  0.13332126171048905     
           9  0.14882512139393142     
          10 -0.26191937350734457     
          11  0.27518579683593708     
          12  0.15361850146720527     
          13  0.10312802003459201     
          14 -0.21160839165835368     
          15  0.25443756410102242     
          16  0.15575271714292849     
          17  0.26271836221834838     
Sym=     6a
Ene=  -0.50731486192307462     
Spin= Alpha
Occup=     2.00000000
           1  -5.3533761251886588E-006
           2  -8.3608514632465287E-003
           3  0.19845154894531161     
           4 -0.36986027337298299     
           5   7.1273021649613577E-002
           6 -0.40146686324251346     
           7 -0.10021220867619803     
           8  -1.5490648108021572E-002
           9  -1.6982170920419261E-005
          10   8.7511912403143467E-003
          11 -0.20803701496247590     
          12  0.38760500907820505     
          13  -7.1289080820717513E-002
          14  0.40253325157885722     
          15   7.5800857908245076E-002
          16   6.0858527163990546E-002
          17  -2.7325596982241785E-005
Sym=     7a
Ene=  -0.44631099341774877     
Spin= Alpha
Occup=     2.00000000
           1  0.11748036192235593     
           2  -2.7609206588390313E-002
           3  0.17245606712643119     
           4   9.3165731671940144E-002
           5 -0.45961691095837787     
           6   4.3756138168794090E-002
           7  0.25115941030482009     
           8 -0.40044987464392262     
           9  0.22854144009034538     
          10 -0.14025780906249427     
          11  -7.7467105797587060E-002
          12  -3.8413487099835442E-002
          13 -0.45961866431498910     
          14   6.2427278521978873E-002
          15 -0.19385025165090503     
          16  0.42881430948582638     
          17  -6.7802696284166561E-002
Sym=     8a
Ene=  -0.42040335018488650     
Spin= Alpha
Occup=     1.99999984
           1  0.10791870357848088     
           2   1.1893117626665702E-002
           3  0.33382631934990409     
           4  0.17887777751479403     
           5  0.10128953266242267     
           6  0.18393635564508762     
           7 -0.10895448679539063     
           8  0.18660924819839911     
           9  0.48299279346024243     
          10 -0.39284539765106530     
          11 -0.43929824139667717     
          12 -0.22689908383705532     
          13  0.10129416538275880     
          14  0.17522539493514683     
          15   9.8644523124793881E-002
          16 -0.20022836179476433     
          17 -0.11462661432722543     
Sym=     9a
Ene=  -0.39066684255298706     
Spin= Alpha
Occup=     1.00000016
           1  -6.0048643429884427E-007
           2   4.4609141359736662E-003
           3 -0.10629739933283058     
           4  0.19808229425807042     
           5 -0.29358543508032831     
           6  0.10032179331862112     
           7 -0.32879595253194260     
           8 -0.50225525164628437     
           9  -3.7027002317571825E-006
          10   5.0351187182149995E-003
          11 -0.11990341538314596     
          12  0.22344113275155256     
          13  0.29358390502711795     
          14 -0.11163079612453275     
          15  0.59830577205044355     
          16   3.4261086026059434E-005
          17   1.2512567369940791E-006
Sym=    10a
Ene=  -0.30631598749291533     
Spin= Alpha
Occup=     0.00000000
           1 -0.10562900088380354     
           2  0.34432801490439807     
           3  0.52997135901594228     
           4  0.27664613238637553     
           5   1.2328653439904666E-003
           6 -0.16523506514644906     
           7  -6.1642106106473998E-002
           8  -4.4523145734228012E-002
           9  -4.4806857893903838E-002
          10  0.71785357954603501     
          11 -0.28416386932739729     
          12 -0.16865437169777794     
          13   1.2295424336917749E-003
          14 -0.16470584506753394     
          15  -7.4277353248495256E-002
          16  -2.0979600492716743E-002
          17   6.9041333144590072E-002
Sym=    11a
Ene=  -0.26894546174817557     
Spin= Alpha
Occup=     0.00000000
           1  -1.8911524464477038E-006
           2  -5.0029834122698024E-003
           3  0.11918319281579494     
           4 -0.22211124745915506     
           5   2.0918497031696657E-002
           6  0.13187406033847265     
           7 -0.65999271524186898     
           8  0.32732560957705198     
           9   7.2965377602948105E-008
          10  -5.1282865514035297E-003
          11  0.12221413633650825     
          12 -0.22774778784846730     
          13  -2.0916400698900529E-002
          14 -0.10796039187177278     
          15   8.9859350792139706E-002
          16  0.73512258668956842     
          17   2.3999776068907464E-006
Sym=    12a
Ene=  -0.24609702889490462     
Spin= Alpha
Occup=     0.00000000
           1  0.16831845214924465     
           2  0.13645445433629350     
           3  0.40655679263996586     
           4  0.21509908707742503     
           5  -8.2894797611491919E-002
           6   7.2079191164179143E-002
           7 -0.52007035374710475     
           8 -0.16449534713084882     
           9  -7.6831274899358870E-002
          10 -0.19066234096298759     
          11  0.53626664388602252     
          12  0.29206689440841305     
          13  -8.2893729275385505E-002
          14   6.8016403586258420E-002
          15 -0.42326526756952659     
          16 -0.34487042615990249     
          17 -0.18431963344816038     
Sym=    13a
Ene=   0.10291668243881598     
Spin= Alpha
Occup=     0.00000000
           1   1.0743842969480935     
           2  0.19018966384672234     
           3 -0.17325504899522509     
           4  -9.7202162830899178E-002
           5  -9.0112262745722801E-002
           6 -0.44697927592471609     
           7   6.5204354987252709E-003
           8  0.12898578396882901     
           9 -0.18883342510806778     
          10  -2.2116639855860407E-002
          11 -0.16267458646771246     
          12  -8.6814461376060414E-002
          13  -9.0076481461790509E-002
          14 -0.45094441091529197     
          15  0.10265314390115672     
          16  -5.0155035890986584E-002
          17 -0.86311608084885516     
Sym=    14a
Ene=   0.11839161844022542     
Spin= Alpha
Occup=     0.00000000
           1   4.4641723998526328E-005
           2  -1.3419514606710786E-002
           3  0.31994642748945340     
           4 -0.59621714578023000     
           5  -2.2941312450064682E-002
           6  0.71048494232407011     
           7  0.16270322322289382     
           8   9.2534267957569180E-002
           9  -1.9247336134747837E-005
          10   1.4949825327211827E-002
          11 -0.35669685470264223     
          12  0.66466082851135233     
          13   2.2939487881124834E-002
          14 -0.70979685764243494     
          15 -0.18037927416399763     
          16  -5.9604525749946680E-002
          17  -2.9028227624037024E-005
Sym=    15a
Ene=   0.17970218998471446     
Spin= Alpha
Occup=     0.00000000
           1  -3.5405763181397701E-005
           2   1.3549779738763560E-002
           3 -0.32352815542173946     
           4  0.60291465438034786     
           5 -0.65599516658294477     
           6 -0.10371985106101529     
           7   2.4876821751423617E-003
           8  0.57868710707365612     
           9  -1.4736448696405584E-005
          10   1.2141677802611609E-002
          11 -0.28980160131822008     
          12  0.54001866108700580     
          13  0.65601142025478576     
          14  0.12380882677431779     
          15 -0.48148652281257487     
          16  0.31386962990186124     
          17   4.3539673779556262E-005
Sym=    16a
Ene=   0.27015592154691609     
Spin= Alpha
Occup=     0.00000000
           1  -1.6844459225521805E-002
           2 -0.64304780497069036     
           3  0.27076123282743092     
           4  0.15976589662019697     
           5  0.14844660778464119     
           6 -0.50959767647043952     
           7 -0.16951441160218875     
           8 -0.24437474219112840     
           9 -0.72789209159651125     
          10 -0.53331038896558858     
          11 -0.40293543122014708     
          12 -0.20425946678695114     
          13  0.14840310793638217     
          14 -0.50381906753909333     
          15 -0.30681657923225991     
          16   1.1533473820923046E-002
          17  0.60713365903923588     
Sym=    17a
Ene=   0.64240003610289809     
Spin= Alpha
Occup=     0.00000000
           1 -0.40501902274108231     
           2  0.99336533143755379     
           3 -0.22908786542016471     
           4 -0.14529622457660327     
           5  0.62755216742862463     
           6  0.13687760800740631     
           7   6.8164747279945190E-002
           8 -0.58562204083855318     
           9 -0.48374705610653335     
          10 -0.42105822790873287     
          11 -0.29077628923122739     
          12 -0.14656784212355073     
          13  0.62754719934086978     
          14  0.15851515876226235     
          15 -0.44753985325118295     
          16  0.37538406258426982     
          17 -0.52878370192052582     
