 Entering Gaussian System
 *********************************************
 Gaussian 98:
 frequency output generated by the xtb code
 *********************************************
                         Standard orientation:
 --------------------------------------------------------------------
  Center     Atomic     Atomic              Coordinates (Angstroms)
  Number     Number      Type              X           Y           Z
 --------------------------------------------------------------------
    1          6             0        0.598788    0.090344    0.035003
    2          6             0       -0.424917   -0.163336    0.960453
    3          6             0       -1.281808   -0.337135   -0.152062
    4          6             0       -0.461201    0.701737   -0.651581
    5          1             0        1.569137   -0.291611   -0.191814
 --------------------------------------------------------------------
     1 basis functions        1 primitive gaussians
     1 alpha electrons        1 beta electrons

 Harmonic frequencies (cm**-1), IR intensities (KM/Mole),
 Raman scattering activities (A**4/amu), Raman depolarization ratios,
 reduced masses (AMU), force constants (mDyne/A) and normal coordinates:
                      1                      2                      3
                        a                      a                      a 
 Frequencies --   523.2997               625.1551               744.4847
 Red. masses --     9.9460                 9.7606                11.7852
 Frc consts  --     0.0000                 0.0000                 0.0000
 IR Inten    --     0.0666                 0.3620                 0.7571
 Raman Activ --     0.0000                 0.0000                 0.0000
 Depolar     --     0.0000                 0.0000                 0.0000
 Atom AN      X      Y      Z        X      Y      Z        X      Y      Z
   1   6    -0.25  -0.26  -0.13    -0.14   0.33   0.18     0.01  -0.18   0.34
   2   6    -0.11   0.29   0.20     0.01  -0.44   0.25     0.44   0.11   0.19
   3   6     0.54  -0.26  -0.15     0.22   0.25   0.13    -0.01   0.28  -0.51
   4   6    -0.12   0.33   0.13    -0.01  -0.04  -0.50    -0.44  -0.23   0.03
   5   1    -0.21  -0.34  -0.18    -0.25  -0.33  -0.17    -0.00   0.07  -0.13
                      4                      5                      6
                        a                      a                      a 
 Frequencies --   749.7359               914.1491              1054.8639
 Red. masses --     7.2071                 3.7853                10.7524
 Frc consts  --     0.0000                 0.0000                 0.0000
 IR Inten    --     0.2286                 0.6157                 1.6106
 Raman Activ --     0.0000                 0.0000                 0.0000
 Depolar     --     0.0000                 0.0000                 0.0000
 Atom AN      X      Y      Z        X      Y      Z        X      Y      Z
   1   6    -0.41  -0.29  -0.15    -0.00   0.02  -0.04    -0.01   0.28  -0.53
   2   6     0.09  -0.15   0.30    -0.27   0.02   0.23    -0.07  -0.06   0.45
   3   6     0.18   0.11   0.05    -0.00   0.03  -0.06    -0.01   0.16  -0.29
   4   6     0.08   0.17  -0.29     0.27  -0.19   0.10     0.09  -0.34   0.29
   5   1     0.21   0.56   0.29    -0.02   0.41  -0.76     0.01  -0.16   0.30
                      7                      8                      9
                        a                      a                      a 
 Frequencies --  1272.8217              1461.4669              3186.8220
 Red. masses --    11.4943                11.6198                 1.9619
 Frc consts  --     0.0000                 0.0000                 0.0000
 IR Inten    --     0.7699                 0.2064                 0.0890
 Raman Activ --     0.0000                 0.0000                 0.0000
 Depolar     --     0.0000                 0.0000                 0.0000
 Atom AN      X      Y      Z        X      Y      Z        X      Y      Z
   1   6    -0.36   0.13   0.08     0.55  -0.10  -0.06     0.27  -0.10  -0.06
   2   6     0.44   0.07   0.15    -0.15  -0.04   0.48    -0.01  -0.01   0.01
   3   6    -0.46  -0.35  -0.18    -0.29  -0.22  -0.11    -0.01  -0.00  -0.00
   4   6     0.43   0.17  -0.04    -0.16   0.37  -0.30    -0.01   0.01  -0.01
   5   1    -0.18  -0.11  -0.05     0.18  -0.05  -0.03    -0.87   0.34   0.20
