$hessian                                                                        
        0.0853928728   0.0190979390  -0.0004858989  -0.1294807228  -0.0658617636
       -0.0031294735   0.0185144458   0.0170512713   0.0125649460   0.0061089270
        0.0146203915   0.0006222013   0.0194644771   0.0150921619  -0.0095717748
        0.0190979390   0.5588375507   0.0088735253  -0.0779859504  -0.0972850286
       -0.0036747315   0.0441979365  -0.1796638729  -0.1390181502  -0.0284769536
       -0.0898341502  -0.0019862075   0.0431670285  -0.1920544990   0.1358055639
       -0.0004858989   0.0088735253   0.1757632064  -0.0032065483  -0.0036497528
        0.0311408953   0.0386338916  -0.1273607078  -0.0950914290  -0.0004468035
       -0.0015106629  -0.0280671301  -0.0344946408   0.1236475982  -0.0837455426
       -0.1294807228  -0.0779859504  -0.0032065483   0.4833576633  -0.0233784800
        0.0032696091  -0.1238063132   0.0098023065   0.0437418022  -0.1086475387
        0.0798240938   0.0007195686  -0.1214230887   0.0117380300  -0.0445244316
       -0.0658617636  -0.0972850286  -0.0036497528  -0.0233784800   0.1624258567
        0.0014522946   0.0090475571   0.0269136788  -0.0006832724   0.0677395044
       -0.1185627890  -0.0028011398   0.0124531821   0.0265082822   0.0056818704
       -0.0031294735  -0.0036747315   0.0311408953   0.0032696091   0.0014522946
        0.0900136567   0.0738066004  -0.0029244843  -0.0751681332   0.0002342656
       -0.0026252686   0.0311444610  -0.0741810015   0.0077721899  -0.0771308797
        0.0185144458   0.0441979365   0.0386338916  -0.1238063132   0.0090475571
        0.0738066004   0.1189437743   0.0170589660  -0.1271738305   0.0055132248
       -0.0739831677   0.0532021783  -0.0191651317   0.0036787081  -0.0384688398
        0.0170512713  -0.1796638729  -0.1273607078   0.0098023065   0.0269136788
       -0.0029244843   0.0170589660   0.3129853423   0.0081060613  -0.0456870956
       -0.1788199265   0.1165694332   0.0017745518   0.0185847782   0.0056096977
        0.0125649460  -0.1390181502  -0.0950914290   0.0437418022  -0.0006832724
       -0.0751681332  -0.1271738305   0.0081060613   0.3603732171   0.0304661346
        0.1315804091  -0.0824367696   0.0404009477   0.0000149522  -0.1076768853
        0.0061089270  -0.0284769536  -0.0004468035  -0.1086475387   0.0677395044
        0.0002342656   0.0055132248  -0.0456870956   0.0304661346   0.0898113620
        0.0482956136   0.0001459533   0.0072140248  -0.0418710688  -0.0303995499
        0.0146203915  -0.0898341502  -0.0015106629   0.0798240938  -0.1185627890
       -0.0026252686  -0.0739831677  -0.1788199265   0.1315804091   0.0482956136
        0.5541577321   0.0091234844  -0.0687569312  -0.1669408664  -0.1365679620
        0.0006222013  -0.0019862075  -0.0280671301   0.0007195686  -0.0028011398
        0.0311444610   0.0532021783   0.1165694332  -0.0824367696   0.0001459533
        0.0091234844   0.1753071399  -0.0546899014  -0.1209055703  -0.0959477013
        0.0194644771   0.0431670285  -0.0344946408  -0.1214230887   0.0124531821
       -0.0741810015  -0.0191651317   0.0017745518   0.0404009477   0.0072140248
       -0.0687569312  -0.0546899014   0.1139097184   0.0113621688   0.1229645961
        0.0150921619  -0.1920544990   0.1236475982   0.0117380300   0.0265082822
        0.0077721899   0.0036787081   0.0185847782   0.0000149522  -0.0418710688
       -0.1669408664  -0.1209055703   0.0113621688   0.3139023050  -0.0105291700
       -0.0095717748   0.1358055639  -0.0837455426  -0.0445244316   0.0056818704
       -0.0771308797  -0.0384688398   0.0056096977  -0.1076768853  -0.0303995499
       -0.1365679620  -0.0959477013   0.1229645961  -0.0105291700   0.3645010090
