 Entering Gaussian System
 *********************************************
 Gaussian 98:
 frequency output generated by the xtb code
 *********************************************
                         Standard orientation:
 --------------------------------------------------------------------
  Center     Atomic     Atomic              Coordinates (Angstroms)
  Number     Number      Type              X           Y           Z
 --------------------------------------------------------------------
    1          6             0        1.019432   -0.673087    0.042160
    2          6             0       -0.843083    0.884334   -0.034991
    3          6             0       -0.176350   -0.211247   -0.007169
 --------------------------------------------------------------------
     1 basis functions        1 primitive gaussians
     1 alpha electrons        1 beta electrons

 Harmonic frequencies (cm**-1), IR intensities (KM/Mole),
 Raman scattering activities (A**4/amu), Raman depolarization ratios,
 reduced masses (AMU), force constants (mDyne/A) and normal coordinates:
                      1                      2                      3
                        a                      a                      a 
 Frequencies --   134.9782              1424.9891              1960.1348
 Red. masses --    12.0107                12.0107                12.0107
 Frc consts  --     0.0000                 0.0000                 0.0000
 IR Inten    --     0.3092                 0.0941                 0.4740
 Raman Activ --     0.0000                 0.0000                 0.0000
 Depolar     --     0.0000                 0.0000                 0.0000
 Atom AN      X      Y      Z        X      Y      Z        X      Y      Z
   1   6     0.06  -0.50   0.00    -0.60   0.22  -0.02    -0.39   0.15  -0.02
   2   6    -0.51  -0.03  -0.02     0.32  -0.55   0.01    -0.22   0.36  -0.01
   3   6     0.45   0.53   0.02     0.27   0.33   0.01     0.61  -0.51   0.03
