3
 energy: -5.989442571017 gnorm: 0.202715756997 xtb: 6.2.2 (9d81278992624c895f80dd42a50cac0aa55982e2)
C         0.86042300000000   -0.14994500000000    0.03542800000000
C        -0.30045400000000    0.82075100000000   -0.01266100000000
C        -0.55996900000000   -0.67080600000000   -0.02276800000000
3
 energy: -6.013210868579 gnorm: 0.076589925262 xtb: 6.2.2 (9d81278992624c895f80dd42a50cac0aa55982e2)
C         0.81167039366173   -0.14145045654907    0.03342058841833
C        -0.28343219806813    0.77424145324075   -0.01194372344576
C        -0.52823819559360   -0.63279099669168   -0.02147786497257
3
 energy: -6.015044449828 gnorm: 0.045827601014 xtb: 6.2.2 (9d81278992624c895f80dd42a50cac0aa55982e2)
C         0.78236098256704   -0.13634774601131    0.03221376112159
C        -0.27320671975484    0.74625812032440   -0.01151281864676
C        -0.50915426281220   -0.60991037431309   -0.02070194247483
3
 energy: -6.015773690702 gnorm: 0.004793956630 xtb: 6.2.2 (9d81278992624c895f80dd42a50cac0aa55982e2)
C         0.79333740624892   -0.13826403781039    0.03266572197364
C        -0.27704648456446    0.75670779944236   -0.01167460555269
C        -0.51629092168446   -0.61844376163198   -0.02099211642094
3
 energy: -6.015782463102 gnorm: 0.000400485612 xtb: 6.2.2 (9d81278992624c895f80dd42a50cac0aa55982e2)
C         0.79234587845030   -0.13810696937303    0.03262490125748
C        -0.27672782088934    0.75568958516828   -0.01166112193648
C        -0.51561805756096   -0.61758261579526   -0.02096477932100
3
 energy: -6.015782950709 gnorm: 0.001058631793 xtb: 6.2.2 (9d81278992624c895f80dd42a50cac0aa55982e2)
C         0.79243640810412   -0.13818478893819    0.03262865222129
C        -0.27687160583718    0.75547080863659   -0.01166695053879
C        -0.51556480226694   -0.61728601969841   -0.02096270168250
3
 energy: -6.015788014973 gnorm: 0.003399370799 xtb: 6.2.2 (9d81278992624c895f80dd42a50cac0aa55982e2)
C         0.79308066012321   -0.13849819305648    0.03265525534319
C        -0.27745809296296    0.75510837669794   -0.01169092447633
C        -0.51562256716025   -0.61661018364146   -0.02096533086686
3
 energy: -6.015817684898 gnorm: 0.008487997024 xtb: 6.2.2 (9d81278992624c895f80dd42a50cac0aa55982e2)
C         0.79437494649701   -0.13917296377547    0.03270871735769
C        -0.27870988820139    0.75420460726492   -0.01174204530695
C        -0.51566505829563   -0.61503164348945   -0.02096767205074
3
 energy: -6.015996412735 gnorm: 0.020189361223 xtb: 6.2.2 (9d81278992624c895f80dd42a50cac0aa55982e2)
C         0.79764117709329   -0.14089757086840    0.03284364103559
C        -0.28186710206613    0.75205330892797   -0.01187102789928
C        -0.51577407502715   -0.61115573805956   -0.02097361313631
3
 energy: -6.016911648207 gnorm: 0.041790796571 xtb: 6.2.2 (9d81278992624c895f80dd42a50cac0aa55982e2)
C         0.80538715705027   -0.14525234161465    0.03316371695980
C        -0.28953646938579    0.74735516772214   -0.01218454553050
C        -0.51585068766448   -0.60210282610750   -0.02098017142930
3
 energy: -6.020161126074 gnorm: 0.071936589912 xtb: 6.2.2 (9d81278992624c895f80dd42a50cac0aa55982e2)
C         0.82072278813275   -0.15605104308439    0.03379822879742
C        -0.30637482580609    0.74046058718563   -0.01287417202582
C        -0.51434796232666   -0.58440954410124   -0.02092505677161
3
 energy: -6.031647961797 gnorm: 0.148021369461 xtb: 6.2.2 (9d81278992624c895f80dd42a50cac0aa55982e2)
C         0.83505294470850   -0.18475910196782    0.03439814925237
C        -0.33764301188199    0.74663531712008   -0.01416192795296
C        -0.49740993282651   -0.56187621515226   -0.02023722129942
3
 energy: -6.054671526048 gnorm: 0.088639066307 xtb: 6.2.2 (9d81278992624c895f80dd42a50cac0aa55982e2)
C         0.83482556915235   -0.24785667362642    0.03441256045468
C        -0.39129328345005    0.78317431037490   -0.01638124166920
C        -0.44353228570230   -0.53531763674848   -0.01803231878548
3
 energy: -6.071885889879 gnorm: 0.064886729757 xtb: 6.2.2 (9d81278992624c895f80dd42a50cac0aa55982e2)
C         0.87324087119038   -0.33004466408614    0.03602275517257
C        -0.47886925985704    0.80677077353966   -0.01999036319157
C        -0.39437161133334   -0.47672610945352   -0.01603339198100
3
 energy: -6.082154894724 gnorm: 0.027752259218 xtb: 6.2.2 (9d81278992624c895f80dd42a50cac0aa55982e2)
C         0.92902719688893   -0.41031361035110    0.03834634773852
C        -0.56846535125503    0.84311785642712   -0.02368733245094
C        -0.36056184563390   -0.43280424607602   -0.01466001528759
3
 energy: -6.087697661129 gnorm: 0.036424636533 xtb: 6.2.2 (9d81278992624c895f80dd42a50cac0aa55982e2)
C         0.98005667770445   -0.50253125470880    0.04047888618189
C        -0.66893059599783    0.87284573982014   -0.02782863876356
C        -0.31112608170662   -0.37031448511134   -0.01265124741833
3
 energy: -6.089606273523 gnorm: 0.034802032965 xtb: 6.2.2 (9d81278992624c895f80dd42a50cac0aa55982e2)
C         1.00207575215086   -0.55997678933264    0.04140571774099
C        -0.72915625085793    0.88530767020760   -0.03030919969100
C        -0.27291950129294   -0.32533088087496   -0.01109751804999
3
 energy: -6.090800290305 gnorm: 0.017806549276 xtb: 6.2.2 (9d81278992624c895f80dd42a50cac0aa55982e2)
C         1.00966154849972   -0.59863052894464    0.04173212337518
C        -0.76846128241106    0.88618975039075   -0.03192535637229
C        -0.24120026608866   -0.28755922144611   -0.00980776700289
3
 energy: -6.091286910247 gnorm: 0.007284809137 xtb: 6.2.2 (9d81278992624c895f80dd42a50cac0aa55982e2)
C         1.01344593940322   -0.62924842540814    0.04189922795068
C        -0.79884009114882    0.88676325095717   -0.03317444104600
C        -0.21460584825440   -0.25751482554903   -0.00872578690468
3
 energy: -6.091470028436 gnorm: 0.005937021258 xtb: 6.2.2 (9d81278992624c895f80dd42a50cac0aa55982e2)
C         1.01915618136641   -0.65651284397220    0.04214424129441
C        -0.82689124752295    0.88622573175520   -0.03432741790478
C        -0.19226493384345   -0.22971288778300   -0.00781782338962
3
 energy: -6.091539987038 gnorm: 0.000696877523 xtb: 6.2.2 (9d81278992624c895f80dd42a50cac0aa55982e2)
C         1.01946164054745   -0.67257896074995    0.04216284817020
C        -0.84260501107594    0.88445824815263   -0.03497274308156
C        -0.17685662947151   -0.21187928740268   -0.00719110508864
3
 energy: -6.091541216819 gnorm: 0.000573146519 xtb: 6.2.2 (9d81278992624c895f80dd42a50cac0aa55982e2)
C         1.01943553944489   -0.67308209066067    0.04216196460450
C        -0.84308708148813    0.88432994684765   -0.03499251262097
C        -0.17634845795676   -0.21124785618697   -0.00717045198353
