[Molden Format]
[Title]
[Atoms] AU
C      1     6  0.19264474107459E+01 -0.12719506405409E+01  0.79670053948860E-01
C      2     6 -0.15931950161337E+01  0.16711494748565E+01 -0.66123614492690E-01
C      3     6 -0.33325239461883E+00 -0.39919883431888E+00 -0.13548329182120E-01
[GTO]
           1 0
 s           4   1.0000000000000000     
   51.049363095579913      -0.16312063210127389     
   8.7911227406887544      -0.19911024581000730     
  0.70640422258929825       0.31882047753655751     
  0.26922813413411617       0.12706504184240380     
 p           4   1.0000000000000000     
   5.8263656140800002       0.73716451545209605     
   1.5106896018720002       0.68216371614850257     
  0.53256483288000001       0.35783053929253711     
  0.21202323690600003        5.3983030275847881E-002

           2 0
 s           4   1.0000000000000000     
   51.049363095579913      -0.16312063210127389     
   8.7911227406887544      -0.19911024581000730     
  0.70640422258929825       0.31882047753655751     
  0.26922813413411617       0.12706504184240380     
 p           4   1.0000000000000000     
   5.8263656140800002       0.73716451545209605     
   1.5106896018720002       0.68216371614850257     
  0.53256483288000001       0.35783053929253711     
  0.21202323690600003        5.3983030275847881E-002

           3 0
 s           4   1.0000000000000000     
   51.049363095579913      -0.16312063210127389     
   8.7911227406887544      -0.19911024581000730     
  0.70640422258929825       0.31882047753655751     
  0.26922813413411617       0.12706504184240380     
 p           4   1.0000000000000000     
   5.8263656140800002       0.73716451545209605     
   1.5106896018720002       0.68216371614850257     
  0.53256483288000001       0.35783053929253711     
  0.21202323690600003        5.3983030275847881E-002

[MO]
Sym=     1a
Ene=  -0.70309274959833523     
Spin= Alpha
Occup=     2.00000000
           1 -0.38832493810405455     
           2  0.13445220740807667     
           3  -7.2922299980981126E-002
           4   5.5544397934334340E-003
           5 -0.38833545345253595     
           6  -9.5609972312727221E-002
           7  0.11945583449741247     
           8  -3.9753934724669308E-003
           9 -0.49628933606643366     
          10  -6.4281713909090862E-002
          11  -7.7010582332986841E-002
          12  -2.6132442673694411E-003
Sym=     2a
Ene=  -0.66479784755071958     
Spin= Alpha
Occup=     2.00000000
           1  0.50259426111981853     
           2  -7.3210493191816120E-002
           3  -3.6255443980990690E-003
           4  -3.0080463925323130E-003
           5 -0.50258350206766245     
           6  -9.4505125556107409E-003
           7   7.2746031802768729E-002
           8  -4.1601102220377873E-004
           9   5.1533713344660376E-006
          10  0.30754853682250949     
          11 -0.25716853552434515     
          12   1.2739538722389237E-002
Sym=     3a
Ene=  -0.53000457752748054     
Spin= Alpha
Occup=     2.00000000
           1  0.32997193322032098     
           2  0.35205222051040858     
           3  0.16978426801028870     
           4   1.4407235596135402E-002
           5  0.32997474059682680     
           6  0.10433676457760703     
           7  0.37693178690466278     
           8   4.1461598946333821E-003
           9 -0.35319692305534028     
          10  0.28446912810355085     
          11  0.34076885688216391     
          12   1.1564402714777629E-002
Sym=     4a
Ene=  -0.52223655412406045     
Spin= Alpha
Occup=     2.00000000
           1   4.1607577292461629E-008
           2  -1.8247269725664435E-002
           3   1.6806837628614030E-004
           4  0.44390487994854233     
           5   4.6549753164082339E-008
           6  -1.8247671301146240E-002
           7   1.6809779848694654E-004
           8  0.44391429007150729     
           9  -6.7188435149801174E-008
          10  -2.4295330610127529E-002
          11   2.2377855913335813E-004
          12  0.59103724629541532     
Sym=     5a
Ene=  -0.50299810641307152     
Spin= Alpha
Occup=     2.00000000
           1  0.39889664156700561     
           2  0.17145266017609492     
           3 -0.44013115594215679     
           4   7.2143949536977907E-003
           5  0.39889126087319304     
           6 -0.46324660439255827     
           7   9.0589889279410363E-002
           8  -1.9076651910747484E-002
           9  -8.9175218456281596E-002
          10 -0.23034252406573691     
          11 -0.27592539621529971     
          12  -9.3640815924967442E-003
Sym=     6a
Ene=  -0.45875990650280962     
Spin= Alpha
Occup=     2.00000000
           1 -0.34979375349785496     
           2 -0.55524232823418218     
           3   2.5822010821787384E-002
           4  -2.2833750531925857E-002
           5  0.34979594454939067     
           6 -0.12413206122960602     
           7  0.54225834505280335     
           8  -5.3078900871329441E-003
           9   2.3094209264022032E-006
          10  0.23302993693979260     
          11 -0.19486297740738592     
          12   9.6527560271270959E-003
Sym=     7a
Ene=  -0.40494660611342043     
Spin= Alpha
Occup=     0.00000000
           1   1.7796286538914543E-008
           2  -2.9320378755323492E-002
           3   2.6997581697552894E-004
           4  0.71328120224901292     
           5  -5.3708385902726236E-009
           6   2.9319956748612527E-002
           7  -2.6998852905018954E-004
           8 -0.71327051856624302     
           9  -7.8030939331208120E-009
          10  -8.9548523481326532E-008
          11   8.5131577321074957E-009
          12   2.0341899122344263E-006
Sym=     8a
Ene=  -0.39369732427485865     
Spin= Alpha
Occup=     0.00000000
           1  -2.6770741869308570E-002
           2   6.8526348196902245E-002
           3  0.71609262786279482     
           4   2.5458247147283350E-003
           5   2.6770586320423756E-002
           6 -0.69189256074049665     
           7 -0.19482646855750585     
           8  -2.8367445134602810E-002
           9  -2.2185036142673422E-007
          10   6.2358774249196301E-002
          11  -5.2142507866071885E-002
          12   2.5830766182608094E-003
Sym=     9a
Ene=  -0.23529541573119123     
Spin= Alpha
Occup=     0.00000000
           1   4.6133788172313828E-003
           2  0.38111697617553653     
           3  0.45786901743263320     
           4   1.5493024805387478E-002
           5   4.6153819210033387E-003
           6  0.38242704609043393     
           7  0.45678026892411122     
           8   1.5547284417500260E-002
           9  0.32168297734538526     
          10 -0.49477894693030416     
          11 -0.59270201947183343     
          12  -2.0114213657633679E-002
Sym=    10a
Ene=  -0.19651404223467714     
Spin= Alpha
Occup=     0.00000000
           1  -2.5427821582273601E-009
           2   2.4417690390670259E-002
           3  -2.2483845865467321E-004
           4 -0.59401260335583839     
           5  -1.2512573590986594E-009
           6   2.4417991411760428E-002
           7  -2.2484082626648250E-004
           8 -0.59401983689802873     
           9  -5.6185053892717628E-009
          10  -3.6100246114622266E-002
          11   3.3241217794134501E-004
          12  0.87821565542989288     
Sym=    11a
Ene=   0.41977090541070056     
Spin= Alpha
Occup=     0.00000000
           1 -0.49067859735746328     
           2  0.60018417818271730     
           3 -0.38101762205536199     
           4   2.4815607191591763E-002
           5 -0.49064790078110349     
           6 -0.48134626377692208     
           7  0.52332732658140768     
           8  -1.9984475353172108E-002
           9   1.1682785307645125     
          10  0.34128093280473776     
          11  0.40876870274475091     
          12   1.3874102157536605E-002
Sym=    12a
Ene=   0.86010505436305085     
Spin= Alpha
Occup=     0.00000000
           1 -0.69704666594860687     
           2  0.70851452924643199     
           3 -0.16157868687966725     
           4   2.9185616357508035E-002
           5  0.69708314249613268     
           6  0.28488671644463381     
           7 -0.66910926964287309     
           8   1.1963915008432677E-002
           9  -4.0920401813155639E-005
          10   1.0605843447753664     
          11 -0.88687397970504012     
          12   4.3932451040886875E-002
