$hessian                                                                        
        0.6025535738  -0.2274504335   0.0248548776  -0.0278463344   0.0552101578
       -0.0011655585  -0.5747072395   0.1722402756  -0.0236893190
       -0.2274504335   0.0878167276  -0.0093828993   0.0097915967  -0.0161438701
        0.0004086074   0.2176588368  -0.0716728575   0.0089742919
        0.0248548776  -0.0093828993   0.0010252451  -0.0011483677   0.0022755994
       -0.0000480665  -0.0237065098   0.0071072999  -0.0009771786
       -0.0278463344   0.0097915967  -0.0011483677   0.1835054206  -0.3032654029
        0.0076580263  -0.1556590862   0.2934738062  -0.0065096586
        0.0552101578  -0.0161438701   0.0022755994  -0.3032654029   0.5076179407
       -0.0126582710   0.2480552451  -0.4914740706   0.0103826716
       -0.0011655585   0.0004086074  -0.0000480665   0.0076580263  -0.0126582710
        0.0003195848  -0.0064924678   0.0122496637  -0.0002715182
       -0.5747072395   0.2176588368  -0.0237065098  -0.1556590862   0.2480552451
       -0.0064924678   0.7303663257  -0.4657140818   0.0301989776
        0.1722402756  -0.0716728575   0.0071072999   0.2934738062  -0.4914740706
        0.0122496637  -0.4657140818   0.5631469281  -0.0193569636
       -0.0236893190   0.0089742919  -0.0009771786  -0.0065096586   0.0103826716
       -0.0002715182   0.0301989776  -0.0193569636   0.0012486968
