 Entering Gaussian System
 *********************************************
 Gaussian 98:
 frequency output generated by the xtb code
 *********************************************
                         Standard orientation:
 --------------------------------------------------------------------
  Center     Atomic     Atomic              Coordinates (Angstroms)
  Number     Number      Type              X           Y           Z
 --------------------------------------------------------------------
    1          6             0       -1.552466   -0.342116   -0.350692
    2          6             0       -1.337817    1.031937   -0.238301
    3          6             0        1.032611   -0.245082    0.211462
    4          6             0       -0.284743    0.006126   -0.059598
    5          7             0        2.142414   -0.450864    0.437129
 --------------------------------------------------------------------
     1 basis functions        1 primitive gaussians
     1 alpha electrons        1 beta electrons

 Harmonic frequencies (cm**-1), IR intensities (KM/Mole),
 Raman scattering activities (A**4/amu), Raman depolarization ratios,
 reduced masses (AMU), force constants (mDyne/A) and normal coordinates:
                      1                      2                      3
                        a                      a                      a 
 Frequencies --   189.6579               201.3072               499.6542
 Red. masses --    12.5312                12.5054                12.1792
 Frc consts  --     0.0000                 0.0000                 0.0000
 IR Inten    --     0.4394                 0.5388                 0.2450
 Raman Activ --     0.0000                 0.0000                 0.0000
 Depolar     --     0.0000                 0.0000                 0.0000
 Atom AN      X      Y      Z        X      Y      Z        X      Y      Z
   1   6    -0.30   0.21  -0.05     0.07   0.01  -0.31     0.19   0.01   0.04
   2   6     0.43   0.09   0.09     0.05   0.01  -0.22    -0.30   0.08  -0.06
   3   6    -0.08  -0.32  -0.03    -0.10  -0.02   0.49    -0.09  -0.77  -0.06
   4   6    -0.11  -0.52  -0.05    -0.12  -0.03   0.58     0.09   0.39   0.04
   5   7     0.05   0.51   0.03     0.10   0.02  -0.49     0.10   0.27   0.03
                      4                      5                      6
                        a                      a                      a 
 Frequencies --   546.3255               707.1697               940.4360
 Red. masses --    12.1242                12.5023                12.1673
 Frc consts  --     0.0000                 0.0000                 0.0000
 IR Inten    --     0.0253                 0.0500                 0.3276
 Raman Activ --     0.0000                 0.0000                 0.0000
 Depolar     --     0.0000                 0.0000                 0.0000
 Atom AN      X      Y      Z        X      Y      Z        X      Y      Z
   1   6    -0.03  -0.01   0.13    -0.28   0.29  -0.05     0.60   0.10   0.13
   2   6    -0.02  -0.00   0.10    -0.57   0.13  -0.12    -0.28   0.33  -0.04
   3   6    -0.14  -0.03   0.67     0.38  -0.01   0.08    -0.19   0.06  -0.04
   4   6     0.14   0.03  -0.65    -0.04  -0.29  -0.02     0.16  -0.53   0.01
   5   7     0.05   0.01  -0.23     0.47  -0.11   0.09    -0.27   0.03  -0.06
                      7                      8                      9
                        a                      a                      a 
 Frequencies --  1202.4940              1793.0144              2300.8513
 Red. masses --    12.0812                12.0710                12.7715
 Frc consts  --     0.0000                 0.0000                 0.0000
 IR Inten    --     0.6942                 0.2966                 0.7841
 Raman Activ --     0.0000                 0.0000                 0.0000
 Depolar     --     0.0000                 0.0000                 0.0000
 Atom AN      X      Y      Z        X      Y      Z        X      Y      Z
   1   6     0.06  -0.57  -0.01     0.44   0.35   0.11    -0.01  -0.03  -0.00
   2   6     0.09   0.62   0.05     0.07  -0.34  -0.00     0.01   0.03   0.00
   3   6     0.12  -0.03   0.03     0.00  -0.00   0.00    -0.75   0.14  -0.15
   4   6    -0.47   0.01  -0.10    -0.70   0.03  -0.15     0.11  -0.01   0.02
   5   7     0.18  -0.03   0.04     0.17  -0.03   0.03     0.60  -0.11   0.12
