      -----------------------------------------------------------      
     |                   =====================                   |     
     |                           x T B                           |     
     |                   =====================                   |     
     |                         S. Grimme                         |     
     |          Mulliken Center for Theoretical Chemistry        |     
     |                    University of Bonn                     |     
      -----------------------------------------------------------      

   * xtb version 6.2.2 (9d81278992624c895f80dd42a50cac0aa55982e2) compiled by '@Darwin' on 04/03/2020

   xtb is free software: you can redistribute it and/or modify it under
   the terms of the GNU Lesser General Public License as published by
   the Free Software Foundation, either version 3 of the License, or
   (at your option) any later version.
   
   xtb is distributed in the hope that it will be useful,
   but WITHOUT ANY WARRANTY; without even the implied warranty of
   MERCHANTABILITY or FITNESS FOR A PARTICULAR PURPOSE.  See the
   GNU Lesser General Public License for more details.
   
   Cite this work as:
   * S. Grimme, C. Bannwarth, P. Shushkov, J. Chem. Theory Comput., 2017,
     13, 1989-2009. DOI: 10.1021/acs.jctc.7b00118
   * C. Bannwarth, S. Ehlert and S. Grimme., J. Chem. Theory Comput., 2019,
     15, 1652-1671. DOI: 10.1021/acs.jctc.8b01176
   * P. Pracht, E. Caldeweyher, S. Ehlert, S. Grimme, ChemRxiv, 2019, preprint.
     DOI: 10.26434/chemrxiv.8326202.v1
   
   for DFT-D4:
   * E. Caldeweyher, C. Bannwarth and S. Grimme, J. Chem. Phys., 2017,
     147, 034112. DOI: 10.1063/1.4993215
   * E. Caldeweyher, S. Ehlert, A. Hansen, H. Neugebauer, S. Spicher,
     C. Bannwarth and S. Grimme, J. Chem. Phys., 2019, 150, 154122.
     DOI: 10.1063/1.5090222
   
   for sTDA-xTB:
   * S. Grimme and C. Bannwarth, J. Chem. Phys., 2016, 145, 054103.
     DOI: 10.1063/1.4959605
   
   in the mass-spec context:
   * V. Asgeirsson, C. Bauer and S. Grimme, Chem. Sci., 2017, 8, 4879.
     DOI: 10.1039/c7sc00601b
   
   for metadynamics refer to:
   * S. Grimme, J. Chem. Theory Comput., 2019, 155, 2847-2862
     DOI: 10.1021/acs.jctc.9b00143
   
   with help from (in alphabetical order)
   C. Bannwarth, F. Bohle, G. Brandenburg, E. Caldeweyher, M. Checinski,
   S. Dohm, S. Ehlert, S. Ehrlich, F. März, H. Neugebauer, J. Pisarek,
   P. Pracht, P. Shushkov, and S. Spicher.
   
 * started run on 2020/05/12 at 11:44:14.110     

           -------------------------------------------------
          |                Calculation Setup                |
           -------------------------------------------------

          program call               : xtb --input C4N1_36_S_1.input C4N1_36_S_1.xyz --ohess --molden --namespace C4N1_36_S_1 output.out
          calculation namespace      : C4N1_36_S_1
          coordinate file            : C4N1_36_S_1.xyz
          number of atoms            :                     5
          number of electrons        :                    21
          charge                     :                     0
          spin                       :                   0.5
          first test random number   :      0.08774930104811

   ID    Z sym.   atoms
    1    6 C      1-4
    2    7 N      5

           -------------------------------------------------
          |                 G F N 2 - x T B                 |
           -------------------------------------------------

        Reference                      10.1021/acs.jctc.8b01176
      * Hamiltonian:
        H0-scaling (s, p, d)           1.850000    2.230000    2.230000
        zeta-weighting                 0.500000
      * Dispersion:
        s8                             2.700000
        a1                             0.520000
        a2                             5.000000
        s9                             5.000000
      * Repulsion:
        kExp                           1.500000    1.000000
        rExp                           1.000000
      * Coulomb:
        alpha                          2.000000
        third order                    shell-resolved
        anisotropic                    true
        a3                             3.000000
        a5                             4.000000
        cn-shift                       1.200000
        cn-exp                         4.000000
        max-rad                        5.000000


          ...................................................
          :                      SETUP                      :
          :.................................................:
          :  # basis functions                  20          :
          :  # atomic orbitals                  20          :
          :  # shells                           10          :
          :  # electrons                        21          :
          :  max. iterations                   250          :
          :  Hamiltonian                  GFN2-xTB          :
          :  restarted?                      false          :
          :  GBSA solvation                  false          :
          :  PC potential                    false          :
          :  electronic temp.          300.0000000     K    :
          :  accuracy                    1.0000000          :
          :  -> integral cutoff          0.2500000E+02      :
          :  -> integral neglect         0.1000000E-07      :
          :  -> SCF convergence          0.1000000E-05 Eh   :
          :  -> wf. convergence          0.1000000E-03 e    :
          :  Broyden damping             0.4000000          :
          ...................................................

 iter      E             dE          RMSdq      gap      omega  full diag
   1    -10.6755829 -0.106756E+02  0.110E+01    1.66       0.0  T
   2     -9.8084635  0.867119E+00  0.140E+01    0.73       1.0  T
   3    -10.9235781 -0.111511E+01  0.611E+00    1.98       1.0  T
   4    -10.9256365 -0.205835E-02  0.503E+00    1.28       1.0  T
   5    -10.8409644  0.846721E-01  0.537E+00    1.21       1.0  T
   6    -11.0272174 -0.186253E+00  0.201E+00    1.43       1.0  T
   7    -11.0324611 -0.524367E-02  0.126E+00    1.49       1.0  T
   8    -11.0368132 -0.435214E-02  0.634E-01    1.47       1.0  T
   9    -11.0380338 -0.122054E-02  0.350E-01    1.46       1.0  T
  10    -11.0385271 -0.493349E-03  0.979E-02    1.46       1.0  T
  11    -11.0384906  0.365467E-04  0.126E-01    1.46       1.0  T
  12    -11.0385195 -0.289108E-04  0.994E-02    1.47       1.0  T
  13    -11.0385253 -0.578046E-05  0.925E-02    1.47       1.0  T
  14    -11.0385687 -0.434344E-04  0.915E-03    1.46       4.9  T
  15    -11.0385687 -0.401612E-07  0.711E-03    1.46       6.3  T
  16    -11.0385689 -0.174092E-06  0.242E-03    1.46      18.5  T
  17    -11.0385689 -0.440169E-08  0.465E-04    1.46      96.2  T
  18    -11.0385689 -0.542965E-09  0.310E-04    1.46     144.3  T

   *** convergence criteria satisfied after 18 iterations ***

         #    Occupation            Energy/Eh            Energy/eV
      -------------------------------------------------------------
         1        2.0000           -0.7461364             -20.3034
       ...           ...                  ...                  ...
         5        2.0000           -0.5468811             -14.8814
         6        2.0000           -0.5356043             -14.5745
         7        2.0000           -0.5343695             -14.5409
         8        2.0000           -0.4890006             -13.3064
         9        1.9878           -0.4595940             -12.5062
        10        1.8523           -0.4570811             -12.4378
        11        1.1598           -0.4538390             -12.3496 (HOMO)
        12                         -0.4001497             -10.8886 (LUMO)
        13                         -0.3787993             -10.3077
        14                         -0.3471316              -9.4459
        15                         -0.2500809              -6.8050
        16                         -0.0244038              -0.6641
       ...                                ...                  ...
        20                          0.1654963               4.5034
      -------------------------------------------------------------
                  HL-Gap            0.0536893 Eh            1.4610 eV
             Fermi-level           -0.4411965 Eh          -12.0056 eV

 SCC (total)                   0 d,  0 h,  0 min,  0.005 sec
 SCC setup                      ...        0 min,  0.000 sec (  2.272%)
 Dispersion                     ...        0 min,  0.000 sec (  0.323%)
 integral evaluation            ...        0 min,  0.001 sec ( 28.395%)
 zeroth order Hamiltonian       ...        0 min,  0.000 sec (  0.341%)
 iterations                     ...        0 min,  0.002 sec ( 39.444%)
 molecular gradient             ...        0 min,  0.001 sec ( 26.101%)
 printout                       ...        0 min,  0.000 sec (  2.935%)

         :::::::::::::::::::::::::::::::::::::::::::::::::::::
         ::                     SUMMARY                     ::
         :::::::::::::::::::::::::::::::::::::::::::::::::::::
         :: total energy             -10.953769487232 Eh    ::
         :: gradient norm              0.276804893680 Eh/a0 ::
         :: HOMO-LUMO gap              1.460959834462 eV    ::
         ::.................................................::
         :: SCC energy               -11.038568920898 Eh    ::
         :: -> isotropic ES           -0.003822532616 Eh    ::
         :: -> anisotropic ES          0.000405545417 Eh    ::
         :: -> anisotropic XC          0.013409115324 Eh    ::
         :: -> dispersion             -0.002800204206 Eh    ::
         :: repulsion energy           0.084799367075 Eh    ::
         :: add. restraining           0.000000000000 Eh    ::
         :::::::::::::::::::::::::::::::::::::::::::::::::::::

      ----------------------------------------------------------- 
     |                   =====================                   |
     |                        A N C O P T                        |
     |                   =====================                   |
     |               Approximate Normal Coordinate               |
     |                Rational Function Optimizer                |
      ----------------------------------------------------------- 

          ...................................................
          :                      SETUP                      :
          :.................................................:
          :   optimization level            normal          :
          :   max. optcycles                   200          :
          :   ANC micro-cycles                  20          :
          :   degrees of freedom                 9          :
          :.................................................:
          :   RF solver                   davidson          :
          :   write xtbopt.log                true          :
          :   linear?                        false          :
          :   energy convergence         0.5000000E-05 Eh   :
          :   grad. convergence          0.1000000E-02 Eh/α :
          :   maximium RF displ.         1.0000000          :
          :   Hlow (freq-cutoff)         0.1000000E-01      :
          :   Hmax (freq-cutoff)         5.0000000          :
          :   S6 in model hess.         20.0000000          :
          ...................................................

generating ANC from model Hessian ...
Using Lindh-Hessian (1995)
 Shifting diagonal of input Hessian by    0.0000000000000000     
 Lowest  eigenvalues of input Hessian
   -0.000000   -0.000000   -0.000000    0.000000    0.000000    0.000000
    0.032445    0.069670    0.144521    0.543957    0.607911    0.839393
    0.943906    1.242999    1.347064
 Highest eigenvalues
    0.543957    0.607911    0.839393    0.943906    1.242999    1.347064


........................................................................
.............................. CYCLE    1 ..............................
........................................................................
   1    -11.0385689 -0.110386E+02  0.124E-04    1.46       0.0  T
   2    -11.0385689  0.850385E-09  0.369E-04    1.46     121.2  T
   3    -11.0385689 -0.903539E-09  0.628E-05    1.46     711.7  T
     SCC iter.                  ...        0 min,  0.001 sec
     gradient                   ...        0 min,  0.001 sec
 * total energy  :   -10.9537695 Eh     change        0.6699743E-09 Eh
   gradient norm :     0.2768066 Eh/α   predicted     0.0000000E+00 (-100.00%)
   displ. norm   :     0.4459238 α      lambda       -0.9344282E-01
   maximum displ.:     0.3221645 α      in ANC's #1, #4, #7, ...

........................................................................
.............................. CYCLE    2 ..............................
........................................................................
   1    -11.1463023 -0.111463E+02  0.250E+00    2.23       0.0  T
   2    -11.0384711  0.107831E+00  0.391E+00    2.07       1.0  T
   3    -11.1345819 -0.961108E-01  0.210E+00    2.05       1.0  T
   4    -11.1424344 -0.785247E-02  0.156E+00    2.33       1.0  T
   5    -11.1542885 -0.118541E-01  0.871E-01    2.13       1.0  T
   6    -11.1541991  0.893457E-04  0.807E-01    2.15       1.0  T
   7    -11.1554855 -0.128639E-02  0.562E-01    2.17       1.0  T
   8    -11.1564116 -0.926095E-03  0.211E-01    2.20       1.0  T
   9    -11.1564096  0.199437E-05  0.213E-01    2.20       1.0  T
  10    -11.1564880 -0.783738E-04  0.101E-01    2.20       1.0  T
  11    -11.1565300 -0.419718E-04  0.310E-02    2.20       1.4  T
  12    -11.1565309 -0.945686E-06  0.148E-02    2.20       3.0  T
  13    -11.1565314 -0.502751E-06  0.225E-03    2.21      19.9  T
  14    -11.1565314 -0.125945E-07  0.145E-03    2.21      30.9  T
  15    -11.1565314 -0.592438E-08  0.192E-04    2.21     232.4  T
  16    -11.1565314 -0.854872E-10  0.116E-04    2.21     386.3  T
     SCC iter.                  ...        0 min,  0.002 sec
     gradient                   ...        0 min,  0.001 sec
 * total energy  :   -11.0308671 Eh     change       -0.7709760E-01 Eh
   gradient norm :     0.1906002 Eh/α   predicted    -0.5601186E-01 ( -27.35%)
   displ. norm   :     0.4795021 α      lambda       -0.8715685E-01
   maximum displ.:     0.2882641 α      in ANC's #4, #7, #8, ...

........................................................................
.............................. CYCLE    3 ..............................
........................................................................
   1    -11.3255555 -0.113256E+02  0.416E+00    2.30       0.0  T
   2    -11.2579286  0.676269E-01  0.375E+00    2.50       1.0  T
   3    -11.2513429  0.658565E-02  0.415E+00    1.76       1.0  T
   4    -11.3324526 -0.811097E-01  0.765E-01    2.38       1.0  T
   5    -11.3304129  0.203976E-02  0.139E+00    2.34       1.0  T
   6    -11.3315967 -0.118388E-02  0.122E+00    2.34       1.0  T
   7    -11.3317143 -0.117592E-03  0.121E+00    2.34       1.0  T
   8    -11.3347767 -0.306234E-02  0.480E-01    2.41       1.0  T
   9    -11.3354731 -0.696459E-03  0.557E-02    2.39       1.0  T
  10    -11.3354343  0.388906E-04  0.132E-01    2.38       1.0  T
  11    -11.3354797 -0.454766E-04  0.231E-02    2.39       1.9  T
  12    -11.3354782  0.153816E-05  0.338E-02    2.39       1.3  T
  13    -11.3354814 -0.320350E-05  0.405E-03    2.39      11.1  T
  14    -11.3354814 -0.252586E-07  0.289E-03    2.39      15.5  T
  15    -11.3354814 -0.232098E-07  0.478E-04    2.39      93.5  T
  16    -11.3354814 -0.668161E-09  0.702E-05    2.39     637.1  T
     SCC iter.                  ...        0 min,  0.002 sec
     gradient                   ...        0 min,  0.001 sec
 * total energy  :   -11.0279014 Eh     change        0.2965728E-02 Eh
   gradient norm :     0.4815809 Eh/α   predicted    -0.5359805E-01 (*******%)
   displ. norm   :     0.4052153 α      lambda       -0.1227240E+00
   maximum displ.:     0.3095042 α      in ANC's #1, #3, #7, ...

........................................................................
.............................. CYCLE    4 ..............................
........................................................................
   1    -11.2417107 -0.112417E+02  0.251E+00    2.02       0.0  T
   2    -11.2265781  0.151325E-01  0.268E+00    1.77       1.0  T
   3    -11.1625920  0.639861E-01  0.362E+00    1.67       1.0  T
   4    -11.2140225 -0.514305E-01  0.270E+00    1.97       1.0  T
   5    -11.2473272 -0.333047E-01  0.480E-01    1.88       1.0  T
   6    -11.2477525 -0.425238E-03  0.365E-01    1.91       1.0  T
   7    -11.2479227 -0.170252E-03  0.296E-01    1.91       1.0  T
   8    -11.2482374 -0.314645E-03  0.728E-02    1.92       1.0  T
   9    -11.2482583 -0.209110E-04  0.238E-02    1.92       1.9  T
  10    -11.2482533  0.501459E-05  0.486E-02    1.92       1.0  T
  11    -11.2482526  0.668022E-06  0.490E-02    1.92       1.0  T
  12    -11.2482578 -0.523362E-05  0.337E-02    1.92       1.3  T
  13    -11.2482621 -0.427225E-05  0.815E-04    1.92      54.9  T
  14    -11.2482621 -0.262102E-08  0.180E-04    1.92     248.5  T
  15    -11.2482621  0.887237E-10  0.205E-04    1.92     218.2  T
     SCC iter.                  ...        0 min,  0.002 sec
     gradient                   ...        0 min,  0.001 sec
 * total energy  :   -11.0717891 Eh     change       -0.4388773E-01 Eh
   gradient norm :     0.1056961 Eh/α   predicted    -0.7143763E-01 (  62.77%)
   displ. norm   :     0.4530883 α      lambda       -0.1687208E-01
   maximum displ.:     0.4357873 α      in ANC's #1, #3, #7, ...

........................................................................
.............................. CYCLE    5 ..............................
........................................................................
   1    -11.2187010 -0.112187E+02  0.216E+00    1.97       0.0  T
   2    -10.9825667  0.236134E+00  0.580E+00    1.64       1.0  T
   3    -11.2168625 -0.234296E+00  0.173E+00    1.94       1.0  T
   4    -11.2266916 -0.982906E-02  0.850E-01    2.06       1.0  T
   5    -11.2281408 -0.144919E-02  0.687E-01    2.03       1.0  T
   6    -11.2281186  0.222106E-04  0.699E-01    2.03       1.0  T
   7    -11.2300283 -0.190971E-02  0.179E-01    2.05       1.0  T
   8    -11.2300283 -0.437930E-07  0.179E-01    2.05       1.0  T
   9    -11.2300974 -0.690958E-04  0.118E-01    2.05       1.0  T
  10    -11.2301512 -0.538180E-04  0.483E-02    2.04       1.0  T
  11    -11.2301549 -0.362950E-05  0.283E-02    2.04       1.6  T
  12    -11.2301552 -0.356907E-06  0.255E-02    2.04       1.8  T
  13    -11.2301578 -0.259095E-05  0.274E-03    2.04      16.3  T
  14    -11.2301578 -0.197255E-07  0.327E-04    2.04     136.9  T
  15    -11.2301578 -0.455026E-09  0.792E-05    2.04     564.8  T
     SCC iter.                  ...        0 min,  0.001 sec
     gradient                   ...        0 min,  0.001 sec
 * total energy  :   -11.0796913 Eh     change       -0.7902189E-02 Eh
   gradient norm :     0.0999269 Eh/α   predicted    -0.1016787E-01 (  28.67%)
   displ. norm   :     0.1266228 α      lambda       -0.6897083E-02
   maximum displ.:     0.0706128 α      in ANC's #4, #8, #1, ...

........................................................................
.............................. CYCLE    6 ..............................
........................................................................
   1    -11.2407995 -0.112408E+02  0.169E+00    2.06       0.0  T
   2    -11.1773107  0.634887E-01  0.319E+00    1.79       1.0  T
   3    -11.2485363 -0.712255E-01  0.607E-01    2.01       1.0  T
   4    -11.2465666  0.196969E-02  0.968E-01    2.00       1.0  T
   5    -11.2478590 -0.129243E-02  0.795E-01    2.00       1.0  T
   6    -11.2481957 -0.336714E-03  0.815E-01    2.04       1.0  T
   7    -11.2494662 -0.127046E-02  0.510E-01    2.01       1.0  T
   8    -11.2504773 -0.101113E-02  0.105E-01    2.01       1.0  T
   9    -11.2505090 -0.316982E-04  0.366E-02    2.01       1.2  T
  10    -11.2505030  0.601906E-05  0.530E-02    2.01       1.0  T
  11    -11.2505139 -0.108886E-04  0.122E-02    2.01       3.7  T
  12    -11.2505145 -0.608709E-06  0.197E-03    2.01      22.7  T
  13    -11.2505145 -0.116224E-07  0.116E-03    2.01      38.4  T
  14    -11.2505145 -0.467626E-08  0.431E-04    2.01     103.8  T
  15    -11.2505145 -0.728871E-09  0.339E-05    2.01    1318.0  T
     SCC iter.                  ...        0 min,  0.002 sec
     gradient                   ...        0 min,  0.001 sec
 * total energy  :   -11.0851081 Eh     change       -0.5416859E-02 Eh
   gradient norm :     0.0628627 Eh/α   predicted    -0.3503834E-02 ( -35.32%)
   displ. norm   :     0.2312771 α      lambda       -0.7970801E-02
   maximum displ.:     0.1451697 α      in ANC's #1, #4, #8, ...

........................................................................
.............................. CYCLE    7 ..............................
........................................................................
   1    -11.2763293 -0.112763E+02  0.144E+00    2.08       0.0  T
   2    -11.2320656  0.442638E-01  0.278E+00    1.88       1.0  T
   3    -11.2576881 -0.256225E-01  0.216E+00    2.00       1.0  T
   4    -11.2700232 -0.123352E-01  0.163E+00    2.04       1.0  T
   5    -11.2694742  0.548973E-03  0.165E+00    2.01       1.0  T
   6    -11.2698983 -0.424103E-03  0.161E+00    2.01       1.0  T
   7    -11.2807784 -0.108800E-01  0.968E-02    2.04       1.0  T
   8    -11.2807919 -0.134857E-04  0.504E-02    2.04       1.0  T
   9    -11.2807168  0.750546E-04  0.151E-01    2.03       1.0  T
  10    -11.2807762 -0.593802E-04  0.779E-02    2.03       1.0  T
  11    -11.2807938 -0.175990E-04  0.434E-02    2.04       1.0  T
  12    -11.2808008 -0.706821E-05  0.104E-02    2.04       4.3  T
  13    -11.2808013 -0.431745E-06  0.152E-03    2.04      29.3  T
  14    -11.2808013  0.128896E-07  0.233E-03    2.04      19.2  T
  15    -11.2808013 -0.212664E-07  0.251E-04    2.04     177.9  T
  16    -11.2808013 -0.157895E-09  0.150E-04    2.04     298.0  T
     SCC iter.                  ...        0 min,  0.001 sec
     gradient                   ...        0 min,  0.001 sec
 * total energy  :   -11.0898061 Eh     change       -0.4697985E-02 Eh
   gradient norm :     0.0272973 Eh/α   predicted    -0.4198573E-02 ( -10.63%)
   displ. norm   :     0.4683701 α      lambda       -0.6370510E-02
   maximum displ.:     0.3846187 α      in ANC's #1, #4, #8, ...

........................................................................
.............................. CYCLE    8 ..............................
........................................................................
   1    -11.2429924 -0.112430E+02  0.199E+00    2.03       0.0  T
   2    -11.0589748  0.184018E+00  0.529E+00    1.86       1.0  T
   3    -11.2282958 -0.169321E+00  0.199E+00    1.93       1.0  T
   4    -11.2468041 -0.185083E-01  0.745E-01    2.03       1.0  T
   5    -11.2458708  0.933232E-03  0.744E-01    2.06       1.0  T
   6    -11.2469358 -0.106496E-02  0.566E-01    2.05       1.0  T
   7    -11.2480508 -0.111504E-02  0.196E-01    2.08       1.0  T
   8    -11.2480778 -0.269835E-04  0.186E-01    2.08       1.0  T
   9    -11.2480634  0.143668E-04  0.198E-01    2.08       1.0  T
  10    -11.2480341  0.293606E-04  0.200E-01    2.07       1.0  T
  11    -11.2481607 -0.126658E-03  0.960E-02    2.07       1.0  T
  12    -11.2481957 -0.349619E-04  0.231E-02    2.08       1.9  T
  13    -11.2481979 -0.218072E-05  0.456E-03    2.08       9.8  T
  14    -11.2481979 -0.681526E-07  0.889E-04    2.08      50.3  T
  15    -11.2481979 -0.397782E-08  0.347E-05    2.08    1289.6  T
     SCC iter.                  ...        0 min,  0.001 sec
     gradient                   ...        0 min,  0.001 sec
 * total energy  :   -11.0898954 Eh     change       -0.8925339E-04 Eh
   gradient norm :     0.0843988 Eh/α   predicted    -0.3883981E-02 (4251.63%)
   displ. norm   :     0.1801371 α      lambda       -0.6239486E-02
   maximum displ.:     0.1475190 α      in ANC's #1, #3, #4, ...

........................................................................
.............................. CYCLE    9 ..............................
........................................................................
   1    -11.2748373 -0.112748E+02  0.109E+00    2.11       0.0  T
   2    -11.2483834  0.264539E-01  0.212E+00    1.93       1.0  T
   3    -11.2519056 -0.352220E-02  0.228E+00    2.07       1.0  T
   4    -11.2766528 -0.247472E-01  0.456E-01    2.07       1.0  T
   5    -11.2714430  0.520977E-02  0.116E+00    2.05       1.0  T
   6    -11.2726411 -0.119806E-02  0.102E+00    2.05       1.0  T
   7    -11.2770653 -0.442426E-02  0.180E-01    2.07       1.0  T
   8    -11.2771271 -0.617648E-04  0.142E-01    2.07       1.0  T
   9    -11.2771266  0.466780E-06  0.144E-01    2.07       1.0  T
  10    -11.2771945 -0.678761E-04  0.674E-02    2.07       1.0  T
  11    -11.2772128 -0.183056E-04  0.895E-03    2.07       5.0  T
  12    -11.2772131 -0.318004E-06  0.130E-03    2.07      34.3  T
  13    -11.2772131 -0.388884E-08  0.217E-04    2.07     206.0  T
  14    -11.2772131  0.168983E-09  0.273E-04    2.07     163.8  T
     SCC iter.                  ...        0 min,  0.001 sec
     gradient                   ...        0 min,  0.001 sec
 * total energy  :   -11.0926956 Eh     change       -0.2800260E-02 Eh
   gradient norm :     0.0137863 Eh/α   predicted    -0.3220979E-02 (  15.02%)
   displ. norm   :     0.1066706 α      lambda       -0.7754562E-03
   maximum displ.:     0.0786090 α      in ANC's #1, #8, #4, ...

........................................................................
.............................. CYCLE   10 ..............................
........................................................................
   1    -11.2774870 -0.112775E+02  0.545E-01    2.11       0.0  T
   2    -11.2049530  0.725339E-01  0.369E+00    2.09       1.0  T
   3    -11.2756744 -0.707213E-01  0.746E-01    2.10       1.0  T
   4    -11.2777710 -0.209660E-02  0.262E-01    2.11       1.0  T
   5    -11.2780356 -0.264656E-03  0.117E-01    2.12       1.0  T
   6    -11.2780497 -0.141074E-04  0.100E-01    2.12       1.0  T
   7    -11.2780613 -0.115679E-04  0.854E-02    2.12       1.0  T
   8    -11.2780774 -0.161129E-04  0.601E-02    2.12       1.0  T
   9    -11.2780910 -0.136145E-04  0.236E-02    2.12       1.9  T
  10    -11.2780939 -0.286607E-05  0.297E-03    2.12      15.0  T
  11    -11.2780939 -0.117388E-07  0.242E-03    2.12      18.5  T
  12    -11.2780939 -0.263736E-07  0.333E-04    2.12     134.4  T
  13    -11.2780939 -0.533889E-09  0.314E-05    2.12    1425.5  T
     SCC iter.                  ...        0 min,  0.001 sec
     gradient                   ...        0 min,  0.001 sec
 * total energy  :   -11.0933521 Eh     change       -0.6564575E-03 Eh
   gradient norm :     0.0139640 Eh/α   predicted    -0.3921378E-03 ( -40.26%)
   displ. norm   :     0.2557420 α      lambda       -0.1536873E-02
   maximum displ.:     0.1761532 α      in ANC's #1, #8, #4, ...

........................................................................
.............................. CYCLE   11 ..............................
........................................................................
   1    -11.2748338 -0.112748E+02  0.111E+00    2.21       0.0  T
   2    -11.1494912  0.125343E+00  0.471E+00    2.18       1.0  T
   3    -11.2694781 -0.119987E+00  0.125E+00    2.20       1.0  T
   4    -11.2762161 -0.673801E-02  0.310E-01    2.21       1.0  T
   5    -11.2757426  0.473502E-03  0.406E-01    2.23       1.0  T
   6    -11.2759276 -0.184981E-03  0.351E-01    2.23       1.0  T
   7    -11.2761007 -0.173159E-03  0.275E-01    2.23       1.0  T
   8    -11.2763738 -0.273064E-03  0.101E-01    2.24       1.0  T
   9    -11.2764234 -0.495767E-04  0.188E-02    2.24       2.4  T
  10    -11.2764206  0.273007E-05  0.319E-02    2.24       1.4  T
  11    -11.2764212 -0.564314E-06  0.250E-02    2.24       1.8  T
  12    -11.2764235 -0.226277E-05  0.686E-03    2.25       6.5  T
  13    -11.2764237 -0.223095E-06  0.958E-04    2.25      46.7  T
  14    -11.2764237 -0.398251E-08  0.871E-05    2.25     513.3  T
     SCC iter.                  ...        0 min,  0.001 sec
     gradient                   ...        0 min,  0.001 sec
 * total energy  :   -11.0941016 Eh     change       -0.7494886E-03 Eh
   gradient norm :     0.0181005 Eh/α   predicted    -0.8186934E-03 (   9.23%)
   displ. norm   :     0.0217118 α      lambda       -0.2910379E-03
   maximum displ.:     0.0164145 α      in ANC's #3, #8, #1, ...

........................................................................
.............................. CYCLE   12 ..............................
........................................................................
   1    -11.2824494 -0.112824E+02  0.173E-01    2.26       0.0  T
   2    -11.2799744  0.247504E-02  0.676E-01    2.23       1.0  T
   3    -11.2818259 -0.185151E-02  0.385E-01    2.26       1.0  T
   4    -11.2825046 -0.678735E-03  0.334E-02    2.26       1.3  T
   5    -11.2824995  0.514670E-05  0.461E-02    2.25       1.0  T
   6    -11.2825005 -0.978977E-06  0.426E-02    2.25       1.0  T
   7    -11.2825026 -0.213151E-05  0.350E-02    2.25       1.3  T
   8    -11.2825083 -0.570725E-05  0.969E-04    2.25      46.2  T
   9    -11.2825083  0.410449E-07  0.327E-03    2.25      13.7  T
  10    -11.2825083 -0.437027E-07  0.762E-04    2.25      58.7  T
  11    -11.2825083 -0.191283E-08  0.333E-04    2.25     134.2  T
     SCC iter.                  ...        0 min,  0.001 sec
     gradient                   ...        0 min,  0.001 sec
 * total energy  :   -11.0942561 Eh     change       -0.1545041E-03 Eh
   gradient norm :     0.0038578 Eh/α   predicted    -0.1455890E-03 (  -5.77%)
   displ. norm   :     0.0401652 α      lambda       -0.4669809E-04
   maximum displ.:     0.0262355 α      in ANC's #1, #8, #4, ...

........................................................................
.............................. CYCLE   13 ..............................
........................................................................
   1    -11.2820759 -0.112821E+02  0.164E-01    2.26       0.0  T
   2    -11.2789702  0.310568E-02  0.788E-01    2.29       1.0  T
   3    -11.2819390 -0.296878E-02  0.201E-01    2.26       1.0  T
   4    -11.2821003 -0.161292E-03  0.376E-02    2.26       1.2  T
   5    -11.2821032 -0.288772E-05  0.361E-02    2.26       1.2  T
   6    -11.2821053 -0.208006E-05  0.309E-02    2.27       1.4  T
   7    -11.2821082 -0.290326E-05  0.180E-02    2.27       2.5  T
   8    -11.2821090 -0.785553E-06  0.100E-02    2.27       4.5  T
   9    -11.2821094 -0.407387E-06  0.349E-03    2.27      12.8  T
  10    -11.2821094 -0.482095E-07  0.704E-04    2.27      63.5  T
  11    -11.2821094 -0.167429E-08  0.365E-04    2.27     122.7  T
     SCC iter.                  ...        0 min,  0.001 sec
     gradient                   ...        0 min,  0.001 sec
 * total energy  :   -11.0942840 Eh     change       -0.2792480E-04 Eh
   gradient norm :     0.0041589 Eh/α   predicted    -0.2338555E-04 ( -16.26%)
   displ. norm   :     0.0226824 α      lambda       -0.2909208E-04
   maximum displ.:     0.0141307 α      in ANC's #8, #4, #1, ...

........................................................................
.............................. CYCLE   14 ..............................
........................................................................
   1    -11.2824507 -0.112825E+02  0.157E-01    2.26       0.0  T
   2    -11.2797978  0.265284E-02  0.706E-01    2.23       1.0  T
   3    -11.2822897 -0.249182E-02  0.222E-01    2.26       1.0  T
   4    -11.2825031 -0.213457E-03  0.418E-02    2.26       1.1  T
   5    -11.2825007  0.238939E-05  0.487E-02    2.25       1.0  T
   6    -11.2825066 -0.583050E-05  0.371E-02    2.25       1.2  T
   7    -11.2825090 -0.248370E-05  0.260E-02    2.25       1.7  T
   8    -11.2825119 -0.280199E-05  0.107E-02    2.25       4.2  T
   9    -11.2825123 -0.410012E-06  0.448E-03    2.25      10.0  T
  10    -11.2825123 -0.728233E-07  0.168E-03    2.25      26.6  T
  11    -11.2825123 -0.119500E-07  0.903E-05    2.25     495.2  T
  12    -11.2825123 -0.358309E-10  0.146E-05    2.25    3062.7  T
     SCC iter.                  ...        0 min,  0.001 sec
     gradient                   ...        0 min,  0.001 sec
 * total energy  :   -11.0943012 Eh     change       -0.1716537E-04 Eh
   gradient norm :     0.0026572 Eh/α   predicted    -0.1455278E-04 ( -15.22%)
   displ. norm   :     0.0075389 α      lambda       -0.1290817E-04
   maximum displ.:     0.0048351 α      in ANC's #4, #7, #3, ...

........................................................................
.............................. CYCLE   15 ..............................
........................................................................
   1    -11.2822561 -0.112823E+02  0.125E-01    2.24       0.0  T
   2    -11.2800790  0.217708E-02  0.642E-01    2.21       1.0  T
   3    -11.2821193 -0.204032E-02  0.199E-01    2.24       1.0  T
   4    -11.2822886 -0.169237E-03  0.480E-02    2.24       1.0  T
   5    -11.2822975 -0.889275E-05  0.229E-02    2.24       2.0  T
   6    -11.2822987 -0.118562E-05  0.204E-02    2.24       2.2  T
   7    -11.2822989 -0.206653E-06  0.176E-02    2.24       2.5  T
   8    -11.2823003 -0.144957E-05  0.306E-03    2.24      14.6  T
   9    -11.2823003 -0.332729E-07  0.101E-03    2.24      44.5  T
  10    -11.2823003 -0.801576E-09  0.866E-04    2.24      51.6  T
  11    -11.2823004 -0.322999E-08  0.223E-05    2.24    2007.2  T
     SCC iter.                  ...        0 min,  0.001 sec
     gradient                   ...        0 min,  0.001 sec
 * total energy  :   -11.0943107 Eh     change       -0.9502256E-05 Eh
   gradient norm :     0.0016164 Eh/α   predicted    -0.6453326E-05 ( -32.09%)
   displ. norm   :     0.0122681 α      lambda       -0.8338247E-05
   maximum displ.:     0.0084785 α      in ANC's #7, #1, #8, ...

........................................................................
.............................. CYCLE   16 ..............................
........................................................................
   1    -11.2817890 -0.112818E+02  0.217E-01    2.22       0.0  T
   2    -11.2766660  0.512302E-02  0.978E-01    2.17       1.0  T
   3    -11.2813900 -0.472406E-02  0.338E-01    2.21       1.0  T
   4    -11.2818591 -0.469060E-03  0.108E-01    2.21       1.0  T
   5    -11.2819055 -0.464231E-04  0.600E-02    2.21       1.0  T
   6    -11.2819113 -0.583141E-05  0.522E-02    2.21       1.0  T
   7    -11.2819151 -0.374680E-05  0.397E-02    2.21       1.1  T
   8    -11.2819218 -0.670819E-05  0.143E-02    2.21       3.1  T
   9    -11.2819226 -0.818607E-06  0.349E-03    2.21      12.8  T
  10    -11.2819226 -0.112783E-07  0.296E-03    2.21      15.1  T
  11    -11.2819227 -0.366897E-07  0.307E-04    2.21     145.8  T
  12    -11.2819227 -0.345500E-09  0.142E-04    2.21     315.6  T
     SCC iter.                  ...        0 min,  0.001 sec
     gradient                   ...        0 min,  0.001 sec
 * total energy  :   -11.0943155 Eh     change       -0.4800275E-05 Eh
   gradient norm :     0.0014430 Eh/α   predicted    -0.4170862E-05 ( -13.11%)
   displ. norm   :     0.0030130 α      lambda       -0.2073054E-05
   maximum displ.:     0.0017049 α      in ANC's #2, #6, #4, ...

........................................................................
.............................. CYCLE   17 ..............................
........................................................................
   1    -11.2818911 -0.112819E+02  0.560E-02    2.21       0.0  T
   2    -11.2815081  0.383002E-03  0.274E-01    2.22       1.0  T
   3    -11.2818284 -0.320361E-03  0.119E-01    2.21       1.0  T
   4    -11.2818812 -0.527460E-04  0.564E-02    2.21       1.0  T
   5    -11.2818954 -0.142128E-04  0.207E-02    2.21       2.2  T
   6    -11.2818965 -0.108542E-05  0.112E-02    2.21       4.0  T
   7    -11.2818971 -0.627194E-06  0.702E-04    2.21      63.7  T
   8    -11.2818971  0.376910E-08  0.108E-03    2.21      41.4  T
   9    -11.2818971 -0.339350E-08  0.582E-04    2.21      76.9  T
     SCC iter.                  ...        0 min,  0.001 sec
     gradient                   ...        0 min,  0.001 sec
 * total energy  :   -11.0943189 Eh     change       -0.3430323E-05 Eh
   gradient norm :     0.0017890 Eh/α   predicted    -0.1036989E-05 ( -69.77%)
   displ. norm   :     0.0055881 α      lambda       -0.4113862E-05
   maximum displ.:     0.0038409 α      in ANC's #2, #6, #7, ...

........................................................................
.............................. CYCLE   18 ..............................
........................................................................
   1    -11.2818697 -0.112819E+02  0.961E-02    2.21       0.0  T
   2    -11.2815078  0.361975E-03  0.264E-01    2.20       1.0  T
   3    -11.2814457  0.620743E-04  0.297E-01    2.21       1.0  T
   4    -11.2818406 -0.394964E-03  0.877E-02    2.21       1.0  T
   5    -11.2818827 -0.420323E-04  0.825E-03    2.21       5.4  T
   6    -11.2818827 -0.153455E-07  0.325E-03    2.21      13.8  T
   7    -11.2818826  0.601157E-07  0.422E-03    2.21      10.6  T
   8    -11.2818827 -0.919765E-07  0.556E-04    2.21      80.5  T
   9    -11.2818827 -0.489420E-09  0.138E-04    2.21     324.2  T
     SCC iter.                  ...        0 min,  0.001 sec
     gradient                   ...        0 min,  0.001 sec
 * total energy  :   -11.0943272 Eh     change       -0.8259208E-05 Eh
   gradient norm :     0.0029892 Eh/α   predicted    -0.2056314E-05 ( -75.10%)
   displ. norm   :     0.0061466 α      lambda       -0.1169904E-04
   maximum displ.:     0.0041292 α      in ANC's #2, #6, #5, ...

........................................................................
.............................. CYCLE   19 ..............................
........................................................................
   1    -11.2818090 -0.112818E+02  0.110E-01    2.20       0.0  T
   2    -11.2812030  0.605951E-03  0.342E-01    2.19       1.0  T
   3    -11.2813363 -0.133298E-03  0.315E-01    2.21       1.0  T
   4    -11.2817746 -0.438302E-03  0.984E-02    2.20       1.0  T
   5    -11.2818276 -0.529821E-04  0.866E-03    2.20       5.2  T
   6    -11.2818275  0.797312E-07  0.512E-03    2.20       8.7  T
   7    -11.2818275  0.462596E-07  0.519E-03    2.20       8.6  T
   8    -11.2818276 -0.140037E-06  0.655E-04    2.20      68.2  T
   9    -11.2818276 -0.808036E-09  0.176E-04    2.20     254.4  T
     SCC iter.                  ...        0 min,  0.001 sec
     gradient                   ...        0 min,  0.001 sec
 * total energy  :   -11.0943416 Eh     change       -0.1443464E-04 Eh
   gradient norm :     0.0043745 Eh/α   predicted    -0.5851658E-05 ( -59.46%)
   displ. norm   :     0.0091697 α      lambda       -0.2514428E-04
   maximum displ.:     0.0063332 α      in ANC's #2, #6, #5, ...

........................................................................
.............................. CYCLE   20 ..............................
........................................................................
   1    -11.2817356 -0.112817E+02  0.167E-01    2.19       0.0  T
   2    -11.2800609  0.167478E-02  0.568E-01    2.18       1.0  T
   3    -11.2808369 -0.775997E-03  0.437E-01    2.20       1.0  T
   4    -11.2816706 -0.833757E-03  0.143E-01    2.19       1.0  T
   5    -11.2817820 -0.111367E-03  0.171E-02    2.19       2.6  T
   6    -11.2817811  0.892919E-06  0.185E-02    2.19       2.4  T
   7    -11.2817821 -0.961082E-06  0.988E-03    2.19       4.5  T
   8    -11.2817826 -0.512684E-06  0.972E-04    2.19      46.0  T
   9    -11.2817826 -0.111942E-08  0.327E-04    2.19     136.8  T
     SCC iter.                  ...        0 min,  0.001 sec
     gradient                   ...        0 min,  0.001 sec
 * total energy  :   -11.0943725 Eh     change       -0.3093325E-04 Eh
   gradient norm :     0.0064057 Eh/α   predicted    -0.1257247E-04 ( -59.36%)
   displ. norm   :     0.0132221 α      lambda       -0.5337164E-04
   maximum displ.:     0.0090259 α      in ANC's #2, #6, #5, ...
 * RMSD in coord.:     1.0720006 α      energy gain  -0.1406030E+00 Eh

generating ANC from model Hessian ...
Using Lindh-Hessian (1995)
 Shifting diagonal of input Hessian by    8.9663476453427701E-003
 Lowest  eigenvalues of input Hessian
   -0.000000   -0.000000   -0.000000   -0.000000    0.000000    0.000000
    0.010000    0.063948    0.277112    0.412058    1.057069    1.084912
    1.178850    1.597967    2.501079
 Highest eigenvalues
    0.412058    1.057069    1.084912    1.178850    1.597967    2.501079


........................................................................
.............................. CYCLE   21 ..............................
........................................................................
   1    -11.2816410 -0.112816E+02  0.246E-01    2.18       0.0  T
   2    -11.2776385  0.400248E-02  0.873E-01    2.15       1.0  T
   3    -11.2800717 -0.243321E-02  0.583E-01    2.18       1.0  T
   4    -11.2815492 -0.147749E-02  0.193E-01    2.17       1.0  T
   5    -11.2817486 -0.199411E-03  0.476E-02    2.17       1.0  T
   6    -11.2817431  0.550962E-05  0.553E-02    2.17       1.0  T
   7    -11.2817559 -0.128007E-04  0.128E-02    2.18       3.5  T
   8    -11.2817568 -0.853418E-06  0.240E-03    2.18      18.7  T
   9    -11.2817568 -0.224348E-07  0.573E-04    2.18      78.0  T
  10    -11.2817568  0.193066E-08  0.805E-04    2.18      55.5  T
     SCC iter.                  ...        0 min,  0.001 sec
     gradient                   ...        0 min,  0.001 sec
 * total energy  :   -11.0944377 Eh     change       -0.6515962E-04 Eh
   gradient norm :     0.0102683 Eh/α   predicted     0.0000000E+00 (-100.00%)
   displ. norm   :     0.0548204 α      lambda       -0.1352247E-03
   maximum displ.:     0.0525852 α      in ANC's #1, #2, #6, ...

........................................................................
.............................. CYCLE   22 ..............................
........................................................................
   1    -11.2818510 -0.112819E+02  0.285E-01    2.17       0.0  T
   2    -11.2802938  0.155716E-02  0.564E-01    2.16       1.0  T
   3    -11.2791465  0.114732E-02  0.744E-01    2.18       1.0  T
   4    -11.2814425 -0.229597E-02  0.291E-01    2.17       1.0  T
   5    -11.2818728 -0.430348E-03  0.106E-01    2.17       1.0  T
   6    -11.2819100 -0.371862E-04  0.564E-02    2.17       1.0  T
   7    -11.2819238 -0.138582E-04  0.193E-02    2.17       2.3  T
   8    -11.2819250 -0.118887E-05  0.696E-03    2.17       6.4  T
   9    -11.2819252 -0.198164E-06  0.123E-03    2.17      36.3  T
  10    -11.2819252  0.644860E-09  0.110E-03    2.17      40.6  T
  11    -11.2819252 -0.436127E-08  0.328E-04    2.17     136.4  T
  12    -11.2819252 -0.461299E-09  0.797E-05    2.17     561.3  T
     SCC iter.                  ...        0 min,  0.001 sec
     gradient                   ...        0 min,  0.001 sec
 * total energy  :   -11.0944760 Eh     change       -0.3828866E-04 Eh
   gradient norm :     0.0130057 Eh/α   predicted    -0.6781415E-04 (  77.11%)
   displ. norm   :     0.0476354 α      lambda       -0.5067512E-03
   maximum displ.:     0.0318194 α      in ANC's #6, #3, #7, ...

........................................................................
.............................. CYCLE   23 ..............................
........................................................................
   1    -11.2835767 -0.112836E+02  0.698E-01    2.13       0.0  T
   2    -11.2672474  0.163293E-01  0.168E+00    2.07       1.0  T
   3    -11.2811230 -0.138756E-01  0.838E-01    2.14       1.0  T
   4    -11.2833033 -0.218026E-02  0.508E-01    2.11       1.0  T
   5    -11.2839953 -0.692027E-03  0.423E-01    2.12       1.0  T
   6    -11.2840804 -0.851021E-04  0.391E-01    2.12       1.0  T
   7    -11.2847636 -0.683222E-03  0.264E-02    2.13       1.7  T
   8    -11.2847656 -0.195300E-05  0.730E-03    2.13       6.1  T
   9    -11.2847656 -0.254731E-07  0.469E-03    2.13       9.5  T
  10    -11.2847654  0.203195E-06  0.854E-03    2.13       5.2  T
  11    -11.2847657 -0.276340E-06  0.113E-03    2.13      39.6  T
  12    -11.2847657 -0.135175E-08  0.969E-04    2.13      46.2  T
  13    -11.2847657 -0.346669E-08  0.113E-04    2.13     396.8  T
     SCC iter.                  ...        0 min,  0.001 sec
     gradient                   ...        0 min,  0.001 sec
 * total energy  :   -11.0950966 Eh     change       -0.6206427E-03 Eh
   gradient norm :     0.0180417 Eh/α   predicted    -0.2539491E-03 ( -59.08%)
   displ. norm   :     0.0671365 α      lambda       -0.9070908E-03
   maximum displ.:     0.0438568 α      in ANC's #6, #3, #7, ...

........................................................................
.............................. CYCLE   24 ..............................
........................................................................
   1    -11.2855278 -0.112855E+02  0.740E-01    2.04       0.0  T
   2    -11.2696668  0.158610E-01  0.160E+00    1.96       1.0  T
   3    -11.2858146 -0.161478E-01  0.508E-01    2.02       1.0  T
   4    -11.2867367 -0.922102E-03  0.248E-01    2.03       1.0  T
   5    -11.2869859 -0.249232E-03  0.173E-01    2.02       1.0  T
   6    -11.2870731 -0.871482E-04  0.991E-02    2.02       1.0  T
   7    -11.2871066 -0.335077E-04  0.324E-02    2.03       1.4  T
   8    -11.2871118 -0.516901E-05  0.558E-03    2.02       8.0  T
   9    -11.2871118 -0.715482E-07  0.160E-03    2.02      28.0  T
  10    -11.2871118 -0.687865E-08  0.692E-04    2.02      64.6  T
  11    -11.2871118  0.103789E-08  0.779E-04    2.02      57.4  T
     SCC iter.                  ...        0 min,  0.001 sec
     gradient                   ...        0 min,  0.001 sec
 * total energy  :   -11.0958328 Eh     change       -0.7362114E-03 Eh
   gradient norm :     0.0197683 Eh/α   predicted    -0.4555899E-03 ( -38.12%)
   displ. norm   :     0.1360884 α      lambda       -0.1690008E-02
   maximum displ.:     0.0844672 α      in ANC's #6, #3, #1, ...

........................................................................
.............................. CYCLE   25 ..............................
........................................................................
   1    -11.2885873 -0.112886E+02  0.101E+00    1.81       0.0  T
   2    -11.2766565  0.119308E-01  0.137E+00    1.75       1.0  T
   3    -11.2867971 -0.101406E-01  0.829E-01    1.79       1.0  T
   4    -11.2894699 -0.267281E-02  0.383E-01    1.81       1.0  T
   5    -11.2904587 -0.988757E-03  0.122E-01    1.78       1.0  T
   6    -11.2905044 -0.457194E-04  0.669E-02    1.79       1.0  T
   7    -11.2905172 -0.128188E-04  0.285E-02    1.79       1.6  T
   8    -11.2905234 -0.621454E-05  0.552E-03    1.79       8.1  T
   9    -11.2905236 -0.154822E-06  0.238E-03    1.79      18.8  T
  10    -11.2905236 -0.627276E-08  0.872E-04    1.79      51.3  T
  11    -11.2905236 -0.310699E-08  0.138E-04    1.79     323.7  T
     SCC iter.                  ...        0 min,  0.001 sec
     gradient                   ...        0 min,  0.001 sec
 * total energy  :   -11.0965709 Eh     change       -0.7380691E-03 Eh
   gradient norm :     0.0340482 Eh/α   predicted    -0.8606508E-03 (  16.61%)
   displ. norm   :     0.0329065 α      lambda       -0.6680788E-03
   maximum displ.:     0.0221987 α      in ANC's #1, #7, #2, ...

........................................................................
.............................. CYCLE   26 ..............................
........................................................................
   1    -11.2906932 -0.112907E+02  0.197E-01    1.82       0.0  T
   2    -11.2906638  0.293814E-04  0.150E-01    1.82       1.0  T
   3    -11.2905034  0.160356E-03  0.166E-01    1.83       1.0  T
   4    -11.2906422 -0.138738E-03  0.948E-02    1.82       1.0  T
   5    -11.2907056 -0.633929E-04  0.148E-02    1.82       3.0  T
   6    -11.2907060 -0.440421E-06  0.866E-03    1.83       5.2  T
   7    -11.2907060  0.201867E-07  0.604E-03    1.82       7.4  T
   8    -11.2907062 -0.219270E-06  0.143E-03    1.82      31.4  T
   9    -11.2907062 -0.669580E-08  0.240E-04    1.82     186.7  T
  10    -11.2907062 -0.276028E-10  0.112E-04    1.82     398.1  T
     SCC iter.                  ...        0 min,  0.001 sec
     gradient                   ...        0 min,  0.001 sec
 * total energy  :   -11.0971059 Eh     change       -0.5349736E-03 Eh
   gradient norm :     0.0225893 Eh/α   predicted    -0.3344008E-03 ( -37.49%)
   displ. norm   :     0.0908653 α      lambda       -0.1583590E-02
   maximum displ.:     0.0533683 α      in ANC's #6, #5, #7, ...

........................................................................
.............................. CYCLE   27 ..............................
........................................................................
   1    -11.2935089 -0.112935E+02  0.717E-01    1.77       0.0  T
   2    -11.2908606  0.264828E-02  0.741E-01    1.74       1.0  T
   3    -11.2922385 -0.137783E-02  0.628E-01    1.76       1.0  T
   4    -11.2919005  0.337974E-03  0.542E-01    1.77       1.0  T
   5    -11.2941197 -0.221917E-02  0.753E-02    1.76       1.0  T
   6    -11.2941230 -0.333278E-05  0.495E-02    1.76       1.0  T
   7    -11.2941380 -0.149855E-04  0.119E-02    1.76       3.8  T
   8    -11.2941384 -0.465444E-06  0.646E-03    1.76       6.9  T
   9    -11.2941386 -0.183889E-06  0.186E-03    1.76      24.1  T
  10    -11.2941386 -0.423363E-08  0.498E-04    1.76      89.8  T
  11    -11.2941386 -0.380222E-09  0.899E-05    1.76     497.3  T
     SCC iter.                  ...        0 min,  0.001 sec
     gradient                   ...        0 min,  0.001 sec
 * total energy  :   -11.0982988 Eh     change       -0.1192967E-02 Eh
   gradient norm :     0.0177663 Eh/α   predicted    -0.7983312E-03 ( -33.08%)
   displ. norm   :     0.1842432 α      lambda       -0.2075406E-02
   maximum displ.:     0.1346402 α      in ANC's #6, #5, #9, ...

........................................................................
.............................. CYCLE   28 ..............................
........................................................................
   1    -11.3010618 -0.113011E+02  0.118E+00    1.52       0.0  T
   2    -11.2968025  0.425933E-02  0.113E+00    1.51       1.0  T
   3    -11.2999053 -0.310285E-02  0.758E-01    1.49       1.0  T
   4    -11.3013285 -0.142316E-02  0.427E-01    1.52       1.0  T
   5    -11.3024599 -0.113143E-02  0.128E-01    1.50       1.0  T
   6    -11.3025202 -0.602369E-04  0.726E-02    1.51       1.0  T
   7    -11.3025422 -0.220067E-04  0.218E-02    1.50       2.1  T
   8    -11.3025442 -0.203691E-05  0.941E-03    1.50       4.8  T
   9    -11.3025445 -0.303673E-06  0.255E-03    1.50      17.6  T
  10    -11.3025445 -0.204958E-08  0.839E-04    1.50      53.3  T
  11    -11.3025445 -0.132416E-08  0.127E-04    1.50     351.3  T
     SCC iter.                  ...        0 min,  0.001 sec
     gradient                   ...        0 min,  0.001 sec
 * total energy  :   -11.0998324 Eh     change       -0.1533563E-02 Eh
   gradient norm :     0.0334320 Eh/α   predicted    -0.1072931E-02 ( -30.04%)
   displ. norm   :     0.3300223 α      lambda       -0.3283816E-02
   maximum displ.:     0.2608835 α      in ANC's #6, #5, #9, ...

........................................................................
.............................. CYCLE   29 ..............................
........................................................................
   1    -11.3095092 -0.113095E+02  0.175E+00    1.05       0.0  T
   2    -11.3065106  0.299857E-02  0.137E+00    1.10       1.0  T
   3    -11.3013066  0.520395E-02  0.118E+00    1.00       1.0  T
   4    -11.3103871 -0.908046E-02  0.376E-01    1.05       1.0  T
   5    -11.3110936 -0.706485E-03  0.125E-01    1.06       1.0  T
   6    -11.3110939 -0.305425E-06  0.900E-02    1.06       1.0  T
   7    -11.3111275 -0.336039E-04  0.388E-02    1.05       1.2  T
   8    -11.3111365 -0.904480E-05  0.745E-03    1.06       6.0  T
   9    -11.3111366 -0.683520E-07  0.443E-03    1.06      10.1  T
  10    -11.3111366 -0.303259E-07  0.623E-04    1.06      71.8  T
  11    -11.3111366 -0.446844E-09  0.711E-05    1.06     628.9  T
     SCC iter.                  ...        0 min,  0.001 sec
     gradient                   ...        0 min,  0.001 sec
 * total energy  :   -11.1020366 Eh     change       -0.2204149E-02 Eh
   gradient norm :     0.0734785 Eh/α   predicted    -0.1820744E-02 ( -17.39%)
   displ. norm   :     0.2744582 α      lambda       -0.5115150E-02
   maximum displ.:     0.2146277 α      in ANC's #6, #5, #3, ...

........................................................................
.............................. CYCLE   30 ..............................
........................................................................
   1    -11.3196420 -0.113196E+02  0.124E+00    0.80       0.0  T
   2    -11.3187327  0.909377E-03  0.893E-01    0.86       1.0  T
   3    -11.3159067  0.282596E-02  0.819E-01    0.77       1.0  T
   4    -11.3195981 -0.369141E-02  0.342E-01    0.82       1.0  T
   5    -11.3203594 -0.761271E-03  0.614E-02    0.82       1.0  T
   6    -11.3203619 -0.255292E-05  0.298E-02    0.83       1.5  T
   7    -11.3203650 -0.307234E-05  0.134E-02    0.82       3.3  T
   8    -11.3203664 -0.138522E-05  0.345E-03    0.82      13.0  T
   9    -11.3203664 -0.296641E-07  0.190E-03    0.82      23.5  T
  10    -11.3203664 -0.692836E-08  0.298E-04    0.82     150.1  T
  11    -11.3203664 -0.819416E-10  0.421E-05    0.82    1062.8  T
     SCC iter.                  ...        0 min,  0.001 sec
     gradient                   ...        0 min,  0.001 sec
 * total energy  :   -11.1060053 Eh     change       -0.3968753E-02 Eh
   gradient norm :     0.0779922 Eh/α   predicted    -0.2750235E-02 ( -30.70%)
   displ. norm   :     0.3380396 α      lambda       -0.1552663E-01
   maximum displ.:     0.2174534 α      in ANC's #3, #6, #7, ...

........................................................................
.............................. CYCLE   31 ..............................
........................................................................
   1    -11.3502089 -0.113502E+02  0.145E+00    0.79       0.0  T
   2    -11.3470522  0.315667E-02  0.110E+00    0.91       1.0  T
   3    -11.3484751 -0.142282E-02  0.931E-01    0.79       1.0  T
   4    -11.3516891 -0.321402E-02  0.396E-01    0.80       1.0  T
   5    -11.3526499 -0.960878E-03  0.918E-02    0.85       1.0  T
   6    -11.3527050 -0.550067E-04  0.535E-02    0.83       1.0  T
   7    -11.3527129 -0.793415E-05  0.241E-02    0.83       1.9  T
   8    -11.3527140 -0.109875E-05  0.338E-03    0.84      13.3  T
   9    -11.3527140 -0.152224E-07  0.180E-03    0.84      24.9  T
  10    -11.3527140 -0.239356E-08  0.361E-04    0.84     123.8  T
  11    -11.3527140 -0.342046E-09  0.372E-05    0.84    1203.2  T
     SCC iter.                  ...        0 min,  0.001 sec
     gradient                   ...        0 min,  0.001 sec
 * total energy  :   -11.1119739 Eh     change       -0.5968631E-02 Eh
   gradient norm :     0.1198327 Eh/α   predicted    -0.8650426E-02 (  44.93%)
   displ. norm   :     0.1970539 α      lambda       -0.9393124E-02
   maximum displ.:     0.1360394 α      in ANC's #4, #6, #5, ...

........................................................................
.............................. CYCLE   32 ..............................
........................................................................
   1    -11.3267164 -0.113267E+02  0.836E-01    0.82       0.0  T
   2    -11.3258959  0.820522E-03  0.614E-01    0.89       1.0  T
   3    -11.3266840 -0.788159E-03  0.482E-01    0.82       1.0  T
   4    -11.3272027 -0.518701E-03  0.234E-01    0.83       1.0  T
   5    -11.3275980 -0.395310E-03  0.471E-02    0.85       1.0  T
   6    -11.3276054 -0.740710E-05  0.303E-02    0.84       1.5  T
   7    -11.3276078 -0.237693E-05  0.675E-03    0.85       6.6  T
   8    -11.3276080 -0.200962E-06  0.265E-03    0.85      16.9  T
   9    -11.3276080 -0.454390E-08  0.118E-03    0.85      38.0  T
  10    -11.3276080 -0.251911E-08  0.223E-04    0.85     200.8  T
  11    -11.3276080 -0.591562E-10  0.246E-05    0.85    1819.2  T
     SCC iter.                  ...        0 min,  0.001 sec
     gradient                   ...        0 min,  0.002 sec
 * total energy  :   -11.1161950 Eh     change       -0.4221020E-02 Eh
   gradient norm :     0.0681092 Eh/α   predicted    -0.4878928E-02 (  15.59%)
   displ. norm   :     0.2001051 α      lambda       -0.1006506E-01
   maximum displ.:     0.1118073 α      in ANC's #3, #4, #6, ...

........................................................................
.............................. CYCLE   33 ..............................
........................................................................
   1    -11.3448252 -0.113448E+02  0.928E-01    1.18       0.0  T
   2    -11.3445166  0.308548E-03  0.590E-01    1.23       1.0  T
   3    -11.3426885  0.182809E-02  0.619E-01    1.14       1.0  T
   4    -11.3451311 -0.244261E-02  0.912E-02    1.18       1.0  T
   5    -11.3451824 -0.513205E-04  0.370E-02    1.19       1.2  T
   6    -11.3451877 -0.520377E-05  0.172E-02    1.19       2.6  T
   7    -11.3451875  0.119922E-06  0.978E-03    1.19       4.6  T
   8    -11.3451880 -0.476603E-06  0.241E-03    1.19      18.6  T
   9    -11.3451880 -0.877512E-08  0.123E-03    1.19      36.2  T
  10    -11.3451880 -0.294781E-08  0.175E-04    1.19     255.2  T
  11    -11.3451880 -0.462190E-10  0.172E-05    1.19    2595.7  T
     SCC iter.                  ...        0 min,  0.001 sec
     gradient                   ...        0 min,  0.001 sec
 * total energy  :   -11.1233755 Eh     change       -0.7180509E-02 Eh
   gradient norm :     0.0410260 Eh/α   predicted    -0.5234044E-02 ( -27.11%)
   displ. norm   :     0.4975836 α      lambda       -0.1315861E-01
   maximum displ.:     0.3989098 α      in ANC's #3, #4, #6, ...

........................................................................
.............................. CYCLE   34 ..............................
........................................................................
   1    -11.3468407 -0.113468E+02  0.157E+00    1.61       0.0  T
   2    -11.3466537  0.187039E-03  0.966E-01    1.66       1.0  T
   3    -11.3412101  0.544354E-02  0.917E-01    1.50       1.0  T
   4    -11.3471458 -0.593567E-02  0.109E-01    1.62       1.0  T
   5    -11.3471758 -0.300336E-04  0.674E-02    1.63       1.0  T
   6    -11.3471853 -0.943166E-05  0.339E-02    1.62       1.3  T
   7    -11.3471896 -0.432975E-05  0.126E-02    1.63       3.6  T
   8    -11.3471904 -0.836971E-06  0.266E-03    1.63      16.8  T
   9    -11.3471904 -0.444488E-08  0.892E-04    1.63      50.1  T
  10    -11.3471904 -0.721810E-09  0.223E-04    1.63     200.8  T
     SCC iter.                  ...        0 min,  0.001 sec
     gradient                   ...        0 min,  0.001 sec
 * total energy  :   -11.1327618 Eh     change       -0.9386284E-02 Eh
   gradient norm :     0.0686008 Eh/α   predicted    -0.8208272E-02 ( -12.55%)
   displ. norm   :     0.5058215 α      lambda       -0.1318948E-01
   maximum displ.:     0.4106277 α      in ANC's #3, #4, #8, ...

........................................................................
.............................. CYCLE   35 ..............................
........................................................................
   1    -11.3215680 -0.113216E+02  0.193E+00    1.80       0.0  T
   2    -11.3196121  0.195587E-02  0.122E+00    2.04       1.0  T
   3    -11.3146040  0.500811E-02  0.133E+00    1.67       1.0  T
   4    -11.3232985 -0.869453E-02  0.233E-01    1.88       1.0  T
   5    -11.3234118 -0.113263E-03  0.204E-01    1.89       1.0  T
   6    -11.3235059 -0.941560E-04  0.122E-01    1.90       1.0  T
   7    -11.3235247 -0.187334E-04  0.316E-02    1.91       1.4  T
   8    -11.3235290 -0.434636E-05  0.136E-02    1.91       3.3  T
   9    -11.3235298 -0.736219E-06  0.556E-03    1.91       8.0  T
  10    -11.3235298 -0.393933E-07  0.621E-04    1.91      72.0  T
  11    -11.3235298 -0.809635E-09  0.265E-04    1.91     168.9  T
     SCC iter.                  ...        0 min,  0.001 sec
     gradient                   ...        0 min,  0.001 sec
 * total energy  :   -11.1365404 Eh     change       -0.3778669E-02 Eh
   gradient norm :     0.1180854 Eh/α   predicted    -0.8282045E-02 ( 119.18%)
   displ. norm   :     0.1439727 α      lambda       -0.9449006E-02
   maximum displ.:     0.0866974 α      in ANC's #6, #4, #2, ...

........................................................................
.............................. CYCLE   36 ..............................
........................................................................
   1    -11.3516631 -0.113517E+02  0.606E-01    1.83       0.0  T
   2    -11.3514452  0.217909E-03  0.417E-01    1.73       1.0  T
   3    -11.3511561  0.289104E-03  0.411E-01    1.85       1.0  T
   4    -11.3518619 -0.705867E-03  0.992E-02    1.79       1.0  T
   5    -11.3519188 -0.569210E-04  0.397E-02    1.79       1.1  T
   6    -11.3519274 -0.858183E-05  0.177E-02    1.79       2.5  T
   7    -11.3519279 -0.484639E-06  0.367E-03    1.79      12.2  T
   8    -11.3519280 -0.442908E-07  0.179E-03    1.79      25.0  T
   9    -11.3519280 -0.346872E-08  0.991E-04    1.79      45.1  T
  10    -11.3519280 -0.299553E-08  0.162E-04    1.79     276.1  T
     SCC iter.                  ...        0 min,  0.001 sec
     gradient                   ...        0 min,  0.001 sec
 * total energy  :   -11.1422410 Eh     change       -0.5700549E-02 Eh
   gradient norm :     0.0526750 Eh/α   predicted    -0.4822432E-02 ( -15.40%)
   displ. norm   :     0.1380863 α      lambda       -0.4856468E-02
   maximum displ.:     0.0918704 α      in ANC's #3, #8, #4, ...

........................................................................
.............................. CYCLE   37 ..............................
........................................................................
   1    -11.3754324 -0.113754E+02  0.467E-01    1.70       0.0  T
   2    -11.3753695  0.628292E-04  0.313E-01    1.66       1.0  T
   3    -11.3752063  0.163210E-03  0.274E-01    1.72       1.0  T
   4    -11.3755368 -0.330476E-03  0.702E-02    1.67       1.0  T
   5    -11.3755614 -0.245643E-04  0.245E-02    1.68       1.8  T
   6    -11.3755629 -0.152930E-05  0.154E-02    1.68       2.9  T
   7    -11.3755633 -0.434205E-06  0.892E-03    1.68       5.0  T
   8    -11.3755637 -0.379707E-06  0.111E-03    1.68      40.3  T
   9    -11.3755637 -0.880894E-09  0.440E-04    1.68     101.8  T
  10    -11.3755637 -0.466565E-09  0.983E-05    1.68     454.9  T
     SCC iter.                  ...        0 min,  0.001 sec
     gradient                   ...        0 min,  0.001 sec
 * total energy  :   -11.1455152 Eh     change       -0.3274278E-02 Eh
   gradient norm :     0.0270256 Eh/α   predicted    -0.2474535E-02 ( -24.43%)
   displ. norm   :     0.4383558 α      lambda       -0.5503236E-02
   maximum displ.:     0.3760323 α      in ANC's #3, #8, #6, ...

........................................................................
.............................. CYCLE   38 ..............................
........................................................................
   1    -11.3609252 -0.113609E+02  0.129E+00    1.68       0.0  T
   2    -11.3599658  0.959333E-03  0.807E-01    1.68       1.0  T
   3    -11.3545039  0.546198E-02  0.109E+00    1.66       1.0  T
   4    -11.3615082 -0.700433E-02  0.121E-01    1.69       1.0  T
   5    -11.3615400 -0.317890E-04  0.665E-02    1.67       1.0  T
   6    -11.3615468 -0.677928E-05  0.423E-02    1.69       1.1  T
   7    -11.3615468 -0.771002E-07  0.245E-02    1.68       1.8  T
   8    -11.3615506 -0.374239E-05  0.318E-03    1.68      14.1  T
   9    -11.3615506 -0.217464E-07  0.147E-03    1.68      30.3  T
  10    -11.3615506 -0.249775E-08  0.380E-04    1.68     117.6  T
  11    -11.3615506 -0.209718E-09  0.787E-05    1.68     568.0  T
     SCC iter.                  ...        0 min,  0.001 sec
     gradient                   ...        0 min,  0.001 sec
 * total energy  :   -11.1477568 Eh     change       -0.2241508E-02 Eh
   gradient norm :     0.0724456 Eh/α   predicted    -0.3280363E-02 (  46.35%)
   displ. norm   :     0.0672344 α      lambda       -0.3564185E-02
   maximum displ.:     0.0460011 α      in ANC's #8, #6, #5, ...

........................................................................
.............................. CYCLE   39 ..............................
........................................................................
   1    -11.3772073 -0.113772E+02  0.339E-01    1.68       0.0  T
   2    -11.3769405  0.266862E-03  0.291E-01    1.67       1.0  T
   3    -11.3772282 -0.287777E-03  0.213E-01    1.68       1.0  T
   4    -11.3773692 -0.141003E-03  0.468E-02    1.67       1.0  T
   5    -11.3773767 -0.741269E-05  0.222E-02    1.67       2.0  T
   6    -11.3773772 -0.537668E-06  0.140E-02    1.67       3.2  T
   7    -11.3773776 -0.410774E-06  0.376E-03    1.67      11.9  T
   8    -11.3773777 -0.840512E-07  0.967E-04    1.67      46.2  T
   9    -11.3773777 -0.202451E-10  0.368E-04    1.67     121.6  T
     SCC iter.                  ...        0 min,  0.001 sec
     gradient                   ...        0 min,  0.001 sec
 * total energy  :   -11.1498231 Eh     change       -0.2066361E-02 Eh
   gradient norm :     0.0325435 Eh/α   predicted    -0.1790148E-02 ( -13.37%)
   displ. norm   :     0.1504858 α      lambda       -0.1078743E-02
   maximum displ.:     0.1131770 α      in ANC's #3, #8, #4, ...

........................................................................
.............................. CYCLE   40 ..............................
........................................................................
   1    -11.3781755 -0.113782E+02  0.422E-01    1.68       0.0  T
   2    -11.3781691  0.646867E-05  0.253E-01    1.68       1.0  T
   3    -11.3777741  0.394951E-03  0.246E-01    1.68       1.0  T
   4    -11.3781934 -0.419294E-03  0.245E-02    1.68       1.8  T
   5    -11.3781927  0.657434E-06  0.198E-02    1.67       2.3  T
   6    -11.3781941 -0.136769E-05  0.226E-03    1.68      19.8  T
   7    -11.3781941 -0.838875E-08  0.172E-03    1.68      26.1  T
   8    -11.3781941 -0.126194E-07  0.647E-04    1.68      69.1  T
   9    -11.3781941 -0.329459E-09  0.134E-04    1.68     334.4  T
     SCC iter.                  ...        0 min,  0.001 sec
     gradient                   ...        0 min,  0.001 sec
 * total energy  :   -11.1505531 Eh     change       -0.7299726E-03 Eh
   gradient norm :     0.0214996 Eh/α   predicted    -0.5515856E-03 ( -24.44%)
   displ. norm   :     0.1204484 α      lambda       -0.4583942E-03
   maximum displ.:     0.0961624 α      in ANC's #3, #8, #5, ...

........................................................................
.............................. CYCLE   41 ..............................
........................................................................
   1    -11.3778539 -0.113779E+02  0.357E-01    1.67       0.0  T
   2    -11.3778387  0.151030E-04  0.213E-01    1.67       1.0  T
   3    -11.3774482  0.390586E-03  0.254E-01    1.67       1.0  T
   4    -11.3778740 -0.425869E-03  0.206E-02    1.67       2.2  T
   5    -11.3778733  0.750766E-06  0.169E-02    1.67       2.7  T
   6    -11.3778745 -0.120953E-05  0.368E-03    1.67      12.2  T
   7    -11.3778746 -0.807610E-07  0.674E-04    1.67      66.4  T
   8    -11.3778746  0.201670E-10  0.414E-04    1.67     108.1  T
     SCC iter.                  ...        0 min,  0.001 sec
     gradient                   ...        0 min,  0.001 sec
 * total energy  :   -11.1508623 Eh     change       -0.3092245E-03 Eh
   gradient norm :     0.0228391 Eh/α   predicted    -0.2325207E-03 ( -24.81%)
   displ. norm   :     0.0742691 α      lambda       -0.4028274E-03
   maximum displ.:     0.0530286 α      in ANC's #3, #8, #5, ...

........................................................................
.............................. CYCLE   42 ..............................
........................................................................
   1    -11.3842192 -0.113842E+02  0.240E-01    1.69       0.0  T
   2    -11.3842214 -0.217771E-05  0.141E-01    1.68       1.0  T
   3    -11.3841882  0.331655E-04  0.755E-02    1.69       1.0  T
   4    -11.3842240 -0.357562E-04  0.165E-02    1.68       2.7  T
   5    -11.3842243 -0.323978E-06  0.122E-02    1.68       3.7  T
   6    -11.3842248 -0.452443E-06  0.378E-03    1.68      11.8  T
   7    -11.3842248 -0.624857E-07  0.178E-03    1.68      25.2  T
   8    -11.3842249 -0.177519E-07  0.471E-04    1.68      95.0  T
   9    -11.3842249 -0.225683E-09  0.103E-04    1.68     433.4  T
     SCC iter.                  ...        0 min,  0.001 sec
     gradient                   ...        0 min,  0.001 sec
 * total energy  :   -11.1510834 Eh     change       -0.2210500E-03 Eh
   gradient norm :     0.0104851 Eh/α   predicted    -0.2025234E-03 (  -8.38%)
   displ. norm   :     0.0899223 α      lambda       -0.2987897E-03
   maximum displ.:     0.0699578 α      in ANC's #3, #8, #5, ...
 * RMSD in coord.:     1.2058464 α      energy gain  -0.5671083E-01 Eh

generating ANC from model Hessian ...
Using Lindh-Hessian (1995)
 Shifting diagonal of input Hessian by    9.5040481051604786E-003
 Lowest  eigenvalues of input Hessian
   -0.000000   -0.000000   -0.000000    0.000000    0.000000    0.000000
    0.010000    0.010308    0.143558    0.335228    0.607147    1.223928
    1.265997    1.856955    2.757326
 Highest eigenvalues
    0.335228    0.607147    1.223928    1.265997    1.856955    2.757326


........................................................................
.............................. CYCLE   43 ..............................
........................................................................
   1    -11.3822775 -0.113823E+02  0.313E-01    1.68       0.0  T
   2    -11.3822815 -0.400069E-05  0.180E-01    1.70       1.0  T
   3    -11.3821905  0.910596E-04  0.133E-01    1.67       1.0  T
   4    -11.3822888 -0.983485E-04  0.206E-02    1.69       2.2  T
   5    -11.3822895 -0.642722E-06  0.158E-02    1.69       2.8  T
   6    -11.3822905 -0.101667E-05  0.553E-03    1.69       8.1  T
   7    -11.3822905 -0.520394E-07  0.209E-03    1.69      21.4  T
   8    -11.3822905 -0.211003E-07  0.571E-04    1.69      78.4  T
   9    -11.3822905 -0.261904E-09  0.137E-04    1.69     326.7  T
     SCC iter.                  ...        0 min,  0.001 sec
     gradient                   ...        0 min,  0.001 sec
 * total energy  :   -11.1512352 Eh     change       -0.1518539E-03 Eh
   gradient norm :     0.0156910 Eh/α   predicted     0.0000000E+00 (-100.00%)
   displ. norm   :     0.0409471 α      lambda       -0.1629035E-03
   maximum displ.:     0.0283358 α      in ANC's #1, #2, #5, ...

........................................................................
.............................. CYCLE   44 ..............................
........................................................................
   1    -11.3836038 -0.113836E+02  0.134E-01    1.72       0.0  T
   2    -11.3836043 -0.448439E-06  0.784E-02    1.72       1.0  T
   3    -11.3835759  0.283858E-04  0.646E-02    1.71       1.0  T
   4    -11.3836061 -0.301764E-04  0.131E-02    1.72       3.4  T
   5    -11.3836068 -0.708850E-06  0.604E-03    1.72       7.4  T
   6    -11.3836069 -0.144865E-06  0.283E-03    1.72      15.8  T
   7    -11.3836069 -0.154273E-07  0.775E-04    1.72      57.7  T
   8    -11.3836069 -0.276379E-08  0.232E-04    1.72     192.5  T
     SCC iter.                  ...        0 min,  0.001 sec
     gradient                   ...        0 min,  0.001 sec
 * total energy  :   -11.1512443 Eh     change       -0.9084772E-05 Eh
   gradient norm :     0.0067057 Eh/α   predicted    -0.8158719E-04 ( 798.07%)
   displ. norm   :     0.1181657 α      lambda       -0.6022755E-03
   maximum displ.:     0.0996913 α      in ANC's #2, #1, #5, ...

........................................................................
.............................. CYCLE   45 ..............................
........................................................................
   1    -11.3874691 -0.113875E+02  0.374E-01    1.82       0.0  T
   2    -11.3874766 -0.748888E-05  0.217E-01    1.82       1.0  T
   3    -11.3872717  0.204865E-03  0.177E-01    1.79       1.0  T
   4    -11.3874908 -0.219029E-03  0.377E-02    1.82       1.2  T
   5    -11.3874967 -0.596360E-05  0.196E-02    1.82       2.3  T
   6    -11.3874985 -0.180452E-05  0.788E-03    1.82       5.7  T
   7    -11.3874986 -0.861745E-07  0.204E-03    1.82      21.9  T
   8    -11.3874987 -0.185755E-07  0.565E-04    1.82      79.2  T
   9    -11.3874987 -0.253079E-09  0.158E-04    1.82     282.7  T
     SCC iter.                  ...        0 min,  0.001 sec
     gradient                   ...        0 min,  0.001 sec
 * total energy  :   -11.1505745 Eh     change        0.6697994E-03 Eh
   gradient norm :     0.0517505 Eh/α   predicted    -0.3053450E-03 (-145.59%)
   displ. norm   :     0.0709205 α      lambda       -0.1530836E-02
   maximum displ.:     0.0455572 α      in ANC's #2, #1, #5, ...

........................................................................
.............................. CYCLE   46 ..............................
........................................................................
   1    -11.3830093 -0.113830E+02  0.228E-01    1.75       0.0  T
   2    -11.3830160 -0.673204E-05  0.135E-01    1.74       1.0  T
   3    -11.3829483  0.677435E-04  0.106E-01    1.76       1.0  T
   4    -11.3830189 -0.706646E-04  0.294E-02    1.74       1.5  T
   5    -11.3830232 -0.425407E-05  0.144E-02    1.74       3.1  T
   6    -11.3830242 -0.104823E-05  0.549E-03    1.75       8.1  T
   7    -11.3830243 -0.372253E-07  0.191E-03    1.75      23.4  T
   8    -11.3830243 -0.174479E-07  0.472E-04    1.75      94.8  T
   9    -11.3830243 -0.225780E-09  0.695E-05    1.75     643.6  T
     SCC iter.                  ...        0 min,  0.001 sec
     gradient                   ...        0 min,  0.001 sec
 * total energy  :   -11.1513619 Eh     change       -0.7874415E-03 Eh
   gradient norm :     0.0043432 Eh/α   predicted    -0.7692691E-03 (  -2.31%)
   displ. norm   :     0.0577547 α      lambda       -0.5842307E-04
   maximum displ.:     0.0425042 α      in ANC's #2, #1, #5, ...

........................................................................
.............................. CYCLE   47 ..............................
........................................................................
   1    -11.3830353 -0.113830E+02  0.214E-01    1.75       0.0  T
   2    -11.3830373 -0.203951E-05  0.120E-01    1.75       1.0  T
   3    -11.3830184  0.189344E-04  0.539E-02    1.75       1.0  T
   4    -11.3830391 -0.207147E-04  0.790E-03    1.75       5.7  T
   5    -11.3830391  0.291667E-07  0.435E-03    1.75      10.3  T
   6    -11.3830392 -0.817606E-07  0.117E-03    1.75      38.2  T
   7    -11.3830392 -0.294242E-08  0.540E-04    1.75      82.8  T
   8    -11.3830392  0.578950E-10  0.352E-04    1.75     127.2  T
     SCC iter.                  ...        0 min,  0.001 sec
     gradient                   ...        0 min,  0.001 sec
 * total energy  :   -11.1513744 Eh     change       -0.1244006E-04 Eh
   gradient norm :     0.0026464 Eh/α   predicted    -0.2930817E-04 ( 135.60%)
   displ. norm   :     0.0289036 α      lambda       -0.3141464E-04
   maximum displ.:     0.0205804 α      in ANC's #1, #2, #5, ...

........................................................................
.............................. CYCLE   48 ..............................
........................................................................
   1    -11.3833300 -0.113833E+02  0.103E-01    1.75       0.0  T
   2    -11.3833303 -0.330747E-06  0.585E-02    1.75       1.0  T
   3    -11.3833213  0.904172E-05  0.365E-02    1.75       1.2  T
   4    -11.3833310 -0.965795E-05  0.455E-03    1.75       9.8  T
   5    -11.3833309  0.350163E-07  0.383E-03    1.75      11.7  T
   6    -11.3833310 -0.643478E-07  0.765E-04    1.75      58.5  T
   7    -11.3833310 -0.204138E-08  0.279E-04    1.75     160.6  T
     SCC iter.                  ...        0 min,  0.001 sec
     gradient                   ...        0 min,  0.001 sec
 * total energy  :   -11.1513955 Eh     change       -0.2115527E-04 Eh
   gradient norm :     0.0027414 Eh/α   predicted    -0.1572065E-04 ( -25.69%)
   displ. norm   :     0.0166591 α      lambda       -0.1739172E-04
   maximum displ.:     0.0105131 α      in ANC's #2, #1, #5, ...

........................................................................
.............................. CYCLE   49 ..............................
........................................................................
   1    -11.3832011 -0.113832E+02  0.574E-02    1.75       0.0  T
   2    -11.3832009  0.269264E-06  0.334E-02    1.75       1.3  T
   3    -11.3831918  0.909216E-05  0.378E-02    1.75       1.2  T
   4    -11.3832016 -0.981391E-05  0.303E-03    1.75      14.7  T
   5    -11.3832016  0.650656E-08  0.258E-03    1.75      17.3  T
   6    -11.3832016 -0.276963E-07  0.276E-04    1.75     162.2  T
   7    -11.3832016 -0.187388E-10  0.800E-05    1.75     558.9  T
     SCC iter.                  ...        0 min,  0.001 sec
     gradient                   ...        0 min,  0.001 sec
 * total energy  :   -11.1514073 Eh     change       -0.1173840E-04 Eh
   gradient norm :     0.0017707 Eh/α   predicted    -0.8699080E-05 ( -25.89%)
   displ. norm   :     0.0103989 α      lambda       -0.7034591E-05
   maximum displ.:     0.0071203 α      in ANC's #5, #6, #3, ...

........................................................................
.............................. CYCLE   50 ..............................
........................................................................
   1    -11.3833340 -0.113833E+02  0.359E-02    1.75       0.0  T
   2    -11.3833336  0.407101E-06  0.221E-02    1.75       2.0  T
   3    -11.3833296  0.401118E-05  0.283E-02    1.75       1.6  T
   4    -11.3833343 -0.471786E-05  0.204E-03    1.75      22.0  T
   5    -11.3833343  0.618269E-08  0.159E-03    1.75      28.0  T
   6    -11.3833343 -0.110371E-07  0.260E-04    1.75     172.2  T
   7    -11.3833343 -0.250003E-09  0.121E-04    1.75     369.9  T
     SCC iter.                  ...        0 min,  0.001 sec
     gradient                   ...        0 min,  0.001 sec
 * total energy  :   -11.1514118 Eh     change       -0.4569094E-05 Eh
   gradient norm :     0.0007605 Eh/α   predicted    -0.3517494E-05 ( -23.02%)
   displ. norm   :     0.0056624 α      lambda       -0.1016376E-05
   maximum displ.:     0.0037798 α      in ANC's #1, #2, #5, ...

[...]

 Bond Distances (Angstroems)
 ---------------------------
C1-C2=1.3953         C1-C4=1.3465         C2-C1=1.3953         C2-C4=1.4809         C3-C4=1.3682         C3-N5=1.1511         
C4-C1=1.3465         C4-C2=1.4809         C4-C3=1.3682         N5-C3=1.1511         
 C  C  Rav=1.3977 sigma=0.0510  Rmin=1.3465  Rmax=1.4809     4
 N  C  Rav=1.1511 sigma=0.0000  Rmin=1.1511  Rmax=1.1511     1

 selected bond angles (degree)
 --------------------
C4-C1-C2= 65.36                C4-C2-C1= 55.73                N5-C3-C4=179.69                C2-C4-C1= 58.91                
C3-C4-C1=154.40                C3-C4-C2=146.69                

 selected dihedral angles (degree)
 ---------------------------------
C3-C4-C1-C2=180.19            C3-C4-C2-C1=179.85            C1-C4-C3-N5=152.10            C2-C4-C3-N5=332.39            
           -------------------------------------------------
          |                Final Singlepoint                |
           -------------------------------------------------

          ...................................................
          :                      SETUP                      :
          :.................................................:
          :  # basis functions                  20          :
          :  # atomic orbitals                  20          :
          :  # shells                           10          :
          :  # electrons                        21          :
          :  max. iterations                   250          :
          :  Hamiltonian                  GFN2-xTB          :
          :  restarted?                      false          :
          :  GBSA solvation                  false          :
          :  PC potential                    false          :
          :  electronic temp.          300.0000000     K    :
          :  accuracy                    1.0000000          :
          :  -> integral cutoff          0.2500000E+02      :
          :  -> integral neglect         0.1000000E-07      :
          :  -> SCF convergence          0.1000000E-05 Eh   :
          :  -> wf. convergence          0.1000000E-03 e    :
          :  Broyden damping             0.4000000          :
          ...................................................

 iter      E             dE          RMSdq      gap      omega  full diag
   1    -11.3833343 -0.113833E+02  0.343E-05    1.75       0.0  T
   2    -11.3833343  0.234479E-12  0.211E-05    1.75    2118.6  T
   3    -11.3833343 -0.214939E-12  0.198E-05    1.75    2263.9  T

   *** convergence criteria satisfied after 3 iterations ***

         #    Occupation            Energy/Eh            Energy/eV
      -------------------------------------------------------------
         1        2.0000           -0.7291915             -19.8423
       ...           ...                  ...                  ...
         5        2.0000           -0.5623051             -15.3011
         6        2.0000           -0.5379694             -14.6389
         7        2.0000           -0.5258419             -14.3089
         8        2.0000           -0.5133082             -13.9678
         9        2.0000           -0.4708042             -12.8112
        10        2.0000           -0.4424867             -12.0407
        11        1.0000           -0.4205594             -11.4440 (HOMO)
        12                         -0.3563768              -9.6975 (LUMO)
        13                         -0.2965388              -8.0692
        14                         -0.2581439              -7.0245
        15                         -0.1784547              -4.8560
        16                         -0.0263330              -0.7166
       ...                                ...                  ...
        20                          1.1964802              32.5579
      -------------------------------------------------------------
                  HL-Gap            0.0641826 Eh            1.7465 eV
             Fermi-level           -0.4099955 Eh          -11.1565 eV

 SCC (total)                   0 d,  0 h,  0 min,  0.003 sec
 SCC setup                      ...        0 min,  0.000 sec (  1.690%)
 Dispersion                     ...        0 min,  0.000 sec (  0.274%)
 integral evaluation            ...        0 min,  0.001 sec ( 40.980%)
 zeroth order Hamiltonian       ...        0 min,  0.000 sec (  0.507%)
 iterations                     ...        0 min,  0.000 sec ( 14.234%)
 molecular gradient             ...        0 min,  0.001 sec ( 40.602%)
 printout                       ...        0 min,  0.000 sec (  1.489%)

         :::::::::::::::::::::::::::::::::::::::::::::::::::::
         ::                     SUMMARY                     ::
         :::::::::::::::::::::::::::::::::::::::::::::::::::::
         :: total energy             -11.151411848118 Eh    ::
         :: gradient norm              0.000760737354 Eh/a0 ::
         :: HOMO-LUMO gap              1.746497852044 eV    ::
         ::.................................................::
         :: SCC energy               -11.383334328900 Eh    ::
         :: -> isotropic ES           -0.000282078028 Eh    ::
         :: -> anisotropic ES          0.001737980520 Eh    ::
         :: -> anisotropic XC          0.022185796410 Eh    ::
         :: -> dispersion             -0.002690744835 Eh    ::
         :: repulsion energy           0.231922553930 Eh    ::
         :: add. restraining           0.000000000000 Eh    ::
         :::::::::::::::::::::::::::::::::::::::::::::::::::::

           ------------------------------------------------- 
          |                Numerical Hessian                |
           ------------------------------------------------- 
step length          :   0.00500
SCC accuracy         :   0.30000
Hessian scale factor :   1.00000
frozen atoms in %    :   0.00000    0
RMS gradient         :   0.00076
estimated CPU  time      0.00 min
estimated wall time      0.00 min

writing file <hessian>.

 projected vibrational frequencies (cm-1)
eigval :       -0.00    -0.00    -0.00     0.00     0.00     0.00
eigval :      189.66   201.31   499.65   546.33   707.17   940.44
eigval :     1202.49  1793.01  2300.85
           -------------------------------------------------
          |                Property Printout                |
           -------------------------------------------------

    * Orbital Energies and Occupations

         #    Occupation            Energy/Eh            Energy/eV
      -------------------------------------------------------------
         1        2.0000           -0.7291915             -19.8423
         2        2.0000           -0.6931778             -18.8623
         3        2.0000           -0.6564511             -17.8629
         4        2.0000           -0.5969960             -16.2451
         5        2.0000           -0.5623053             -15.3011
         6        2.0000           -0.5379694             -14.6389
         7        2.0000           -0.5258420             -14.3089
         8        2.0000           -0.5133082             -13.9678
         9        2.0000           -0.4708043             -12.8112
        10        2.0000           -0.4424866             -12.0407
        11        1.0000           -0.4205593             -11.4440 (HOMO)
        12                         -0.3563768              -9.6975 (LUMO)
        13                         -0.2965387              -8.0692
        14                         -0.2581440              -7.0245
        15                         -0.1784549              -4.8560
        16                         -0.0263330              -0.7166
        17                          0.0597047               1.6246
        18                          0.3141631               8.5488
        19                          0.5766286              15.6909
        20                          1.1964800              32.5579
      -------------------------------------------------------------
                  HL-Gap            0.0641825 Eh            1.7465 eV
             Fermi-level           -0.4099955 Eh          -11.1565 eV

     #   Z        covCN         q      C6AA      α(0)
     1   6 C      1.961     0.008    30.853     8.970
     2   6 C      1.958    -0.089    33.511     9.348
     3   6 C      1.891     0.128    27.973     8.542
     4   6 C      2.940     0.113    25.504     8.283
     5   7 N      0.911    -0.161    24.485     7.156

 Mol. C6AA /au·bohr⁶  :        707.918279
 Mol. C8AA /au·bohr⁸  :      19524.947399
 Mol. α(0) /au        :         42.299554


Wiberg/Mayer (AO) data.
largest (>0.10) Wiberg bond orders for each atom
          total WBO             WBO to atom ...
     1  C   2.922        C    4 1.483    C    2 1.309    N    5 0.103
     2  C   2.559        C    1 1.309    C    4 1.110    N    5 0.109
     3  C   3.960        N    5 2.710    C    4 1.191
     4  C   3.840        C    1 1.483    C    3 1.191    C    2 1.110
     5  N   2.977        C    3 2.710    C    2 0.109    C    1 0.103

MOs/occ written to file <molden.input>


molecular dipole:
                 x           y           z       tot (Debye)
 q only:       -0.263      -0.099      -0.060
   full:       -0.342      -0.367      -0.088       1.294
Molecule has the following symmetry elements: (sigma) 
It seems to be the Cs point group
molecular quadrupole (traceless):
                xx          xy          yy          xz          yz          zz
 q only:       -2.352       1.340       0.935      -0.775       0.257       1.417
  q+dip:       -4.107       3.773       1.249      -1.366       0.721       2.858
   full:       -6.678       4.293       1.043      -2.544       0.677       5.635

           -------------------------------------------------
          |                Geometry Summary                 |
           -------------------------------------------------

      molecular mass/u    :       62.0496468
   center of mass at/Å    :        0.0689154      -0.0145031       0.0140612
  moments of inertia/u·Å² :        0.1172427E+02   0.1396508E+03   0.1513749E+03
rotational constants/cm⁻¹ :        0.1437841E+01   0.1207128E+00   0.1113635E+00

 * 3 selected distances

     #   Z        #   Z                                     value/Å
     1   6 C      4   6 C                                 1.3465259
     3   6 C      4   6 C                                 1.3682105 (max)
     3   6 C      5   7 N                                 1.1510579 (min)

 * 2 distinct bonds (by element types)

   Z      Z             #   av. dist./Å        max./Å        min./Å
   6 C    6 C           2     1.3573682     1.3682105     1.3465259
   6 C    7 N           1     1.1510579     1.1510579     1.1510579

           -------------------------------------------------
          |               Frequency Printout                |
           -------------------------------------------------
 projected vibrational frequencies (cm-1)
eigval :       -0.00    -0.00    -0.00     0.00     0.00     0.00
eigval :      189.66   201.31   499.65   546.33   707.17   940.44
eigval :     1202.49  1793.01  2300.85
 reduced masses (amu)
   1: 13.38   2: 12.91   3: 12.02   4: 12.02   5: 12.06   6: 12.83   7: 12.53   8: 12.51
   9: 12.18  10: 12.12  11: 12.50  12: 12.17  13: 12.08  14: 12.07  15: 12.77
 IR intensities (amu)
   1:  0.07   2:  0.05   3:  0.14   4:  0.19   5:  0.02   6:  0.07   7:  0.44   8:  0.54
   9:  0.24  10:  0.03  11:  0.05  12:  0.33  13:  0.69  14:  0.30  15:  0.78
 Raman intensities (amu)
   1:  0.00   2:  0.00   3:  0.00   4:  0.00   5:  0.00   6:  0.00   7:  0.00   8:  0.00
   9:  0.00  10:  0.00  11:  0.00  12:  0.00  13:  0.00  14:  0.00  15:  0.00
 output can be read by thermo (or use thermo option).
 writing <g98.out> molden fake output.
 recommended (thermochemical) frequency scaling factor: 1.0
           -------------------------------------------------
          |             Thermodynamic Functions             |
           -------------------------------------------------

cs  symmetry found (for desy threshold:  0.10E+00) used in thermo

          ...................................................
          :                      SETUP                      :
          :.................................................:
          :  # frequencies                           9      :
          :  # imaginary freq.                       0      :
          :  linear?                             false      :
          :  only rotor calc.                    false      :
          :  symmetry                               cs      :
          :  rotational number                       1      :
          :  scaling factor                  1.0000000      :
          :  rotor cutoff                   50.0000000 cm⁻¹ :
          :  imag. cutoff                  -20.0000000 cm⁻¹ :
          :.................................................:

    mode    ω/cm⁻¹     T·S(HO)/kcal·mol⁻¹    T·S(FR)/kcal·mol⁻¹   T·S(vib)
   ------------------------------------------------------------------------
       1    189.66    -0.00000 ( 99.52%)     0.01155 (  0.48%)     0.00006
       2    201.31    -0.00000 ( 99.62%)     0.01214 (  0.38%)     0.00005
   ------------------------------------------------------------------------

   temp. (K)  partition function   enthalpy   heat capacity  entropy
                                   cal/mol     cal/K/mol   cal/K/mol   J/K/mol
 298.15  VIB   3.33                 1083.416      7.586      6.025
         ROT  0.380E+05              888.752      2.981     23.939
         INT  0.127E+06             1972.168     10.567     29.963
         TR   0.473E+27             1481.254      4.968     38.278
         TOT                        3453.4219    15.5355    68.2416   285.5227

   temp. (K)  partition function   enthalpy   heat capacity  entropy
                                   cal/mol     cal/K/mol   cal/K/mol   J/K/mol
 120.00  VIB   1.23                  125.049      2.898      1.458
         ROT  0.971E+04              357.707      2.981     21.226
         INT  0.119E+05              482.756      5.879     22.683
         TR   0.121E+27              596.178      4.968     33.759
         TOT                        1078.9343    10.8474    56.4422   236.1542

   temp. (K)  partition function   enthalpy   heat capacity  entropy
                                   cal/mol     cal/K/mol   cal/K/mol   J/K/mol
 100.00  VIB   1.13                   73.291      2.271      0.988
         ROT  0.739E+04              298.089      2.981     20.682
         INT  0.838E+04              371.380      5.252     21.670
         TR   0.919E+26              496.815      4.968     32.853
         TOT                         868.1952    10.2198    54.5235   228.1264

   temp. (K)  partition function   enthalpy   heat capacity  entropy
                                   cal/mol     cal/K/mol   cal/K/mol   J/K/mol
  80.00  VIB   1.06                   34.613      1.584      0.559
         ROT  0.529E+04              238.471      2.981     20.017
         INT  0.562E+04              273.085      4.565     20.576
         TR   0.657E+26              397.452      4.968     31.745
         TOT                         670.5366     9.5329    52.3214   218.9129

   temp. (K)  partition function   enthalpy   heat capacity  entropy
                                   cal/mol     cal/K/mol   cal/K/mol   J/K/mol
  60.00  VIB   1.02                   10.463      0.824      0.216
         ROT  0.343E+04              178.853      2.981     19.160
         INT  0.350E+04              189.316      3.805     19.375
         TR   0.427E+26              298.089      4.968     30.317
         TOT                         487.4050     8.7730    49.6922   207.9120

   temp. (K)  partition function   enthalpy   heat capacity  entropy
                                   cal/mol     cal/K/mol   cal/K/mol   J/K/mol
  40.00  VIB   1.00                    1.004      0.176      0.030
         ROT  0.187E+04              119.236      2.981     17.951
         INT  0.187E+04              120.240      3.157     17.981
         TR   0.232E+26              198.726      4.968     28.303
         TOT                         318.9660     8.1248    46.2845   193.6544

   temp. (K)  partition function   enthalpy   heat capacity  entropy
                                   cal/mol     cal/K/mol   cal/K/mol   J/K/mol
  20.00  VIB   1.00                    0.001      0.001     -0.005
         ROT   661.                   59.618      2.981     15.885
         INT   661.                   59.619      2.982     15.880
         TR   0.822E+25               99.363      4.968     24.861
         TOT                         158.9817     7.9497    40.7417   170.4634

   temp. (K)  partition function   enthalpy   heat capacity  entropy
                                   cal/mol     cal/K/mol   cal/K/mol   J/K/mol
  10.00  VIB   1.00                    0.000      0.000     -0.011
         ROT   234.                   29.809      2.981     13.819
         INT   234.                   29.809      2.981     13.808
         TR   0.290E+25               49.681      4.968     21.419
         TOT                          79.4904     7.9490    35.2275   147.3917

       T/K    H(0)-H(T)+PV         H(T)/Eh          T*S/Eh         G(T)/Eh
   ------------------------------------------------------------------------
    298.15    0.550338E-02    0.245965E-01    0.324238E-01   -0.782727E-02
    120.00    0.171939E-02    0.208125E-01    0.107936E-01    0.100189E-01
    100.00    0.138356E-02    0.204767E-01    0.868888E-02    0.117878E-01
     80.00    0.106857E-02    0.201617E-01    0.667036E-02    0.134913E-01
     60.00    0.776729E-03    0.198698E-01    0.475137E-02    0.151185E-01
     40.00    0.508305E-03    0.196014E-01    0.295036E-02    0.166511E-01
     20.00    0.253354E-03    0.193465E-01    0.129852E-02    0.180480E-01
     10.00    0.126676E-03    0.192198E-01    0.561385E-03    0.186584E-01 (used)
   ------------------------------------------------------------------------

         :::::::::::::::::::::::::::::::::::::::::::::::::::::
         ::                  THERMODYNAMIC                  ::
         :::::::::::::::::::::::::::::::::::::::::::::::::::::
         :: total free energy         -11.132753438894 Eh   ::
         ::.................................................::
         :: total energy              -11.151411848160 Eh   ::
         :: zero point energy           0.019093118456 Eh   ::
         :: G(RRHO) w/o ZPVE           -0.000434709189 Eh   ::
         :: G(RRHO) contrib.            0.018658409267 Eh   ::
         :::::::::::::::::::::::::::::::::::::::::::::::::::::

optimized geometry written to: xtbopt.xyz


           -------------------------------------------------
          | TOTAL ENERGY              -11.151411848160 Eh   |
          | TOTAL ENTHALPY            -11.132192053689 Eh   |
          | TOTAL FREE ENERGY         -11.132753438894 Eh   |
          | GRADIENT NORM               0.000760789755 Eh/α |
          | HOMO-LUMO GAP               1.746494185239 eV   |
           -------------------------------------------------

------------------------------------------------------------------------
 * finished run on 2020/05/12 at 11:44:14.416     
------------------------------------------------------------------------
 total:
 * wall-time:     0 d,  0 h,  0 min,  0.306 sec
 *  cpu-time:     0 d,  0 h,  0 min,  0.305 sec
 * ratio c/w:     0.997 speedup
 SCF:
 * wall-time:     0 d,  0 h,  0 min,  0.005 sec
 *  cpu-time:     0 d,  0 h,  0 min,  0.005 sec
 * ratio c/w:     0.999 speedup
 ANC optimizer:
 * wall-time:     0 d,  0 h,  0 min,  0.191 sec
 *  cpu-time:     0 d,  0 h,  0 min,  0.191 sec
 * ratio c/w:     0.998 speedup
 numerical hessian:
 * wall-time:     0 d,  0 h,  0 min,  0.093 sec
 *  cpu-time:     0 d,  0 h,  0 min,  0.093 sec
 * ratio c/w:     0.996 speedup

