3
 energy: -4.781500193747 gnorm: 0.000194240342 xtb: 6.2.2 (9d81278992624c895f80dd42a50cac0aa55982e2)
O         0.00025394577383   -0.00031812335087   -0.00000000033122
H        -1.32601684871882   -0.00401489801246    0.00000463569135
H         1.32576290293975    0.00433202136332   -0.00000463535839
