$hessian                                                                        
       -0.2166564732  -0.0007682718   0.0000009280   0.1081832512   0.0003118155
       -0.0000002311   0.1082831270   0.0003931703  -0.0000002320
       -0.0007682718   0.0272267009   0.0000000029   0.0004015640  -0.0135803464
       -0.0000000020   0.0003661132  -0.0136501099   0.0000000006
        0.0000009280   0.0000000029   0.0670211559  -0.0000004634  -0.0000000012
       -0.0334712837  -0.0000004641  -0.0000000015  -0.0335524634
        0.1081832512   0.0004015640  -0.0000004634   0.0246867932   0.0000844063
       -0.0000000896  -0.1327755204  -0.0004539264   0.0000003208
        0.0003118155  -0.0135803464  -0.0000000012   0.0000844063   0.0067715086
        0.0000000003  -0.0003959676   0.0068106512   0.0000000003
       -0.0000002311  -0.0000000020  -0.0334712837  -0.0000000896   0.0000000003
        0.0167096712   0.0000003204   0.0000000016   0.0167629202
        0.1082831270   0.0003661132  -0.0000004641  -0.1327755204  -0.0003959676
        0.0000003204   0.0245879644   0.0000610964  -0.0000000890
        0.0003931703  -0.0136501099  -0.0000000015  -0.0004539264   0.0068106512
        0.0000000016   0.0000610964   0.0068414006  -0.0000000010
       -0.0000002320   0.0000000006  -0.0335524634   0.0000003208   0.0000000003
        0.0167629202  -0.0000000890  -0.0000000010   0.0167908267
