3
 energy: -4.542309065730 gnorm: 0.644779202696 xtb: 6.2.2 (9d81278992624c895f80dd42a50cac0aa55982e2)
O        -0.00124400000000    0.40411900000000    0.00000000000000
H        -0.78241100000000   -0.20447100000000    0.00000000000000
H         0.78365500000000   -0.19964900000000    0.00000000000000
3
 energy: -4.723352387907 gnorm: 0.135458438922 xtb: 6.2.2 (9d81278992624c895f80dd42a50cac0aa55982e2)
O        -0.00150337501206    0.48863887224375    0.00000000000000
H        -0.98211256063212   -0.24734653768317    0.00000000000000
H         0.98361593564418   -0.24129333456058    0.00000000000000
3
 energy: -4.743075392735 gnorm: 0.072519321205 xtb: 6.2.2 (9d81278992624c895f80dd42a50cac0aa55982e2)
O        -0.00148084155059    0.48174880055944    0.00000000000000
H        -1.06437483738704   -0.24415526943939    0.00000000000000
H         1.06585567893762   -0.23759453112005    0.00000000000000
3
 energy: -4.760756985176 gnorm: 0.032396702392 xtb: 6.2.2 (9d81278992624c895f80dd42a50cac0aa55982e2)
O        -0.00133057951723    0.43429920726776    0.00000000000000
H        -1.21498583288263   -0.22089560560823    0.00000000000000
H         1.21631641239986   -0.21340460165953    0.00000000000000
3
 energy: -4.765389808438 gnorm: 0.038909274325 xtb: 6.2.2 (9d81278992624c895f80dd42a50cac0aa55982e2)
O        -0.00116244887073    0.38124856136854    0.00000000000000
H        -1.30785561247063   -0.19465784236307    0.00000000000000
H         1.30901806134136   -0.18659171900547    0.00000000000000
3
 energy: -4.767423410069 gnorm: 0.041112117585 xtb: 6.2.2 (9d81278992624c895f80dd42a50cac0aa55982e2)
O        -0.00102426520933    0.33814928529229    0.00000000000000
H        -1.34972123647551   -0.17323903129051    0.00000000000000
H         1.35074550168484   -0.16491125400178    0.00000000000000
3
 energy: -4.771048872551 gnorm: 0.039708601310 xtb: 6.2.2 (9d81278992624c895f80dd42a50cac0aa55982e2)
O        -0.00074915524220    0.25365778833071    0.00000000000000
H        -1.39382761192219   -0.13113447890472    0.00000000000000
H         1.39457676716439   -0.12252430942599    0.00000000000000
3
 energy: -4.775806494015 gnorm: 0.032097073088 xtb: 6.2.2 (9d81278992624c895f80dd42a50cac0aa55982e2)
O        -0.00040427565675    0.15056276965849    0.00000000000000
H        -1.40202790235043   -0.07962234084489    0.00000000000000
H         1.40243217800718   -0.07094142881360    0.00000000000000
3
 energy: -4.780804794707 gnorm: 0.012288056474 xtb: 6.2.2 (9d81278992624c895f80dd42a50cac0aa55982e2)
O        -0.00003790264395    0.04729507528991    0.00000000000000
H        -1.35446364720655   -0.02786024360293    0.00000000000000
H         1.35450154985051   -0.01943583168698    0.00000000000000
3
 energy: -4.781486309609 gnorm: 0.001850290755 xtb: 6.2.2 (9d81278992624c895f80dd42a50cac0aa55982e2)
O         0.00013826041116    0.00623259513375    0.00000000000000
H        -1.32188696684497   -0.00724768784262    0.00000000000000
H         1.32174870643381    0.00101409270887    0.00000000000000
3
 energy: -4.781497182369 gnorm: 0.000946676558 xtb: 6.2.2 (9d81278992624c895f80dd42a50cac0aa55982e2)
O         0.00021180538229   -0.00163083939774    0.00000000000000
H        -1.32825660526859   -0.00335456749921    0.00000000000000
H         1.32804479988630    0.00498440689695    0.00000000000000
3
 energy: -4.781500193715 gnorm: 0.000194092240 xtb: 6.2.2 (9d81278992624c895f80dd42a50cac0aa55982e2)
O         0.00025394743951   -0.00031812202120    0.00000000000000
H        -1.32601682768679   -0.00402184102039    0.00000000000000
H         1.32576288024727    0.00433896304160    0.00000000000000
