      -----------------------------------------------------------      
     |                   =====================                   |     
     |                           x T B                           |     
     |                   =====================                   |     
     |                         S. Grimme                         |     
     |          Mulliken Center for Theoretical Chemistry        |     
     |                    University of Bonn                     |     
      -----------------------------------------------------------      

   * xtb version 6.2.2 (9d81278992624c895f80dd42a50cac0aa55982e2) compiled by '@Darwin' on 04/03/2020

   xtb is free software: you can redistribute it and/or modify it under
   the terms of the GNU Lesser General Public License as published by
   the Free Software Foundation, either version 3 of the License, or
   (at your option) any later version.
   
   xtb is distributed in the hope that it will be useful,
   but WITHOUT ANY WARRANTY; without even the implied warranty of
   MERCHANTABILITY or FITNESS FOR A PARTICULAR PURPOSE.  See the
   GNU Lesser General Public License for more details.
   
   Cite this work as:
   * S. Grimme, C. Bannwarth, P. Shushkov, J. Chem. Theory Comput., 2017,
     13, 1989-2009. DOI: 10.1021/acs.jctc.7b00118
   * C. Bannwarth, S. Ehlert and S. Grimme., J. Chem. Theory Comput., 2019,
     15, 1652-1671. DOI: 10.1021/acs.jctc.8b01176
   * P. Pracht, E. Caldeweyher, S. Ehlert, S. Grimme, ChemRxiv, 2019, preprint.
     DOI: 10.26434/chemrxiv.8326202.v1
   
   for DFT-D4:
   * E. Caldeweyher, C. Bannwarth and S. Grimme, J. Chem. Phys., 2017,
     147, 034112. DOI: 10.1063/1.4993215
   * E. Caldeweyher, S. Ehlert, A. Hansen, H. Neugebauer, S. Spicher,
     C. Bannwarth and S. Grimme, J. Chem. Phys., 2019, 150, 154122.
     DOI: 10.1063/1.5090222
   
   for sTDA-xTB:
   * S. Grimme and C. Bannwarth, J. Chem. Phys., 2016, 145, 054103.
     DOI: 10.1063/1.4959605
   
   in the mass-spec context:
   * V. Asgeirsson, C. Bauer and S. Grimme, Chem. Sci., 2017, 8, 4879.
     DOI: 10.1039/c7sc00601b
   
   for metadynamics refer to:
   * S. Grimme, J. Chem. Theory Comput., 2019, 155, 2847-2862
     DOI: 10.1021/acs.jctc.9b00143
   
   with help from (in alphabetical order)
   C. Bannwarth, F. Bohle, G. Brandenburg, E. Caldeweyher, M. Checinski,
   S. Dohm, S. Ehlert, S. Ehrlich, F. März, H. Neugebauer, J. Pisarek,
   P. Pracht, P. Shushkov, and S. Spicher.
   
 * started run on 2020/05/12 at 11:44:27.518     

           -------------------------------------------------
          |                Calculation Setup                |
           -------------------------------------------------

          program call               : xtb --input H2O1_0_S_2.input H2O1_0_S_2.xyz --ohess --molden --namespace H2O1_0_S_2 output.out
          calculation namespace      : H2O1_0_S_2
          coordinate file            : H2O1_0_S_2.xyz
          number of atoms            :                     3
          number of electrons        :                     8
          charge                     :                     0
          spin                       :                   1.0
          first test random number   :      0.88118728828955

   ID    Z sym.   atoms
    1    8 O      1
    2    1 H      2, 3

           -------------------------------------------------
          |                 G F N 2 - x T B                 |
           -------------------------------------------------

        Reference                      10.1021/acs.jctc.8b01176
      * Hamiltonian:
        H0-scaling (s, p, d)           1.850000    2.230000    2.230000
        zeta-weighting                 0.500000
      * Dispersion:
        s8                             2.700000
        a1                             0.520000
        a2                             5.000000
        s9                             5.000000
      * Repulsion:
        kExp                           1.500000    1.000000
        rExp                           1.000000
      * Coulomb:
        alpha                          2.000000
        third order                    shell-resolved
        anisotropic                    true
        a3                             3.000000
        a5                             4.000000
        cn-shift                       1.200000
        cn-exp                         4.000000
        max-rad                        5.000000


          ...................................................
          :                      SETUP                      :
          :.................................................:
          :  # basis functions                   6          :
          :  # atomic orbitals                   6          :
          :  # shells                            4          :
          :  # electrons                         8          :
          :  max. iterations                   250          :
          :  Hamiltonian                  GFN2-xTB          :
          :  restarted?                      false          :
          :  GBSA solvation                  false          :
          :  PC potential                    false          :
          :  electronic temp.          300.0000000     K    :
          :  accuracy                    1.0000000          :
          :  -> integral cutoff          0.2500000E+02      :
          :  -> integral neglect         0.1000000E-07      :
          :  -> SCF convergence          0.1000000E-05 Eh   :
          :  -> wf. convergence          0.1000000E-03 e    :
          :  Broyden damping             0.4000000          :
          ...................................................

 iter      E             dE          RMSdq      gap      omega  full diag
   1     -4.5564252 -0.455643E+01  0.495E+00    4.07       0.0  T
   2     -4.5661630 -0.973776E-02  0.259E+00    4.03       1.0  T
   3     -4.5680393 -0.187635E-02  0.761E-01    4.01       1.0  T
   4     -4.5680383  0.990840E-06  0.965E-02    4.02       1.0  T
   5     -4.5680417 -0.331980E-05  0.496E-03    4.02      11.6  T
   6     -4.5680417 -0.292127E-08  0.233E-03    4.02      24.8  T
   7     -4.5680417 -0.221313E-08  0.375E-05    4.02    1539.8  T
   8     -4.5680417 -0.204281E-13  0.853E-07    4.02   67682.1  T

   *** convergence criteria satisfied after 8 iterations ***

         #    Occupation            Energy/Eh            Energy/eV
      -------------------------------------------------------------
         1        2.0000           -0.7532730             -20.4976
         2        2.0000           -0.6327338             -17.2176
         3        2.0000           -0.5975736             -16.2608
         4        1.0000           -0.5505452             -14.9811
         5        1.0000            0.0211897               0.5766 (HOMO)
         6                          0.1688079               4.5935 (LUMO)
      -------------------------------------------------------------
                  HL-Gap            0.1476182 Eh            4.0169 eV
             Fermi-level           -0.2395303 Eh           -6.5180 eV

 transition dipole moment (au) for excitation:           4           5
     X       Y       Z   
  -0.0000   0.0000  -0.0025  total (au/Debye):    0.003   0.006
 dE (eV)             :   15.558
 oscillator strength :  0.33758E-05

 SCC (total)                   0 d,  0 h,  0 min,  0.001 sec
 SCC setup                      ...        0 min,  0.000 sec (  6.790%)
 Dispersion                     ...        0 min,  0.000 sec (  1.190%)
 integral evaluation            ...        0 min,  0.000 sec ( 14.676%)
 zeroth order Hamiltonian       ...        0 min,  0.000 sec (  0.817%)
 iterations                     ...        0 min,  0.000 sec ( 47.340%)
 molecular gradient             ...        0 min,  0.000 sec ( 11.853%)
 printout                       ...        0 min,  0.000 sec ( 16.449%)

         :::::::::::::::::::::::::::::::::::::::::::::::::::::
         ::                     SUMMARY                     ::
         :::::::::::::::::::::::::::::::::::::::::::::::::::::
         :: total energy              -4.542309065725 Eh    ::
         :: gradient norm              0.644779199234 Eh/a0 ::
         :: HOMO-LUMO gap              4.016896375915 eV    ::
         ::.................................................::
         :: SCC energy                -4.568041656419 Eh    ::
         :: -> isotropic ES            0.003249527146 Eh    ::
         :: -> anisotropic ES         -0.002821270118 Eh    ::
         :: -> anisotropic XC         -0.001094109274 Eh    ::
         :: -> dispersion             -0.000199048899 Eh    ::
         :: repulsion energy           0.025732590651 Eh    ::
         :: add. restraining           0.000000000000 Eh    ::
         :::::::::::::::::::::::::::::::::::::::::::::::::::::

      ----------------------------------------------------------- 
     |                   =====================                   |
     |                        A N C O P T                        |
     |                   =====================                   |
     |               Approximate Normal Coordinate               |
     |                Rational Function Optimizer                |
      ----------------------------------------------------------- 

          ...................................................
          :                      SETUP                      :
          :.................................................:
          :   optimization level            normal          :
          :   max. optcycles                   200          :
          :   ANC micro-cycles                  20          :
          :   degrees of freedom                 3          :
          :.................................................:
          :   RF solver                   davidson          :
          :   write xtbopt.log                true          :
          :   linear?                        false          :
          :   energy convergence         0.5000000E-05 Eh   :
          :   grad. convergence          0.1000000E-02 Eh/α :
          :   maximium RF displ.         1.0000000          :
          :   Hlow (freq-cutoff)         0.1000000E-01      :
          :   Hmax (freq-cutoff)         5.0000000          :
          :   S6 in model hess.         20.0000000          :
          ...................................................

generating ANC from model Hessian ...
Using Lindh-Hessian (1995)
 Shifting diagonal of input Hessian by    0.0000000000000000     
 Lowest  eigenvalues of input Hessian
   -0.000000   -0.000000   -0.000000    0.000000    0.000000    0.000000
    0.240586    1.109555    1.288771
 Highest eigenvalues
    0.000000    0.000000    0.000000    0.240586    1.109555    1.288771


........................................................................
.............................. CYCLE    1 ..............................
........................................................................
   1     -4.5680417 -0.456804E+01  0.497E-08    4.02       0.0  T
   2     -4.5680417  0.177636E-14  0.231E-08    4.02  100000.0  T
   3     -4.5680417 -0.177636E-14  0.300E-09    4.02  100000.0  T
     SCC iter.                  ...        0 min,  0.000 sec
     gradient                   ...        0 min,  0.000 sec
 * total energy  :    -4.5423091 Eh     change       -0.5511147E-11 Eh
   gradient norm :     0.6447792 Eh/α   predicted     0.0000000E+00 (-100.00%)
   displ. norm   :     0.5687458 α      lambda       -0.3388903E+00
   maximum displ.:     0.4174714 α      in ANC's #2, #1, #3, ...

........................................................................
.............................. CYCLE    2 ..............................
........................................................................
   1     -4.7254054 -0.472541E+01  0.172E+00    2.47       0.0  T
   2     -4.7258263 -0.420872E-03  0.968E-01    2.44       1.0  T
   3     -4.7258752 -0.488645E-04  0.182E-01    2.40       1.0  T
   4     -4.7258852 -0.100683E-04  0.865E-03    2.39       6.7  T
   5     -4.7258853 -0.514068E-07  0.384E-03    2.39      15.1  T
   6     -4.7258853 -0.106872E-08  0.593E-05    2.39     974.1  T
   7     -4.7258853 -0.246203E-11  0.141E-05    2.39    4083.2  T
     SCC iter.                  ...        0 min,  0.000 sec
     gradient                   ...        0 min,  0.000 sec
 * total energy  :    -4.7233524 Eh     change       -0.1810433E+00 Eh
   gradient norm :     0.1354584 Eh/α   predicted    -0.2242558E+00 (  23.87%)
   displ. norm   :     0.2203926 α      lambda       -0.2448380E-01
   maximum displ.:     0.2029356 α      in ANC's #1, #2, #3, ...

........................................................................
.............................. CYCLE    3 ..............................
........................................................................
   1     -4.7443948 -0.474439E+01  0.341E-01    2.39       0.0  T
   2     -4.7444131 -0.182426E-04  0.190E-01    2.38       1.0  T
   3     -4.7444149 -0.179457E-05  0.375E-02    2.38       1.5  T
   4     -4.7444152 -0.374549E-06  0.302E-03    2.38      19.1  T
   5     -4.7444152 -0.777248E-09  0.734E-04    2.38      78.6  T
   6     -4.7444152 -0.559277E-10  0.161E-05    2.38    3595.5  T
     SCC iter.                  ...        0 min,  0.000 sec
     gradient                   ...        0 min,  0.000 sec
 * total energy  :    -4.7430754 Eh     change       -0.1972300E-01 Eh
   gradient norm :     0.0725193 Eh/α   predicted    -0.1283652E-01 ( -34.92%)
   displ. norm   :     0.4170251 α      lambda       -0.2640973E-01
   maximum displ.:     0.4081543 α      in ANC's #1, #2, #3, ...

........................................................................
.............................. CYCLE    4 ..............................
........................................................................
   1     -4.7611474 -0.476115E+01  0.525E-01    2.56       0.0  T
   2     -4.7612487 -0.101298E-03  0.270E-01    2.57       1.0  T
   3     -4.7612557 -0.699985E-05  0.835E-02    2.57       1.0  T
   4     -4.7612565 -0.752922E-06  0.413E-03    2.57      14.0  T
   5     -4.7612565 -0.205142E-08  0.170E-03    2.57      33.9  T
   6     -4.7612565 -0.909015E-09  0.141E-05    2.57    4082.3  T
   7     -4.7612565 -0.102141E-12  0.604E-06    2.57    9563.3  T
     SCC iter.                  ...        0 min,  0.000 sec
     gradient                   ...        0 min,  0.000 sec
 * total energy  :    -4.7607570 Eh     change       -0.1768159E-01 Eh
   gradient norm :     0.0323967 Eh/α   predicted    -0.1550133E-01 ( -12.33%)
   displ. norm   :     0.2767022 α      lambda       -0.7138565E-02
   maximum displ.:     0.2766776 α      in ANC's #1, #2, #3, ...

........................................................................
.............................. CYCLE    5 ..............................
........................................................................
   1     -4.7656087 -0.476561E+01  0.327E-01    2.75       0.0  T
   2     -4.7656786 -0.699122E-04  0.145E-01    2.76       1.0  T
   3     -4.7656828 -0.413362E-05  0.567E-02    2.77       1.0  T
   4     -4.7656829 -0.128945E-06  0.250E-03    2.76      23.1  T
   5     -4.7656829 -0.618112E-09  0.102E-03    2.76      56.4  T
   6     -4.7656829 -0.355215E-09  0.669E-06    2.76    8636.5  T
   7     -4.7656829 -0.524025E-13  0.189E-06    2.76   30628.4  T
     SCC iter.                  ...        0 min,  0.000 sec
     gradient                   ...        0 min,  0.000 sec
 * total energy  :    -4.7653898 Eh     change       -0.4632823E-02 Eh
   gradient norm :     0.0389093 Eh/α   predicted    -0.3842560E-02 ( -17.06%)
   displ. norm   :     0.1497575 α      lambda       -0.2579943E-02
   maximum displ.:     0.1448833 α      in ANC's #1, #2, #3, ...

........................................................................
.............................. CYCLE    6 ..............................
........................................................................
   1     -4.7676495 -0.476765E+01  0.176E-01    2.96       0.0  T
   2     -4.7676718 -0.222696E-04  0.769E-02    2.96       1.0  T
   3     -4.7676731 -0.128752E-05  0.319E-02    2.97       1.8  T
   4     -4.7676731 -0.259157E-07  0.106E-03    2.97      54.7  T
   5     -4.7676731 -0.495799E-10  0.381E-04    2.97     151.6  T
   6     -4.7676731 -0.376206E-10  0.339E-06    2.97   17047.7  T
     SCC iter.                  ...        0 min,  0.000 sec
     gradient                   ...        0 min,  0.000 sec
 * total energy  :    -4.7674234 Eh     change       -0.2033602E-02 Eh
   gradient norm :     0.0411121 Eh/α   predicted    -0.1318902E-02 ( -35.14%)
   displ. norm   :     0.2281400 α      lambda       -0.4815269E-02
   maximum displ.:     0.1937030 α      in ANC's #1, #2, #3, ...

........................................................................
.............................. CYCLE    7 ..............................
........................................................................
   1     -4.7712358 -0.477124E+01  0.303E-01    3.40       0.0  T
   2     -4.7712863 -0.505234E-04  0.149E-01    3.41       1.0  T
   3     -4.7712899 -0.361144E-05  0.565E-02    3.42       1.0  T
   4     -4.7712900 -0.148310E-06  0.121E-03    3.42      47.6  T
   5     -4.7712900 -0.419985E-09  0.549E-04    3.42     105.2  T
   6     -4.7712900 -0.281002E-10  0.488E-06    3.42   11839.4  T
     SCC iter.                  ...        0 min,  0.000 sec
     gradient                   ...        0 min,  0.000 sec
 * total energy  :    -4.7710489 Eh     change       -0.3625462E-02 Eh
   gradient norm :     0.0397086 Eh/α   predicted    -0.2532944E-02 ( -30.13%)
   displ. norm   :     0.2395704 α      lambda       -0.6212255E-02
   maximum displ.:     0.2026220 α      in ANC's #2, #1, #3, ...

........................................................................
.............................. CYCLE    8 ..............................
........................................................................
   1     -4.7760857 -0.477609E+01  0.361E-01    4.04       0.0  T
   2     -4.7761185 -0.327895E-04  0.205E-01    4.06       1.0  T
   3     -4.7761216 -0.312300E-05  0.533E-02    4.07       1.1  T
   4     -4.7761221 -0.528058E-06  0.118E-03    4.07      48.8  T
   5     -4.7761221 -0.162530E-09  0.603E-04    4.07      95.8  T
   6     -4.7761221 -0.889333E-11  0.836E-06    4.07    6903.1  T
     SCC iter.                  ...        0 min,  0.000 sec
     gradient                   ...        0 min,  0.000 sec
 * total energy  :    -4.7758065 Eh     change       -0.4757621E-02 Eh
   gradient norm :     0.0320971 Eh/α   predicted    -0.3284398E-02 ( -30.97%)
   displ. norm   :     0.2709382 α      lambda       -0.7434164E-02
   maximum displ.:     0.2708977 α      in ANC's #2, #1, #3, ...

........................................................................
.............................. CYCLE    9 ..............................
........................................................................
   1     -4.7814304 -0.478143E+01  0.476E-01    5.00       0.0  T
   2     -4.7814319 -0.147820E-05  0.291E-01    5.00       1.0  T
   3     -4.7814327 -0.754263E-06  0.247E-02    5.01       2.3  T
   4     -4.7814327 -0.421105E-07  0.776E-03    5.00       7.4  T
   5     -4.7814327 -0.850883E-08  0.226E-03    5.00      25.5  T
   6     -4.7814327 -0.326586E-09  0.309E-04    5.00     186.9  T
   7     -4.7814327 -0.299138E-11  0.655E-05    5.00     881.8  T
     SCC iter.                  ...        0 min,  0.000 sec
     gradient                   ...        0 min,  0.000 sec
 * total energy  :    -4.7808048 Eh     change       -0.4998301E-02 Eh
   gradient norm :     0.0122880 Eh/α   predicted    -0.3989942E-02 ( -20.17%)
   displ. norm   :     0.1290452 α      lambda       -0.1438841E-02
   maximum displ.:     0.1243749 α      in ANC's #2, #1, #3, ...

........................................................................
.............................. CYCLE   10 ..............................
........................................................................
   1     -4.7823887 -0.478239E+01  0.232E-01    5.47       0.0  T
   2     -4.7823911 -0.238187E-05  0.138E-01    5.46       1.0  T
   3     -4.7823916 -0.513191E-06  0.208E-02    5.46       2.8  T
   4     -4.7823917 -0.877830E-07  0.756E-03    5.46       7.6  T
   5     -4.7823917 -0.334724E-08  0.133E-03    5.46      43.4  T
   6     -4.7823917 -0.152244E-09  0.292E-04    5.46     197.8  T
   7     -4.7823917 -0.445155E-11  0.812E-05    5.46     710.8  T
     SCC iter.                  ...        0 min,  0.000 sec
     gradient                   ...        0 min,  0.000 sec
 * total energy  :    -4.7814863 Eh     change       -0.6815149E-03 Eh
   gradient norm :     0.0018497 Eh/α   predicted    -0.7314000E-03 (   7.32%)
   displ. norm   :     0.0248534 α      lambda       -0.2684557E-04
   maximum displ.:     0.0233585 α      in ANC's #1, #2, #3, ...

........................................................................
.............................. CYCLE   11 ..............................
........................................................................
   1     -4.7823440 -0.478234E+01  0.411E-02    5.38       0.0  T
   2     -4.7823442 -0.161993E-06  0.233E-02    5.38       2.5  T
   3     -4.7823442 -0.282991E-07  0.328E-03    5.38      17.6  T
   4     -4.7823442 -0.365274E-08  0.312E-04    5.38     185.2  T
   5     -4.7823442 -0.148193E-10  0.157E-04    5.38     366.7  T
     SCC iter.                  ...        0 min,  0.000 sec
     gradient                   ...        0 min,  0.000 sec
 * total energy  :    -4.7814972 Eh     change       -0.1087276E-04 Eh
   gradient norm :     0.0009446 Eh/α   predicted    -0.1342568E-04 (  23.48%)
   displ. norm   :     0.0067637 α      lambda       -0.4032100E-05
   maximum displ.:     0.0067625 α      in ANC's #1, #3, #2, ...

........................................................................
.............................. CYCLE   12 ..............................
........................................................................
   1     -4.7823677 -0.478237E+01  0.138E-02    5.41       0.0  T
   2     -4.7823678 -0.211714E-07  0.771E-03    5.41       7.5  T
   3     -4.7823678 -0.301119E-08  0.112E-03    5.41      51.7  T
   4     -4.7823678 -0.380577E-09  0.144E-04    5.41     399.7  T
   5     -4.7823678 -0.118021E-10  0.328E-05    5.41    1759.1  T
     SCC iter.                  ...        0 min,  0.000 sec
     gradient                   ...        0 min,  0.000 sec
 * total energy  :    -4.7815002 Eh     change       -0.3011346E-05 Eh
   gradient norm :     0.0001779 Eh/α   predicted    -0.2017615E-05 ( -33.00%)
   displ. norm   :     0.0010825 α      lambda       -0.4743621E-07
   maximum displ.:     0.0010133 α      in ANC's #2, #1, #3, ...

   *** GEOMETRY OPTIMIZATION CONVERGED AFTER 12 ITERATIONS ***

------------------------------------------------------------------------
 total energy gain   :        -0.2391911 Eh     -150.0947 kcal/mol
 total RMSD          :         0.9963584 a0        0.5273 Å
 total power (kW/mol):       -52.3330184 (step)********** (real)
------------------------------------------------------------------------

 ANCopt (total)                0 d,  0 h,  0 min,  0.006 sec
 optimizer setup                ...        0 min,  0.000 sec (  1.101%)
 model hessian                  ...        0 min,  0.000 sec (  0.648%)
 ANC generation                 ...        0 min,  0.000 sec (  0.607%)
 coordinate transformation      ...        0 min,  0.000 sec (  0.413%)
 single point calculation       ...        0 min,  0.005 sec ( 85.121%)
 optimization log               ...        0 min,  0.000 sec (  3.356%)
 hessian update                 ...        0 min,  0.000 sec (  0.364%)
 rational function              ...        0 min,  0.000 sec (  3.279%)

================
 final structure:
================
3
 xtb: 6.2.2 (9d81278992624c895f80dd42a50cac0aa55982e2)
O         0.00025394743951   -0.00031812202120    0.00000000000000
H        -1.32601682768679   -0.00402184102039    0.00000000000000
H         1.32576288024727    0.00433896304160    0.00000000000000

 Bond Distances (Angstroems)
 ---------------------------


 selected bond angles (degree)
 --------------------


 selected dihedral angles (degree)
 ---------------------------------

           -------------------------------------------------
          |                Final Singlepoint                |
           -------------------------------------------------

          ...................................................
          :                      SETUP                      :
          :.................................................:
          :  # basis functions                   6          :
          :  # atomic orbitals                   6          :
          :  # shells                            4          :
          :  # electrons                         8          :
          :  max. iterations                   250          :
          :  Hamiltonian                  GFN2-xTB          :
          :  restarted?                      false          :
          :  GBSA solvation                  false          :
          :  PC potential                    false          :
          :  electronic temp.          300.0000000     K    :
          :  accuracy                    1.0000000          :
          :  -> integral cutoff          0.2500000E+02      :
          :  -> integral neglect         0.1000000E-07      :
          :  -> SCF convergence          0.1000000E-05 Eh   :
          :  -> wf. convergence          0.1000000E-03 e    :
          :  Broyden damping             0.4000000          :
          ...................................................

 iter      E             dE          RMSdq      gap      omega  full diag
   1     -4.7823678 -0.478237E+01  0.569E-06    5.41       0.0  T
   2     -4.7823678  0.000000E+00  0.403E-06    5.41   14325.5  T
   3     -4.7823678 -0.621725E-14  0.802E-07    5.41   72005.6  T

   *** convergence criteria satisfied after 3 iterations ***

         #    Occupation            Energy/Eh            Energy/eV
      -------------------------------------------------------------
         1        2.0000           -0.6873067             -18.7026
         2        2.0000           -0.5850601             -15.9203
         3        1.9436           -0.4971451             -13.5280
         4        1.0564           -0.4917904             -13.3823
         5        1.0000           -0.3126928              -8.5088 (HOMO)
         6                         -0.1138547              -3.0981 (LUMO)
      -------------------------------------------------------------
                  HL-Gap            0.1988381 Eh            5.4107 eV
             Fermi-level           -0.3538707 Eh           -9.6293 eV

 transition dipole moment (au) for excitation:           4           5
     X       Y       Z   
  -0.0000  -0.0000   0.0148  total (au/Debye):    0.015   0.038
 dE (eV)             :    4.873
 oscillator strength :  0.37045E-04

 SCC (total)                   0 d,  0 h,  0 min,  0.000 sec
 SCC setup                      ...        0 min,  0.000 sec (  7.904%)
 Dispersion                     ...        0 min,  0.000 sec (  0.771%)
 integral evaluation            ...        0 min,  0.000 sec ( 26.892%)
 zeroth order Hamiltonian       ...        0 min,  0.000 sec (  0.771%)
 iterations                     ...        0 min,  0.000 sec ( 19.036%)
 molecular gradient             ...        0 min,  0.000 sec ( 17.831%)
 printout                       ...        0 min,  0.000 sec ( 25.494%)

         :::::::::::::::::::::::::::::::::::::::::::::::::::::
         ::                     SUMMARY                     ::
         :::::::::::::::::::::::::::::::::::::::::::::::::::::
         :: total energy              -4.781500193747 Eh    ::
         :: gradient norm              0.000194240342 Eh/a0 ::
         :: HOMO-LUMO gap              5.410659039651 eV    ::
         ::.................................................::
         :: SCC energy                -4.782367769485 Eh    ::
         :: -> isotropic ES            0.009134221914 Eh    ::
         :: -> anisotropic ES         -0.001683352944 Eh    ::
         :: -> anisotropic XC         -0.001217794120 Eh    ::
         :: -> dispersion             -0.000287044950 Eh    ::
         :: repulsion energy           0.000867580262 Eh    ::
         :: add. restraining           0.000000000000 Eh    ::
         :::::::::::::::::::::::::::::::::::::::::::::::::::::

           ------------------------------------------------- 
          |                Numerical Hessian                |
           ------------------------------------------------- 
step length          :   0.00500
SCC accuracy         :   0.30000
Hessian scale factor :   1.00000
frozen atoms in %    :   0.00000    0
RMS gradient         :   0.00019
estimated CPU  time      0.00 min
estimated wall time      0.00 min

writing file <hessian>.

 vibrational frequencies (cm-1)
eigval :        0.00     0.00     0.00     0.00     0.00     0.52
eigval :      634.03   994.63  2031.46
           -------------------------------------------------
          |                Property Printout                |
           -------------------------------------------------

    * Orbital Energies and Occupations

         #    Occupation            Energy/Eh            Energy/eV
      -------------------------------------------------------------
         1        2.0000           -0.6873067             -18.7026
         2        2.0000           -0.5850601             -15.9203
         3        1.9436           -0.4971451             -13.5280
         4        1.0564           -0.4917904             -13.3823
         5        1.0000           -0.3126928              -8.5088 (HOMO)
         6                         -0.1138547              -3.0981 (LUMO)
      -------------------------------------------------------------
                  HL-Gap            0.1988381 Eh            5.4107 eV
             Fermi-level           -0.3538707 Eh           -9.6293 eV

     #   Z        covCN         q      C6AA      α(0)
     1   8 O      0.502    -0.283    19.631     5.920
     2   1 H      0.250     0.141     3.488     3.400
     3   1 H      0.252     0.142     3.475     3.393

 Mol. C6AA /au·bohr⁶  :         64.863598
 Mol. C8AA /au·bohr⁸  :       1053.477898
 Mol. α(0) /au        :         12.713299


Wiberg/Mayer (AO) data.
largest (>0.10) Wiberg bond orders for each atom
          total WBO             WBO to atom ...
     1  O   0.938        H    3 0.470    H    2 0.468
     2  H   0.507        O    1 0.468
     3  H   0.508        O    1 0.470

MOs/occ written to file <molden.input>


molecular dipole:
                 x           y           z       tot (Debye)
 q only:        0.001       0.000      -0.000
   full:        0.002       0.000      -0.000       0.004
molecular quadrupole (traceless):
                xx          xy          yy          xz          yz          zz
 q only:        1.774       0.008      -0.887      -0.000      -0.000      -0.887
  q+dip:        2.349       0.011      -1.174      -0.000      -0.000      -1.174
   full:        2.127       0.011      -1.501      -0.000      -0.000      -0.626

           -------------------------------------------------
          |                Geometry Summary                 |
           -------------------------------------------------

      molecular mass/u    :       18.0152864
   center of mass at/Å    :        0.0002113      -0.0002648      -0.0000000
  moments of inertia/u·Å² :        0.4088541E-06   0.3543923E+01   0.3543923E+01
rotational constants/cm⁻¹ :        0.4123141E+08   0.4756772E+01   0.4756771E+01

           -------------------------------------------------
          |               Frequency Printout                |
           -------------------------------------------------
 vibrational frequencies (cm-1)
eigval :        0.00     0.00     0.00     0.00     0.00     0.52
eigval :      634.03   994.63  2031.46
 reduced masses (amu)
   1:  2.69   2:  1.01   3:  1.01   4: 14.32   5: 14.32   6: 14.32   7:  2.69   8:  2.69
   9:  1.01
 IR intensities (amu)
   1:  2.19   2:  0.00   3:  0.00   4:  0.13   5:  0.54   6:  1.46   7:  0.35   8:  0.19
   9:  0.00
 Raman intensities (amu)
   1:  0.00   2:  0.00   3:  0.00   4:  0.00   5:  0.00   6:  0.00   7:  0.00   8:  0.00
   9:  0.00
 output can be read by thermo (or use thermo option).
Molecule has the following symmetry elements: (i) (Cinf) (C2) 2*(sigma) 
It seems to be the Dinfh point group
 writing <g98.out> molden fake output.
 recommended (thermochemical) frequency scaling factor: 1.0
           -------------------------------------------------
          |             Thermodynamic Functions             |
           -------------------------------------------------

din symmetry found (for desy threshold:  0.10E+00) used in thermo

          ...................................................
          :                      SETUP                      :
          :.................................................:
          :  # frequencies                           3      :
          :  # imaginary freq.                       0      :
          :  linear?                              true      :
          :  only rotor calc.                    false      :
          :  symmetry                              din      :
          :  rotational number                       2      :
          :  scaling factor                  1.0000000      :
          :  rotor cutoff                   50.0000000 cm⁻¹ :
          :  imag. cutoff                  -20.0000000 cm⁻¹ :
          :.................................................:

    mode    ω/cm⁻¹     T·S(HO)/kcal·mol⁻¹    T·S(FR)/kcal·mol⁻¹   T·S(vib)
   ------------------------------------------------------------------------
   ------------------------------------------------------------------------

   temp. (K)  partition function   enthalpy   heat capacity  entropy
                                   cal/mol     cal/K/mol   cal/K/mol   J/K/mol
 298.15  VIB   1.06                  113.141      1.354      0.492
         ROT   21.8                  592.502      1.987      8.110
         INT   23.0                  705.643      3.342      8.602
         TR   0.740E+26             1481.254      4.968     34.593
         TOT                        2186.8968     8.3097    43.1951   180.7282

   temp. (K)  partition function   enthalpy   heat capacity  entropy
                                   cal/mol     cal/K/mol   cal/K/mol   J/K/mol
 120.00  VIB   1.00                    0.925      0.059      0.009
         ROT   8.77                  238.471      1.987      6.302
         INT   8.77                  239.396      2.047      6.310
         TR   0.189E+26              596.178      4.968     30.074
         TOT                         835.5740     7.0147    36.3843   152.2321

   temp. (K)  partition function   enthalpy   heat capacity  entropy
                                   cal/mol     cal/K/mol   cal/K/mol   J/K/mol
 100.00  VIB   1.00                    0.200      0.018      0.002
         ROT   7.31                  198.726      1.987      5.939
         INT   7.31                  198.926      2.006      5.941
         TR   0.144E+26              496.815      4.968     29.169
         TOT                         695.7407     6.9737    35.1102   146.9009

   temp. (K)  partition function   enthalpy   heat capacity  entropy
                                   cal/mol     cal/K/mol   cal/K/mol   J/K/mol
  80.00  VIB   1.00                    0.020      0.003      0.000
         ROT   5.84                  158.981      1.987      5.496
         INT   5.84                  159.001      1.990      5.496
         TR   0.103E+26              397.452      4.968     28.061
         TOT                         556.4531     6.9583    33.5567   140.4012

   temp. (K)  partition function   enthalpy   heat capacity  entropy
                                   cal/mol     cal/K/mol   cal/K/mol   J/K/mol
  60.00  VIB   1.00                    0.000      0.000     -0.000
         ROT   4.38                  119.236      1.987      4.924
         INT   4.38                  119.236      1.987      4.924
         TR   0.668E+25              298.089      4.968     26.632
         TOT                         417.3251     6.9555    31.5562   132.0310

   temp. (K)  partition function   enthalpy   heat capacity  entropy
                                   cal/mol     cal/K/mol   cal/K/mol   J/K/mol
  40.00  VIB   1.00                    0.000      0.000     -0.000
         ROT   2.92                   79.490      1.987      4.118
         INT   2.92                   79.490      1.987      4.118
         TR   0.364E+25              198.726      4.968     24.619
         TOT                         278.2164     6.9554    28.7369   120.2354

   temp. (K)  partition function   enthalpy   heat capacity  entropy
                                   cal/mol     cal/K/mol   cal/K/mol   J/K/mol
  20.00  VIB   1.00                    0.000      0.000     -0.000
         ROT   1.46                   39.745      1.987      2.741
         INT   1.46                   39.745      1.987      2.741
         TR   0.129E+25               99.363      4.968     21.177
         TOT                         139.1082     6.9554    23.9175   100.0707

   temp. (K)  partition function   enthalpy   heat capacity  entropy
                                   cal/mol     cal/K/mol   cal/K/mol   J/K/mol
  10.00  VIB   1.00                    0.000      0.000     -0.000
         ROT  0.731                   19.873      1.987      1.363
         INT  0.731                   19.873      1.987      1.363
         TR   0.454E+24               49.681      4.968     17.735
         TOT                          69.5541     6.9554    19.0980    79.9060

       T/K    H(0)-H(T)+PV         H(T)/Eh          T*S/Eh         G(T)/Eh
   ------------------------------------------------------------------------
    298.15    0.348504E-02    0.118234E-01    0.205234E-01   -0.869996E-02
    120.00    0.133157E-02    0.966995E-02    0.695786E-02    0.271209E-02
    100.00    0.110873E-02    0.944711E-02    0.559516E-02    0.385195E-02
     80.00    0.886764E-03    0.922514E-02    0.427808E-02    0.494706E-02
     60.00    0.665050E-03    0.900342E-02    0.301728E-02    0.598615E-02
     40.00    0.443366E-03    0.878174E-02    0.183181E-02    0.694993E-02
     20.00    0.221683E-03    0.856006E-02    0.762298E-03    0.779776E-02
     10.00    0.110842E-03    0.844921E-02    0.304346E-03    0.814487E-02 (used)
   ------------------------------------------------------------------------

         :::::::::::::::::::::::::::::::::::::::::::::::::::::
         ::                  THERMODYNAMIC                  ::
         :::::::::::::::::::::::::::::::::::::::::::::::::::::
         :: total free energy          -4.773355324828 Eh   ::
         ::.................................................::
         :: total energy               -4.781500193752 Eh   ::
         :: zero point energy           0.008338373348 Eh   ::
         :: G(RRHO) w/o ZPVE           -0.000193504424 Eh   ::
         :: G(RRHO) contrib.            0.008144868924 Eh   ::
         :::::::::::::::::::::::::::::::::::::::::::::::::::::

optimized geometry written to: xtbopt.xyz


           -------------------------------------------------
          | TOTAL ENERGY               -4.781500193752 Eh   |
          | TOTAL ENTHALPY             -4.773050978890 Eh   |
          | TOTAL FREE ENERGY          -4.773355324828 Eh   |
          | GRADIENT NORM               0.000194250184 Eh/α |
          | HOMO-LUMO GAP               5.410659012764 eV   |
           -------------------------------------------------

------------------------------------------------------------------------
 * finished run on 2020/05/12 at 11:44:27.551     
------------------------------------------------------------------------
 total:
 * wall-time:     0 d,  0 h,  0 min,  0.032 sec
 *  cpu-time:     0 d,  0 h,  0 min,  0.032 sec
 * ratio c/w:     0.999 speedup
 SCF:
 * wall-time:     0 d,  0 h,  0 min,  0.001 sec
 *  cpu-time:     0 d,  0 h,  0 min,  0.001 sec
 * ratio c/w:     1.000 speedup
 ANC optimizer:
 * wall-time:     0 d,  0 h,  0 min,  0.007 sec
 *  cpu-time:     0 d,  0 h,  0 min,  0.007 sec
 * ratio c/w:     1.000 speedup
 numerical hessian:
 * wall-time:     0 d,  0 h,  0 min,  0.007 sec
 *  cpu-time:     0 d,  0 h,  0 min,  0.007 sec
 * ratio c/w:     0.997 speedup

