[Molden Format]
[Title]
[Atoms] AU
O      1     8  0.47988791851848E-03 -0.60116595120705E-03 -0.62590769678787E-09
H      2     1 -0.25058084482293E+01 -0.75870569579266E-02  0.87601862422570E-05
H      3     1  0.25053285603009E+01  0.81863331831847E-02 -0.87595570363662E-05
[GTO]
           1 0
 s           4   1.0000000000000000     
   69.137961906196551      -0.20478756370077797     
   11.906129132707308      -0.24997023136827334     
  0.95670827744340703       0.40025880240639616     
  0.36462520496073686       0.15952206667693555     
 p           4   1.0000000000000000     
   8.2124193257781641        1.1321556799186829     
   2.1293576997098116        1.0476840782254817     
  0.75066448202360914       0.54956508217158984     
  0.29885246543283073        8.2908486592766617E-002

           2 0
 s           3   1.0000000000000000     
   3.3702276975336001       0.27359110588908298     
  0.61389118221497996       0.26460540653860526     
  0.16614291148415999        8.2465947534082318E-002

           3 0
 s           3   1.0000000000000000     
   3.3702276975336001       0.27359110588908298     
  0.61389118221497996       0.26460540653860526     
  0.16614291148415999        8.2465947534082318E-002

[MO]
Sym=     1a
Ene=  -0.68730665544030012     
Spin= Alpha
Occup=     2.00000000
           1  0.95119481941548645     
           2   2.0933070518818240E-004
           3   2.6493492546200256E-005
           4  -8.8609452458837971E-010
           5   8.5331175197812636E-002
           6   8.5653772278610485E-002
Sym=     2a
Ene=  -0.58506011109805067     
Spin= Alpha
Occup=     2.00000000
           1  -5.8199042219151580E-004
           2  0.73319986904576073     
           3   2.3082809563378897E-003
           4  -2.5640034229108834E-006
           5 -0.32223698173948967     
           6  0.32256076111929183     
Sym=     3a
Ene=  -0.49714505969980610     
Spin= Alpha
Occup=     1.94364624
           1  -1.9479340490737476E-004
           2  -3.1481693310709369E-003
           3  0.99999494482044204     
           4  -1.4958366525886649E-011
           5   2.3327963170906456E-004
           6   2.3296887437185566E-004
Sym=     4a
Ene=  -0.49179042526929523     
Spin= Alpha
Occup=     1.05635376
           1  -4.3597388680103848E-010
           2  -3.4969855988462755E-006
           3  -1.1024460110109189E-008
           4  -1.0000000000433213     
           5   2.2603889305187943E-010
           6   5.4693049618701744E-010
Sym=     5a
Ene=  -0.31269275828614734     
Spin= Alpha
Occup=     1.00000000
           1  0.47668799341260809     
           2  -1.6658550792382159E-004
           3   4.6918959354298289E-004
           4  -2.2554744808517749E-010
           5 -0.73375952857366411     
           6 -0.73273239441932936     
Sym=     6a
Ene=  -0.11385469830419177     
Spin= Alpha
Occup=     0.00000000
           1  -6.4547696557924576E-004
           2 -0.80836879508254389     
           3  -2.5449522466017612E-003
           4   2.8266897519639592E-006
           5 -0.71740600354677020     
           6  0.71856728136574988     
