 Entering Gaussian System
 *********************************************
 Gaussian 98:
 frequency output generated by the xtb code
 *********************************************
                         Standard orientation:
 --------------------------------------------------------------------
  Center     Atomic     Atomic              Coordinates (Angstroms)
  Number     Number      Type              X           Y           Z
 --------------------------------------------------------------------
    1          6             0       -0.430289   -1.255044    0.192846
    2          6             0       -0.810022    0.045663   -0.006485
    3          6             0        0.732150   -0.496930    0.530063
    4          6             0       -0.283542    1.295267   -0.198282
    5          6             0        0.791704    0.411045   -0.518143
 --------------------------------------------------------------------
     1 basis functions        1 primitive gaussians
     1 alpha electrons        1 beta electrons

 Harmonic frequencies (cm**-1), IR intensities (KM/Mole),
 Raman scattering activities (A**4/amu), Raman depolarization ratios,
 reduced masses (AMU), force constants (mDyne/A) and normal coordinates:
                      1                      2                      3
                        a                      a                      a 
 Frequencies --    49.0940               501.3712               538.3761
 Red. masses --    12.0107                12.0107                12.0107
 Frc consts  --     0.0000                 0.0000                 0.0000
 IR Inten    --     0.8306                 0.2289                 0.3725
 Raman Activ --     0.0000                 0.0000                 0.0000
 Depolar     --     0.0000                 0.0000                 0.0000
 Atom AN      X      Y      Z        X      Y      Z        X      Y      Z
   1   6     0.18   0.14  -0.43    -0.26  -0.03   0.30     0.05   0.24   0.19
   2   6     0.01   0.18   0.43     0.11  -0.01   0.00     0.00  -0.04  -0.57
   3   6     0.20  -0.25   0.22     0.18  -0.41  -0.37     0.42  -0.25   0.10
   4   6    -0.15   0.16  -0.44    -0.25   0.06  -0.30    -0.03   0.24   0.19
   5   6    -0.23  -0.23   0.22     0.22   0.39   0.37    -0.44  -0.20   0.09
                      4                      5                      6
                        a                      a                      a 
 Frequencies --   660.1157               883.6304               930.6803
 Red. masses --    12.0107                12.0107                12.0107
 Frc consts  --     0.0000                 0.0000                 0.0000
 IR Inten    --     0.4293                 1.6870                 0.2202
 Raman Activ --     0.0000                 0.0000                 0.0000
 Depolar     --     0.0000                 0.0000                 0.0000
 Atom AN      X      Y      Z        X      Y      Z        X      Y      Z
   1   6    -0.21  -0.31  -0.01     0.44   0.08   0.16    -0.42   0.21  -0.17
   2   6     0.78  -0.04   0.01     0.02   0.35  -0.10     0.09  -0.01   0.00
   3   6    -0.19   0.05   0.12    -0.36  -0.26  -0.11     0.40   0.29   0.03
   4   6    -0.18   0.33   0.01    -0.43   0.13   0.15    -0.44  -0.17   0.16
   5   6    -0.20  -0.03  -0.12     0.33  -0.30  -0.10     0.36  -0.33  -0.02
                      7                      8                      9
                        a                      a                      a 
 Frequencies --  1117.2401              1313.0068              1520.9515
 Red. masses --    12.0107                12.0107                12.0107
 Frc consts  --     0.0000                 0.0000                 0.0000
 IR Inten    --     1.0107                 0.2034                 0.8450
 Raman Activ --     0.0000                 0.0000                 0.0000
 Depolar     --     0.0000                 0.0000                 0.0000
 Atom AN      X      Y      Z        X      Y      Z        X      Y      Z
   1   6     0.05  -0.40   0.05     0.11   0.43   0.00    -0.02  -0.43   0.02
   2   6    -0.19   0.01  -0.00     0.37  -0.02   0.00     0.04   0.72  -0.15
   3   6     0.05   0.39  -0.41    -0.26   0.17  -0.37     0.19   0.06   0.06
   4   6     0.09   0.39  -0.04     0.06  -0.44  -0.00    -0.03  -0.43   0.02
   5   6     0.00  -0.39   0.41    -0.28  -0.14   0.37    -0.18   0.08   0.06
