$hessian                                                                        
        0.1646583683   0.0296470711   0.0463139534  -0.0223403726   0.0379676247
       -0.0155663514  -0.1414149960  -0.0573231506  -0.0585584362   0.0287465238
        0.0174143606   0.0048571340  -0.0296495235  -0.0277059059   0.0229537002
        0.0296470711   0.4777133398  -0.0212161958   0.1105406693  -0.3226531572
        0.0478413792  -0.1376332003  -0.0496975655  -0.0647862564  -0.0288301728
       -0.0685346096   0.0269774289   0.0262756326  -0.0368280074   0.0111836442
        0.0463139534  -0.0212161958   0.0370664366  -0.0068914714   0.0319428908
       -0.0227626487  -0.0256011287  -0.0432853327  -0.0284788572  -0.0011876603
        0.0277054924  -0.0086741522  -0.0126336929   0.0048531453   0.0228492215
       -0.0223403726   0.1105406693  -0.0068914714   0.2550819481   0.0200257127
       -0.0055099184  -0.0876261253   0.0207521440  -0.0465443999  -0.0432162399
       -0.1429994173   0.0102869511  -0.1018992104  -0.0083191087   0.0486588386
        0.0379676247  -0.3226531572   0.0319428908   0.0200257127   0.5906281676
       -0.1232060899   0.1041413411   0.0108701635   0.0340646099  -0.0701846395
       -0.3024431207   0.0300642925  -0.0919500389   0.0235979468   0.0271342966
       -0.0155663514   0.0478413792  -0.0227626487  -0.0055099184  -0.1232060899
        0.0695718466  -0.0491672139   0.0187622412  -0.0130494539   0.0205820733
        0.0436860695  -0.0223217630   0.0496614104   0.0129164000  -0.0114379810
       -0.1414149960  -0.1376332003  -0.0256011287  -0.0876261253   0.1041413411
       -0.0491672139   0.2351846147   0.0444548107   0.0860772304  -0.0294297920
       -0.0272768768   0.0122587417   0.0232862986   0.0163139254  -0.0235676295
       -0.0573231506  -0.0496975655  -0.0432853327   0.0207521440   0.0108701635
        0.0187622412   0.0444548107   0.1970569678  -0.1060878461   0.0267785911
       -0.0368789080   0.0038458968  -0.0346623952  -0.1213506578   0.1267650407
       -0.0585584362  -0.0647862564  -0.0284788572  -0.0465443999   0.0340646099
       -0.0130494539   0.0860772304  -0.1060878461   0.2289728535  -0.0223869034
        0.0133039773   0.0227385447   0.0414125090   0.1235055153  -0.2101830872
        0.0287465238  -0.0288301728  -0.0011876603  -0.0432162399  -0.0701846395
        0.0205820733  -0.0294297920   0.0267785911  -0.0223869034   0.1632917950
        0.0065548897  -0.0463995903  -0.1193922869   0.0656813315   0.0493920806
        0.0174143606  -0.0685346096   0.0277054924  -0.1429994173  -0.3024431207
        0.0436860695  -0.0272768768  -0.0368789080   0.0133039773   0.0065548897
        0.4804272876  -0.0161272353   0.1463070438  -0.0725706493  -0.0685683039
        0.0048571340   0.0269774289  -0.0086741522   0.0102869511   0.0300642925
       -0.0223217630   0.0122587417   0.0038458968   0.0227385447  -0.0463995903
       -0.0161272353   0.0355954417   0.0189967634  -0.0447603829  -0.0273380712
       -0.0296495235   0.0262756326  -0.0126336929  -0.1018992104  -0.0919500389
        0.0496614104   0.0232862986  -0.0346623952   0.0414125090  -0.1193922869
        0.1463070438   0.0189967634   0.2276547221  -0.0459702423  -0.0974369898
       -0.0277059059  -0.0368280074   0.0048531453  -0.0083191087   0.0235979468
        0.0129164000   0.0163139254  -0.1213506578   0.1235055153   0.0656813315
       -0.0725706493  -0.0447603829  -0.0459702423   0.2071513678  -0.0965146777
        0.0229537002   0.0111836442   0.0228492215   0.0486588386   0.0271342966
       -0.0114379810  -0.0235676295   0.1267650407  -0.2101830872   0.0493920806
       -0.0685683039  -0.0273380712  -0.0974369898  -0.0965146777   0.2261099179
