5
 energy: -9.995221929458 gnorm: 0.187906807782 xtb: 6.2.2 (9d81278992624c895f80dd42a50cac0aa55982e2)
C        -1.04431000000000   -1.25571300000000   -0.06433200000000
C        -0.21954200000000    0.01237000000000   -0.00171300000000
C         1.07289800000000   -0.09340400000000    0.76978300000000
C        -0.89753200000000    1.36512400000000    0.04910100000000
C         1.08848700000000   -0.02837600000000   -0.75283900000000
5
 energy: -10.036623616239 gnorm: 0.183078934094 xtb: 6.2.2 (9d81278992624c895f80dd42a50cac0aa55982e2)
C        -0.98510957374349   -1.20758522021247   -0.06167778194496
C        -0.28004832045192    0.01577894759080   -0.00217135256720
C         1.04721079706849   -0.09035691343123    0.73260735416443
C        -0.84407892502223    1.31065006444928    0.04731444368680
C         1.06202702214916   -0.02848587839638   -0.71607266333906
5
 energy: -9.969422923158 gnorm: 0.632125182955 xtb: 6.2.2 (9d81278992624c895f80dd42a50cac0aa55982e2)
C        -0.83322606142011   -1.11925335939329   -0.05636788113168
C        -0.52407863932366    0.02952843442387   -0.00404106808283
C         1.02449122480964   -0.08179757347226    0.56420416875152
C        -0.70301733875529    1.20581556795475    0.04426361022718
C         1.03583181468941   -0.03429206951306   -0.54805882976419
5
 energy: -10.084389821671 gnorm: 0.058609861096 xtb: 6.2.2 (9d81278992624c895f80dd42a50cac0aa55982e2)
C        -0.84678396889223   -1.23446327149156   -0.06144126241297
C        -0.47342822744338    0.02667294171977   -0.00361859763128
C         1.00523039394709   -0.08509139765672    0.66522085204330
C        -0.70362681602120    1.32182586779580    0.04919747119861
C         1.01860961840972   -0.02894314036729   -0.64935846319766
5
 energy: -10.098328332319 gnorm: 0.082099203573 xtb: 6.2.2 (9d81278992624c895f80dd42a50cac0aa55982e2)
C        -0.73261679952705   -1.32532873655225   -0.06418190583549
C        -0.56630610590723    0.03190522936956   -0.00428172629391
C         0.93291625798474   -0.08062115551800    0.65538761161887
C        -0.58003667101957    1.39929975056731    0.05373883031029
C         0.94604431846912   -0.02525408786661   -0.64066280979977
5
 energy: -10.104366972162 gnorm: 0.092857163311 xtb: 6.2.2 (9d81278992624c895f80dd42a50cac0aa55982e2)
C        -0.65314766754098   -1.35369679020324   -0.06456353855255
C        -0.63630322793167    0.03585013061944   -0.00478523768287
C         0.88704377493261   -0.07847029908835    0.66351542783552
C        -0.49790817185683    1.41856853608849    0.05534595288981
C         0.90031629239687   -0.02225057741636   -0.64951260448992
5
 energy: -10.114314202328 gnorm: 0.077810835605 xtb: 6.2.2 (9d81278992624c895f80dd42a50cac0aa55982e2)
C        -0.59150421897528   -1.33333718542334   -0.06209216678213
C        -0.69644599483969    0.03924300720950   -0.00521782813613
C         0.85651601782561   -0.07930653467392    0.68286227092322
C        -0.43892828802935    1.39142196116526    0.05379010939757
C         0.87036348401872   -0.01802024827750   -0.66934238540253
5
 energy: -10.145898259867 gnorm: 0.133323731558 xtb: 6.2.2 (9d81278992624c895f80dd42a50cac0aa55982e2)
C        -0.50035307569397   -1.26922199936996   -0.00973551099784
C        -0.78430049477662    0.04418671285507   -0.00578734794967
C         0.80786607829035   -0.16165758609054    0.70434709113908
C        -0.35476167652246    1.31744265508235    0.00271023448133
C         0.83155016870270    0.06925121752309   -0.69153446667290
5
 energy: -10.205751029474 gnorm: 0.173431632396 xtb: 6.2.2 (9d81278992624c895f80dd42a50cac0aa55982e2)
C        -0.40890308227963   -1.25765378808978    0.12206260278536
C        -0.86129823666816    0.04848234601712   -0.00631054464265
C         0.74217392862840   -0.38292471033064    0.70089334341504
C        -0.26301825416690    1.29549870416059   -0.12772043477361
C         0.79104664448628    0.29659844824271   -0.68892496678414
5
 energy: -10.217427093562 gnorm: 0.110931501349 xtb: 6.2.2 (9d81278992624c895f80dd42a50cac0aa55982e2)
C        -0.34694971000770   -1.24125267416854    0.21094416112247
C        -0.87626157393363    0.04945754510120   -0.00682312178332
C         0.67987317531127   -0.52875060105009    0.66520659615426
C        -0.20207979882467    1.27218360790925   -0.21521405924790
C         0.74541890745473    0.44836312220818   -0.65411357624552
5
 energy: -10.229704981313 gnorm: 0.102569204990 xtb: 6.2.2 (9d81278992624c895f80dd42a50cac0aa55982e2)
C        -0.46406960660285   -1.24138325218981    0.21222593637563
C        -0.76278634747196    0.04294227991664   -0.00588358295988
C         0.73992645181946   -0.53465502138055    0.62595258981496
C        -0.31801903438519    1.28527004934723   -0.21844123555474
C         0.80494953664055    0.44782694430648   -0.61385370767597
5
 energy: -10.239529538571 gnorm: 0.074223322565 xtb: 6.2.2 (9d81278992624c895f80dd42a50cac0aa55982e2)
C        -0.43702680843399   -1.27996755958008    0.17017392122056
C        -0.77225659298461    0.04346093723422   -0.00601188698164
C         0.72004394581696   -0.46214798220398    0.60046559337459
C        -0.28748841475899    1.32062868758445   -0.17587489470952
C         0.77672887036064    0.37802691696538   -0.58875273290399
5
 energy: -10.243961491358 gnorm: 0.033563101854 xtb: 6.2.2 (9d81278992624c895f80dd42a50cac0aa55982e2)
C        -0.42764017294549   -1.27667240339643    0.17485563372397
C        -0.76932465666164    0.04334746962778   -0.00611517812431
C         0.70929688463763   -0.46771799022040    0.56701773031109
C        -0.27863078290598    1.31638224333258   -0.18027223994077
C         0.76629972787548    0.38466168065647   -0.55548594596998
5
 energy: -10.245466779277 gnorm: 0.027690422164 xtb: 6.2.2 (9d81278992624c895f80dd42a50cac0aa55982e2)
C        -0.42120454397083   -1.26119078368927    0.19054326141477
C        -0.78470244156376    0.04417367034221   -0.00615734654885
C         0.71008194060989   -0.49291350604589    0.54983315877610
C        -0.27371190970087    1.30027705799763   -0.19595979563737
C         0.76953795462557    0.40965456139532   -0.53825927800467
5
 energy: -10.246246871104 gnorm: 0.018214659370 xtb: 6.2.2 (9d81278992624c895f80dd42a50cac0aa55982e2)
C        -0.42382669427199   -1.25596498533470    0.18757658957700
C        -0.79702058814607    0.04499185130919   -0.00647762085059
C         0.71965352073993   -0.48731833869417    0.53635377915420
C        -0.27728715529774    1.29553651121498   -0.19278386937506
C         0.77848191697587    0.40275596150470   -0.52466887850555
5
 energy: -10.246603314900 gnorm: 0.003422501555 xtb: 6.2.2 (9d81278992624c895f80dd42a50cac0aa55982e2)
C        -0.43182970652445   -1.25515993393476    0.19234437250107
C        -0.80578045417795    0.04506395786750   -0.00580496567483
C         0.73157900526822   -0.49638010600015    0.53027527859561
C        -0.28422325766058    1.29518677675297   -0.19855399641483
C         0.79025541309477    0.41129030531443   -0.51826068900702
5
 energy: -10.246607788285 gnorm: 0.002407126240 xtb: 6.2.2 (9d81278992624c895f80dd42a50cac0aa55982e2)
C        -0.42936041368837   -1.25468638917793    0.19403221197249
C        -0.80956408523125    0.04664439081545   -0.00831427693492
C         0.73097266639751   -0.49799066461778    0.52966746500154
C        -0.28504115841578    1.29580762581022   -0.19733905404284
C         0.79299399093790    0.41022603717003   -0.51804634599628
5
 energy: -10.246611233984 gnorm: 0.001977104316 xtb: 6.2.2 (9d81278992624c895f80dd42a50cac0aa55982e2)
C        -0.43049980471600   -1.25528969806370    0.19229203374621
C        -0.81199203367428    0.04520253304368   -0.00548041710034
C         0.73334600279130   -0.49653282592829    0.52990606888160
C        -0.28239250268261    1.29495866358483   -0.19891437977020
C         0.79153933828159    0.41166232736348   -0.51780330575726
5
 energy: -10.246614551067 gnorm: 0.001149567302 xtb: 6.2.2 (9d81278992624c895f80dd42a50cac0aa55982e2)
C        -0.43039650079447   -1.25497034181503    0.19299942130783
C        -0.80856827289537    0.04576282951584   -0.00681672170786
C         0.73153236600865   -0.49700400950554    0.53024732421288
C        -0.28410922025669    1.29538913888880   -0.19804365404927
C         0.79154262793789    0.41082338291592   -0.51838636976358
5
 energy: -10.246616153549 gnorm: 0.000109481281 xtb: 6.2.2 (9d81278992624c895f80dd42a50cac0aa55982e2)
C        -0.43028285391384   -1.25504677914093    0.19284264556507
C        -0.81002212111658    0.04565832772576   -0.00648731759790
C         0.73215059555928   -0.49692722446640    0.53006504822515
C        -0.28354847203952    1.29526630057815   -0.19828076034499
C         0.79170385151066    0.41105037530341   -0.51813961584734
