[Molden Format]
[Title]
[Atoms] AU
C      1     6 -0.27725480929271E+01 -0.15612008105122E+01  0.80650258519217E-01
C      2     6 -0.49009310554067E+00 -0.63180902268116E-01  0.76263759195179E-01
C      3     6  0.19371145269043E+01  0.25054016206446E+00 -0.29825798455352E+00
C      4     6 -0.29650954673387E+01  0.83837598775055E+00  0.80322492177955E+00
C      5     6  0.42906221388956E+01  0.53546556296205E+00 -0.66188284466638E+00
[GTO]
           1 0
 s           4   1.0000000000000000     
   51.049363095579913      -0.16312063210127389     
   8.7911227406887544      -0.19911024581000730     
  0.70640422258929825       0.31882047753655751     
  0.26922813413411617       0.12706504184240380     
 p           4   1.0000000000000000     
   5.8263656140800002       0.73716451545209605     
   1.5106896018720002       0.68216371614850257     
  0.53256483288000001       0.35783053929253711     
  0.21202323690600003        5.3983030275847881E-002

           2 0
 s           4   1.0000000000000000     
   51.049363095579913      -0.16312063210127389     
   8.7911227406887544      -0.19911024581000730     
  0.70640422258929825       0.31882047753655751     
  0.26922813413411617       0.12706504184240380     
 p           4   1.0000000000000000     
   5.8263656140800002       0.73716451545209605     
   1.5106896018720002       0.68216371614850257     
  0.53256483288000001       0.35783053929253711     
  0.21202323690600003        5.3983030275847881E-002

           3 0
 s           4   1.0000000000000000     
   51.049363095579913      -0.16312063210127389     
   8.7911227406887544      -0.19911024581000730     
  0.70640422258929825       0.31882047753655751     
  0.26922813413411617       0.12706504184240380     
 p           4   1.0000000000000000     
   5.8263656140800002       0.73716451545209605     
   1.5106896018720002       0.68216371614850257     
  0.53256483288000001       0.35783053929253711     
  0.21202323690600003        5.3983030275847881E-002

           4 0
 s           4   1.0000000000000000     
   51.049363095579913      -0.16312063210127389     
   8.7911227406887544      -0.19911024581000730     
  0.70640422258929825       0.31882047753655751     
  0.26922813413411617       0.12706504184240380     
 p           4   1.0000000000000000     
   5.8263656140800002       0.73716451545209605     
   1.5106896018720002       0.68216371614850257     
  0.53256483288000001       0.35783053929253711     
  0.21202323690600003        5.3983030275847881E-002

           5 0
 s           4   1.0000000000000000     
   51.049363095579913      -0.16312063210127389     
   8.7911227406887544      -0.19911024581000730     
  0.70640422258929825       0.31882047753655751     
  0.26922813413411617       0.12706504184240380     
 p           4   1.0000000000000000     
   5.8263656140800002       0.73716451545209605     
   1.5106896018720002       0.68216371614850257     
  0.53256483288000001       0.35783053929253711     
  0.21202323690600003        5.3983030275847881E-002

[MO]
Sym=     1a
Ene=  -0.73074794050813174     
Spin= Alpha
Occup=     2.00000000
           1  0.36973861133056846     
           2   8.1422786417241086E-002
           3  0.15636387678875246     
           4   2.9257875583409917E-002
           5  0.37389776133472941     
           6 -0.15331622699396039     
           7  -1.9127447230116033E-002
           8   2.3525386124060507E-002
           9   6.1616481181308670E-002
          10  -6.1100035006037626E-002
          11  -7.8349028934379793E-003
          12   9.4147041283051368E-003
          13  0.36968970495536435     
          14  0.10449533450499822     
          15 -0.13283698970070432     
          16  -5.7802702481223184E-002
          17  -2.6753517757337770E-003
          18  -5.7830292559731353E-003
          19  -7.2994828930179434E-004
          20   8.9144535230137442E-004
Sym=     2a
Ene=  -0.67292643709933875     
Spin= Alpha
Occup=     2.00000000
           1 -0.12031745343187739     
           2   6.4059760368402108E-002
           3  -3.7778422032436365E-002
           4  -2.3004828224416431E-002
           5  0.31790373151697476     
           6  0.27539775524439697     
           7   3.5141860339584906E-002
           8  -4.2479451388225876E-002
           9  0.52234070190401538     
          10  -4.2901568148308096E-002
          11  -6.5697236919265442E-003
          12   6.5955891606291842E-003
          13 -0.12024646503661897     
          14   5.6785943899302110E-002
          15   5.3091832890118131E-002
          16   4.3552585618836489E-003
          17  0.28746549263156151     
          18 -0.12636449086031834     
          19  -1.5558898555812665E-002
          20   1.9506820839436289E-002
Sym=     3a
Ene=  -0.63342595180749517     
Spin= Alpha
Occup=     2.00000000
           1  0.15190380750085192     
           2 -0.11319777169131220     
           3   5.0384634191694033E-002
           4   3.5951669418674961E-002
           5 -0.29656029839355735     
           6 -0.15216270890341413     
           7  -2.0041816071719568E-002
           8   2.3394704493303393E-002
           9  0.11028105556681420     
          10  0.38474974241643056     
          11   4.7771575337649697E-002
          12  -5.9442641656107478E-002
          13  0.15147217837332444     
          14 -0.10310138920798516     
          15  -7.7961883502813578E-002
          16  -2.6584698748891226E-003
          17  0.52043313891622633     
          18  -9.9240361580752959E-002
          19  -1.1854587992053234E-002
          20   1.5318477470667035E-002
Sym=     4a
Ene=  -0.58887432295816688     
Spin= Alpha
Occup=     2.00000000
           1 -0.42798248713457976     
           2 -0.13692765932375381     
           3  0.20263759727357664     
           4   8.3897685360716165E-002
           5  -1.5748152659450028E-003
           6  -3.5399406979429907E-002
           7  0.45269412326231295     
           8  0.13614092520615614     
           9   1.3698937348774365E-003
          10  -1.2803413598046371E-002
          11  0.15664645484995696     
          12   4.7215071119343227E-002
          13  0.42997961431715537     
          14   9.9397365484020464E-002
          15  0.23116565874004302     
          16   4.7246113210645778E-002
          17  -2.2153333161780209E-004
          18  -3.3252484996836298E-003
          19   4.1736226805164638E-002
          20   1.2563346756890264E-002
Sym=     5a
Ene=  -0.55311685402685917     
Spin= Alpha
Occup=     2.00000000
           1  -1.9620411405916775E-003
           2   7.7722828056225338E-002
           3 -0.11214203485198683     
           4  0.38963520924871309     
           5   1.6720444167749478E-003
           6   9.3203328564931631E-002
           7 -0.14416969551755893     
           8  0.50365623399913795     
           9  -1.7975919642795072E-003
          10   4.7551774958186528E-002
          11  -6.9105023944291827E-002
          12  0.24218141092368536     
          13  -1.9298010028113122E-003
          14   7.7517694927374495E-002
          15 -0.11012739860849308     
          16  0.38992572633994527     
          17   1.8472208904901049E-003
          18   1.6603755711047375E-002
          19  -2.4323163643249424E-002
          20   8.5208185092226219E-002
Sym=     6a
Ene=  -0.54905312243801807     
Spin= Alpha
Occup=     2.00000000
           1 -0.22934028678794804     
           2  0.43906929018797436     
           3  -5.8185605059427381E-002
           4 -0.10364306852570510     
           5  0.13987273128269129     
           6 -0.31307907139712182     
           7  -3.6840249113968007E-002
           8   4.4328925579239911E-002
           9 -0.18323325379132283     
          10  0.17517049837488044     
          11   2.3448339875654495E-002
          12  -2.9062193815445572E-002
          13 -0.22570087313342074     
          14  0.42116703591476895     
          15  0.17111384863709361     
          16  -3.4686630275633117E-002
          17  0.22635526264754341     
          18   5.4858549844218861E-002
          19   7.4859913824277804E-003
          20  -9.2034706104875911E-003
Sym=     7a
Ene=  -0.48219482863532620     
Spin= Alpha
Occup=     2.00000000
           1 -0.33506435468222173     
           2  0.15383208253719244     
           3  0.23762930249956238     
           4   3.8750846354720002E-002
           5   8.7065345803869930E-004
           6   2.4590054618232375E-002
           7 -0.29433783108559447     
           8  -8.8816695075552426E-002
           9  -2.9941775473076395E-003
          10   3.8716322515666445E-002
          11 -0.49914984968845633     
          12 -0.15004685871925535     
          13  0.33633456206615708     
          14 -0.18957846773034423     
          15  0.19535068718219395     
          16   9.1813959559581784E-002
          17   1.8006937586099025E-003
          18   2.5791813022515476E-002
          19 -0.32208336476850802     
          20  -9.6972540261575563E-002
Sym=     8a
Ene=  -0.46427041302082372     
Spin= Alpha
Occup=     2.00000000
           1  -4.4099251688646276E-005
           2   6.2669046597109201E-002
           3  -9.4244272627321435E-002
           4  0.32948249752925013     
           5  -3.4765662039827725E-004
           6  -2.5726619504807296E-002
           7   3.8137091213220863E-002
           8 -0.13353245387817037     
           9   1.1717620418471187E-003
          10 -0.10549211607696819     
          11  0.15908611499126435     
          12 -0.55644114364160835     
          13  -3.0298205777327070E-005
          14   6.2680650799488036E-002
          15  -9.4178051797616846E-002
          16  0.32968059868977090     
          17  -1.3361718697136231E-003
          18  -8.3455205646517483E-002
          19  0.12420115229529272     
          20 -0.43469532359503793     
Sym=     9a
Ene=  -0.43396756734192976     
Spin= Alpha
Occup=     1.96375761
           1  -5.7017599460988224E-003
           2 -0.10256315278122896     
           3   2.1469043029736713E-002
           4   2.6421246268849032E-002
           5  0.13692236394423726     
           6  0.14868251955655776     
           7   2.3585029405716874E-002
           8  -2.2151094805240575E-002
           9 -0.20643930579544342     
          10 -0.22156083838251395     
          11  -2.8831068164318404E-002
          12   3.2643740550414906E-002
          13  -1.1192445522096769E-002
          14  -8.9795007207706529E-002
          15  -5.0353562576993492E-002
          16   3.4666391882307661E-003
          17  0.61669224499872377     
          18  0.65466889493664060     
          19   7.7134268189463881E-002
          20 -0.10290034095965730     
Sym=    10a
Ene=  -0.42773412819467505     
Spin= Alpha
Occup=     1.03624239
           1  0.39472878577793008     
           2   2.3700171394950963E-002
           3 -0.57364253983043967     
           4 -0.16845542496617757     
           5   1.0165159717231476E-002
           6   5.8282526370277503E-004
           7  -1.6040070384762573E-003
           8  -6.2624412153010041E-004
           9  -1.1039887233449466E-003
          10  -1.8965765876418659E-002
          11   2.6948302660676041E-004
          12   3.6660731121372090E-003
          13  0.39622907055578344     
          14  -7.0438715558263365E-002
          15  0.56888318575522845     
          16  0.17605476999567218     
          17   3.1678969942919417E-002
          18   3.0354379500622846E-002
          19   6.8267776463844581E-003
          20  -3.7878991710752542E-003
Sym=    11a
Ene=  -0.41126051718676299     
Spin= Alpha
Occup=     1.00000000
           1  0.19119812069271871     
           2 -0.34132741432639679     
           3 -0.19623838498991780     
           4   8.5851280804038876E-003
           5  -2.1728425935790105E-003
           6  -3.3406511123831695E-002
           7  0.39344747073371639     
           8  0.11882996894190083     
           9   2.6881720171256058E-004
          10   2.7466613093593488E-002
          11 -0.32748797084126768     
          12  -9.8834148512426584E-002
          13 -0.18691139262573128     
          14  0.36746756458684504     
          15  -9.9876768942988178E-002
          16  -9.8212973623582250E-002
          17  -4.3691806326898531E-003
          18   3.3649862070414586E-002
          19 -0.52797188939283446     
          20 -0.15732884737353950     
Sym=    12a
Ene=  -0.34317828801305023     
Spin= Alpha
Occup=     0.00000000
           1   3.9526459716822424E-005
           2  -6.0451518054849780E-002
           3   9.0695828227140243E-002
           4 -0.31735379195852614     
           5   8.8140110850931544E-004
           6  0.12103467773185170     
           7 -0.18139550105332120     
           8  0.63464841107010916     
           9  -3.1410943916987866E-004
          10   7.2784121679045199E-003
          11  -1.0581010984252900E-002
          12   3.7074107113869513E-002
          13   3.8619928687317224E-005
          14  -6.1096886728658394E-002
          15   9.1700698998172306E-002
          16 -0.32075440837322211     
          17  -8.7482849797953767E-005
          18 -0.11865789623715442     
          19  0.17941065029063802     
          20 -0.62742066424858756     
Sym=    13a
Ene=  -0.28906557390246768     
Spin= Alpha
Occup=     0.00000000
           1  -3.2631009181821484E-006
           2  0.14331366696292042     
           3 -0.21606513740261971     
           4  0.75572653200151108     
           5  -2.9414902628633288E-006
           6  -2.3967166832438236E-004
           7   3.5446877947935957E-004
           8  -1.2561344770410316E-003
           9   2.7234520312439468E-006
          10  -1.9976273625131128E-004
          11   3.5544059800193486E-004
          12  -9.9704685343837891E-004
          13   3.1013946571779583E-006
          14 -0.14310457228348336     
          15  0.21575831079726054     
          16 -0.75462679033426128     
          17   7.0731865067135629E-007
          18   3.9543353131812079E-004
          19  -7.0709319934161396E-004
          20   1.9976417080752058E-003
Sym=    14a
Ene=  -0.22940559540343200     
Spin= Alpha
Occup=     0.00000000
           1   2.3781063306751050E-002
           2  0.36759488148092900     
           3   1.9780730427084763E-002
           4  -6.4163150079453696E-002
           5  -1.9278405043644546E-003
           6  -7.4555978600744973E-003
           7   7.1829548162917672E-002
           8   2.1965405000786180E-002
           9   4.1435619958269361E-003
          10  -5.2053553572209969E-002
          11  0.64948234347741252     
          12  0.19555570658297741     
          13  -2.3968642085397691E-002
          14 -0.36289507261741588     
          15  -7.2509752677773848E-002
          16   4.8186424958802265E-002
          17   5.0064954832637750E-004
          18   5.6548739791009071E-002
          19 -0.72883185012665441     
          20 -0.21909496594155306     
Sym=    15a
Ene=  -0.15355095599953597     
Spin= Alpha
Occup=     0.00000000
           1   4.9250889191352938E-005
           2   3.0061494899069969E-002
           3  -4.5086768603949799E-002
           4  0.15780864260664934     
           5  -2.2341010732295847E-004
           6 -0.10714512569267778     
           7  0.16157306480748385     
           8 -0.56509129868388797     
           9  -1.1258835025692549E-003
          10  0.15138016000287050     
          11 -0.22757777623849038     
          12  0.79613677165584307     
          13   4.6866491619398228E-005
          14   2.9708313651455331E-002
          15  -4.4627349384591404E-002
          16  0.15603246844176827     
          17   2.6420391057393388E-005
          18 -0.11447227104216912     
          19  0.17200937421040988     
          20 -0.60175687625974028     
Sym=    16a
Ene=   -3.9531097711394316E-003
Spin= Alpha
Occup=     0.00000000
           1  -2.9524035592407585E-002
           2 -0.62635308641398901     
           3  0.20093274743909781     
           4  0.17617349004903618     
           5  -9.1458025865283968E-003
           6   6.5482777494032224E-002
           7 -0.78278589681805966     
           8 -0.23622158246158154     
           9   7.9726793413016760E-003
          10  -3.7533614405992420E-002
          11  0.46046475373386758     
          12  0.13878616464396826     
          13   3.4388242785708255E-002
          14  0.59138748825390397     
          15  0.35163032957161222     
          16  -1.1560276428916744E-002
          17  -1.9723488261280649E-003
          18   2.2784211256310836E-002
          19 -0.23399523631980781     
          20  -7.1229865953412991E-002
Sym=    17a
Ene=    5.0174709844730839E-002
Spin= Alpha
Occup=     0.00000000
           1  0.25082911788879719     
           2  0.44466931213763866     
           3  0.15780916561482131     
           4  -3.9369410721935907E-002
           5  -1.0441518309135860     
           6  0.17589791947565300     
           7   2.8517047103587302E-002
           8  -2.4324234759320076E-002
           9  0.64417312382752001     
          10 -0.23287094569023761     
          11  -3.7854547044140610E-002
          12   3.4327631284700691E-002
          13  0.25108362097074305     
          14  0.44930583585617107     
          15  -5.1721481415255698E-002
          16 -0.10015521785494078     
          17 -0.15115170154208299     
          18  0.36598549917649043     
          19   4.8891179864614671E-002
          20  -5.5777888971226472E-002
Sym=    18a
Ene=   0.46941300613868092     
Spin= Alpha
Occup=     0.00000000
           1 -0.24385421835481547     
           2 -0.32388278997328945     
           3 -0.12193875838207342     
           4   2.6501528184204856E-002
           5  0.22229760037734017     
           6 -0.96317850873998245     
           7 -0.10730933084278572     
           8  0.15210495654380260     
           9   1.0169029508239213     
          10  0.15874243494598500     
          11   8.9663547491438469E-003
          12  -2.5891989989722173E-002
          13 -0.32017446492716928     
          14 -0.35417568888274525     
          15  0.11965741652908578     
          16  0.10131965046864363     
          17 -0.45861521334877581     
          18  0.63902166952004158     
          19   8.0535813354037936E-002
          20  -9.8299394950653970E-002
Sym=    19a
Ene=   0.48156056670322839     
Spin= Alpha
Occup=     0.00000000
           1  0.83680156161999641     
           2   8.1162088674191793E-002
           3  0.89892013977739205     
           4  0.24163012269528389     
           5  -1.2759064301232885E-002
           6   1.9969702647665375E-002
           7  0.30612769236938026     
           8   8.3735830785565277E-002
           9  -4.7801126200091831E-002
          10  -1.8163423865414686E-003
          11 -0.10741895130293642     
          12  -3.0443851903575049E-002
          13 -0.81012175368251560     
          14 -0.18948974387680900     
          15  0.85342752631789320     
          16  0.27992856060556093     
          17   2.2888332148984496E-002
          18  -3.3902337759083578E-002
          19   3.0053817731530510E-002
          20   1.5027128205406068E-002
Sym=    20a
Ene=    1.1304043229431757     
Spin= Alpha
Occup=     0.00000000
           1 -0.16787990075934978     
           2 -0.14305186385215926     
           3  -8.9513845427113409E-002
           4   1.3211343324324282E-003
           5 -0.48677544454971217     
           6 -0.94133345471068042     
           7 -0.12370918833683811     
           8  0.14465793074512640     
           9  -2.8366711066200216E-003
          10  -1.4120555929524916     
          11 -0.17649595424480366     
          12  0.21817151430633508     
          13 -0.16289375981977650     
          14 -0.15089799674341980     
          15   4.9589131912704781E-002
          16   4.2581651332336511E-002
          17  0.75254411280101696     
          18 -0.73472737688869538     
          19  -8.7589953066944282E-002
          20  0.11351682135215216     
