 Entering Gaussian System
 *********************************************
 Gaussian 98:
 frequency output generated by the xtb code
 *********************************************
                         Standard orientation:
 --------------------------------------------------------------------
  Center     Atomic     Atomic              Coordinates (Angstroms)
  Number     Number      Type              X           Y           Z
 --------------------------------------------------------------------
    1          6             0       -1.467169   -0.826152    0.042678
    2          6             0       -0.259346   -0.033434    0.040357
    3          6             0        1.025077    0.132580   -0.157831
    4          6             0       -1.569061    0.443650    0.425048
    5          6             0        2.270500    0.283356   -0.350253
 --------------------------------------------------------------------
     1 basis functions        1 primitive gaussians
     1 alpha electrons        1 beta electrons

 Harmonic frequencies (cm**-1), IR intensities (KM/Mole),
 Raman scattering activities (A**4/amu), Raman depolarization ratios,
 reduced masses (AMU), force constants (mDyne/A) and normal coordinates:
                      1                      2                      3
                        a                      a                      a 
 Frequencies --    66.1266               165.3057               356.6086
 Red. masses --    12.0107                12.0107                12.0107
 Frc consts  --     0.0000                 0.0000                 0.0000
 IR Inten    --     0.4014                 0.3861                 0.0643
 Raman Activ --     0.0000                 0.0000                 0.0000
 Depolar     --     0.0000                 0.0000                 0.0000
 Atom AN      X      Y      Z        X      Y      Z        X      Y      Z
   1   6    -0.24   0.12   0.08    -0.05   0.07  -0.24     0.35  -0.02  -0.07
   2   6     0.02  -0.28  -0.08     0.09  -0.13   0.45    -0.05   0.62   0.19
   3   6     0.05  -0.60  -0.18     0.10  -0.16   0.55     0.04  -0.54  -0.16
   4   6     0.22   0.18   0.01    -0.05   0.07  -0.24    -0.35  -0.11   0.04
   5   6    -0.04   0.57   0.17    -0.10   0.15  -0.52     0.00   0.04   0.01
                      4                      5                      6
                        a                      a                      a 
 Frequencies --   490.1817               710.2822               803.4528
 Red. masses --    12.0107                12.0107                12.0107
 Frc consts  --     0.0000                 0.0000                 0.0000
 IR Inten    --     0.3056                 1.0428                 0.4103
 Raman Activ --     0.0000                 0.0000                 0.0000
 Depolar     --     0.0000                 0.0000                 0.0000
 Atom AN      X      Y      Z        X      Y      Z        X      Y      Z
   1   6     0.03  -0.04   0.14    -0.51   0.09   0.12    -0.50  -0.32   0.00
   2   6    -0.14   0.20  -0.71     0.14   0.01  -0.02    -0.04   0.51   0.15
   3   6     0.11  -0.16   0.57     0.29   0.04  -0.04    -0.00   0.01   0.00
   4   6     0.03  -0.04   0.14    -0.48  -0.22   0.03     0.54  -0.19  -0.16
   5   6    -0.03   0.04  -0.15     0.56   0.07  -0.09     0.00   0.00  -0.00
                      7                      8                      9
                        a                      a                      a 
 Frequencies --  1272.6778              1666.2645              1899.1344
 Red. masses --    12.0107                12.0107                12.0107
 Frc consts  --     0.0000                 0.0000                 0.0000
 IR Inten    --     1.3799                 1.7437                 0.1394
 Raman Activ --     0.0000                 0.0000                 0.0000
 Depolar     --     0.0000                 0.0000                 0.0000
 Atom AN      X      Y      Z        X      Y      Z        X      Y      Z
   1   6    -0.06   0.43   0.13    -0.17  -0.33  -0.06     0.05   0.40   0.10
   2   6     0.63   0.08  -0.10     0.38   0.05  -0.06    -0.46  -0.06   0.07
   3   6    -0.26  -0.04   0.04     0.53   0.06  -0.08     0.58   0.07  -0.09
   4   6     0.01  -0.44  -0.13    -0.21   0.28   0.12     0.11  -0.38  -0.13
   5   6    -0.32  -0.04   0.05    -0.53  -0.06   0.08    -0.28  -0.03   0.04
