5
 energy: -10.065343719178 gnorm: 0.310036694626 xtb: 6.2.2 (9d81278992624c895f80dd42a50cac0aa55982e2)
C        -1.42204100000000   -0.86024900000000    0.13057800000000
C        -0.33377100000000   -0.00653800000000   -0.48640400000000
C         0.98113500000000   -0.30992000000000    0.20139100000000
C        -1.29307000000000    0.59628900000000    0.51945500000000
C         2.06774700000000    0.58041800000000   -0.36502100000000
5
 energy: -10.163312633429 gnorm: 0.208812501699 xtb: 6.2.2 (9d81278992624c895f80dd42a50cac0aa55982e2)
C        -1.44308887147183   -0.82319107221635    0.10895097972917
C        -0.29484557408615   -0.05183182447945   -0.36821762612888
C         1.03172806397311   -0.23973141298864    0.10391438524358
C        -1.32142505640425    0.57879365619439    0.49242148650275
C         2.02763143798912    0.53596065349005   -0.33707022534662
5
 energy: -10.195165503451 gnorm: 0.382090369124 xtb: 6.2.2 (9d81278992624c895f80dd42a50cac0aa55982e2)
C        -1.45729470833508   -0.75216460859505    0.10016270539027
C        -0.25572402041676   -0.10990048507124   -0.20013633749147
C         1.09865288780989   -0.13733039508511   -0.05985871329260
C        -1.40383840450574    0.53228886425989    0.44831063000515
C         2.01820424544768    0.46710662449151   -0.28847928461134
5
 energy: -10.230513891074 gnorm: 0.107413442306 xtb: 6.2.2 (9d81278992624c895f80dd42a50cac0aa55982e2)
C        -1.48063762189232   -0.76307773293880    0.14308059559291
C        -0.30429886711768   -0.14746094260437   -0.15590170262694
C         1.06188044752463   -0.13054243219723   -0.17010687913691
C        -1.45890324152820    0.54029408841389    0.43015933291143
C         2.18195928301357    0.50078701932651   -0.24723234674050
5
 energy: -10.236304466574 gnorm: 0.069388358410 xtb: 6.2.2 (9d81278992624c895f80dd42a50cac0aa55982e2)
C        -1.52697835049821   -0.78447557898455    0.05959715471238
C        -0.24744160135881   -0.12042164278243   -0.06470215914668
C         1.07206445326716   -0.06700207229463   -0.09517165382394
C        -1.51077644021913    0.51565618198684    0.44827303274897
C         2.21313193880899    0.45624311207478   -0.34799737449072
5
 energy: -10.240560251088 gnorm: 0.029434162962 xtb: 6.2.2 (9d81278992624c895f80dd42a50cac0aa55982e2)
C        -1.55115237658628   -0.76585365310654    0.08390058481402
C        -0.23955774968529   -0.15700122842039   -0.02222951918137
C         1.07115298805848   -0.05400089609622   -0.17996693609947
C        -1.49739580299029    0.50896423833178    0.42058510573994
C         2.21695294120338    0.46789153929137   -0.30229023527311
5
 energy: -10.240725556641 gnorm: 0.064416773942 xtb: 6.2.2 (9d81278992624c895f80dd42a50cac0aa55982e2)
C        -1.49958526633270   -0.78564763975062    0.08039988494900
C        -0.25322756777419   -0.12093102656012   -0.01090289144091
C         1.01246185082794    0.01828668786258   -0.18756258244499
C        -1.49681844564777    0.48453814228268    0.42022386451609
C         2.23716942892671    0.40375383616549   -0.30215927557919
5
 energy: -10.242362482583 gnorm: 0.020293142782 xtb: 6.2.2 (9d81278992624c895f80dd42a50cac0aa55982e2)
C        -1.51421320263940   -0.79283436009423    0.07538191012199
C        -0.25594719080842   -0.11883394597969    0.01190947924016
C         1.03974756166012    0.01419711492983   -0.19550923160391
C        -1.52023834904807    0.49241796763516    0.41532658415156
C         2.25065118083577    0.40505322350893   -0.30710974190981
5
 energy: -10.242324508224 gnorm: 0.022013348971 xtb: 6.2.2 (9d81278992624c895f80dd42a50cac0aa55982e2)
C        -1.51748325944815   -0.78910446496128    0.07298018914056
C        -0.24316328488718   -0.12122544266305    0.01442652397187
C         1.04584216852637   -0.01463425677565   -0.18692113446529
C        -1.50152533896999    0.50193261445585    0.40823722415160
C         2.21632971477896    0.42303154994413   -0.30872380279874
5
 energy: -10.242735030621 gnorm: 0.005695153090 xtb: 6.2.2 (9d81278992624c895f80dd42a50cac0aa55982e2)
C        -1.51067222690569   -0.79711829259164    0.06750279752092
C        -0.25072928984005   -0.10613724530643    0.02363104075029
C         1.03937344077148    0.01498645688414   -0.18441356327045
C        -1.51827839049965    0.48985930323821    0.41075836041201
C         2.24030646647391    0.39840977777572   -0.31747963541277
5
 energy: -10.242833782997 gnorm: 0.009239562524 xtb: 6.2.2 (9d81278992624c895f80dd42a50cac0aa55982e2)
C        -1.50379059641500   -0.80395498183987    0.06032341056395
C        -0.25329293293333   -0.08922973015897    0.03426153749860
C         1.03609806047426    0.03481769487876   -0.17667172401652
C        -1.53094881000617    0.48015937667276    0.41089315457475
C         2.25193427888024    0.37820764044732   -0.32880737862077
5
 energy: -10.242898903965 gnorm: 0.006787026755 xtb: 6.2.2 (9d81278992624c895f80dd42a50cac0aa55982e2)
C        -1.49767621351996   -0.80807643647407    0.05665149053790
C        -0.25468294057161   -0.07634619767865    0.04034601042797
C         1.03540941080802    0.04388668149545   -0.17089238436089
C        -1.53698844789709    0.47452507362970    0.40924335341449
C         2.25393819118065    0.36601087902758   -0.33534947001947
5
 energy: -10.242930341774 gnorm: 0.003395230695 xtb: 6.2.2 (9d81278992624c895f80dd42a50cac0aa55982e2)
C        -1.49069745645028   -0.81158773078694    0.05357811068552
C        -0.25461774236523   -0.06381170717617    0.04511585729012
C         1.03537274284410    0.05051770478503   -0.16524158038523
C        -1.54493629336322    0.47010125215405    0.40827038651156
C         2.25487874933464    0.35478048102403   -0.34172377410196
5
 energy: -10.242942886491 gnorm: 0.003084504401 xtb: 6.2.2 (9d81278992624c895f80dd42a50cac0aa55982e2)
C        -1.48948626797036   -0.81267387720265    0.05164724303123
C        -0.25505007029726   -0.06027890345653    0.04539489965715
C         1.03483239666385    0.05695123027998   -0.16214012442270
C        -1.54614317930126    0.46693083512418    0.40928766694745
C         2.25584712090503    0.34907071525503   -0.34419068521313
5
 energy: -10.242964541204 gnorm: 0.003022629579 xtb: 6.2.2 (9d81278992624c895f80dd42a50cac0aa55982e2)
C        -1.48472722882176   -0.81567213808132    0.04809085015040
C        -0.25578445728659   -0.05207652524027    0.04658159524013
C         1.03320420507618    0.07135383951141   -0.15764152312465
C        -1.55268080082915    0.46103772741757    0.41194470887958
C         2.25998828186132    0.33535709639262   -0.34897663114546
5
 energy: -10.243003286034 gnorm: 0.002134786126 xtb: 6.2.2 (9d81278992624c895f80dd42a50cac0aa55982e2)
C        -1.47624935252841   -0.82003323422822    0.04440876648466
C        -0.25745583915868   -0.04209191385212    0.04467437700204
C         1.02976647668390    0.09846189644253   -0.15493873501950
C        -1.56209048010017    0.45214301724941    0.41800226276307
C         2.26602919510337    0.31152023438840   -0.35214767123027
5
 energy: -10.243018786940 gnorm: 0.001657888435 xtb: 6.2.2 (9d81278992624c895f80dd42a50cac0aa55982e2)
C        -1.47108446099911   -0.82318934190606    0.04274975875520
C        -0.25856087788149   -0.03715371722838    0.04263483890251
C         1.02705170045758    0.11821619435930   -0.15569058984551
C        -1.56696008281038    0.44682949323383    0.42236293689867
C         2.26955372123340    0.29529737154131   -0.35205794471087
5
 energy: -10.243016820475 gnorm: 0.003128563552 xtb: 6.2.2 (9d81278992624c895f80dd42a50cac0aa55982e2)
C        -1.46946537118398   -0.82422758268540    0.04415912685068
C        -0.25884567578406   -0.03753454081694    0.03958395505014
C         1.02612958213491    0.12485448957064   -0.15923196969433
C        -1.56617670438617    0.44642974493640    0.42392472768097
C         2.26835816921930    0.29047788899531   -0.34843683988746
5
 energy: -10.243021641814 gnorm: 0.000788534403 xtb: 6.2.2 (9d81278992624c895f80dd42a50cac0aa55982e2)
C        -1.46716522625808   -0.82615972376380    0.04267171952831
C        -0.25934609254296   -0.03343532511396    0.04035608348422
C         1.02507681438034    0.13258579923102   -0.15782753344138
C        -1.56906490165571    0.44364055061641    0.42504366050334
C         2.27049940607641    0.28336869903034   -0.35024493007449
