[Molden Format]
[Title]
[Atoms] AU
C      1     6  0.13321297120567E+01 -0.16889547614024E+01 -0.25783527935878E+00
C      2     6  0.52418203705542E+00  0.80537340327834E+00  0.37340549653932E+00
C      3     6 -0.17903678887094E+01 -0.31897337623798E+00  0.11760734081239E+01
N      4     7 -0.11008286587377E+01 -0.14451252957936E+01 -0.10187837293815E+01
H      5     1  0.10348847983250E+01  0.26476781404296E+01 -0.27285989591958E+00
[GTO]
           1 0
 s           4   1.0000000000000000     
   51.049363095579913      -0.16312063210127389     
   8.7911227406887544      -0.19911024581000730     
  0.70640422258929825       0.31882047753655751     
  0.26922813413411617       0.12706504184240380     
 p           4   1.0000000000000000     
   5.8263656140800002       0.73716451545209605     
   1.5106896018720002       0.68216371614850257     
  0.53256483288000001       0.35783053929253711     
  0.21202323690600003        5.3983030275847881E-002

           2 0
 s           4   1.0000000000000000     
   51.049363095579913      -0.16312063210127389     
   8.7911227406887544      -0.19911024581000730     
  0.70640422258929825       0.31882047753655751     
  0.26922813413411617       0.12706504184240380     
 p           4   1.0000000000000000     
   5.8263656140800002       0.73716451545209605     
   1.5106896018720002       0.68216371614850257     
  0.53256483288000001       0.35783053929253711     
  0.21202323690600003        5.3983030275847881E-002

           3 0
 s           4   1.0000000000000000     
   51.049363095579913      -0.16312063210127389     
   8.7911227406887544      -0.19911024581000730     
  0.70640422258929825       0.31882047753655751     
  0.26922813413411617       0.12706504184240380     
 p           4   1.0000000000000000     
   5.8263656140800002       0.73716451545209605     
   1.5106896018720002       0.68216371614850257     
  0.53256483288000001       0.35783053929253711     
  0.21202323690600003        5.3983030275847881E-002

           4 0
 s           4   1.0000000000000000     
   63.594024466941008      -0.19234388414721629     
   10.951417231523665      -0.23478107924953728     
  0.87999310257376984       0.37593753901700888     
  0.33538715296521110       0.14982889271862770     
 p           4   1.0000000000000000     
   7.2965040481495080       0.97658666315667420     
   1.8918745450712575       0.90372226730345739     
  0.66694432110824120       0.47404958461536373     
  0.26552202674130870        7.1516067715011844E-002

           5 0
 s           3   1.0000000000000000     
   3.3702276975336001       0.27359110588908298     
  0.61389118221497996       0.26460540653860526     
  0.16614291148415999        8.2465947534082318E-002

[MO]
Sym=     1a
Ene=  -0.75364146522891517     
Spin= Alpha
Occup=     2.00000000
           1  0.26838244492462526     
           2 -0.11441559266872195     
           3   7.8268331267939403E-002
           4   9.4235196083927476E-003
           5  0.29180267018139877     
           6  -8.0390842564405027E-002
           7 -0.14374569592715727     
           8  -3.7805937562941962E-002
           9  0.26841945421117680     
          10  0.10376718286068529     
          11  -1.7411714138868020E-002
          12  -9.0752128783212163E-002
          13  0.33504053430993080     
          14  0.12857057881757553     
          15  0.12650377200692381     
          16  0.15928938093049946     
          17   3.5205699063326663E-002
Sym=     2a
Ene=  -0.64915786968611877     
Spin= Alpha
Occup=     2.00000000
           1  0.44098208081760232     
           2  -2.4200103432452151E-002
           3   3.1584935629000312E-002
           4  -9.0177522301315025E-002
           5  -1.1755353565783108E-003
           6  0.25490714635706979     
           7 -0.11198040036832765     
           8 -0.11710389841803207     
           9 -0.44076055127581548     
          10   2.8582518805174588E-002
          11  -3.4594849504457598E-002
          12   8.7558372453636915E-002
          13   1.0622811122323491E-003
          14  0.35576547338476694     
          15 -0.15645226789127503     
          16 -0.16314362238982028     
          17  -5.8934762118987172E-004
Sym=     3a
Ene=  -0.63369902990391369     
Spin= Alpha
Occup=     2.00000000
           1   3.9625708393736775E-002
           2 -0.13481530996327390     
           3 -0.17815897800520419     
           4  -4.5997948478580297E-002
           5 -0.47953977699252526     
           6  -6.7024503398450022E-002
           7 -0.14999532127987356     
           8  -8.7384483027992048E-004
           9   4.1721832309254400E-002
          10  -8.4405625975210105E-002
          11 -0.20030794032879529     
          12  -6.9680983413276193E-002
          13  0.38122485706931858     
          14  -4.5130838381425321E-002
          15 -0.19368919076464003     
          16   8.9558598026543465E-002
          17 -0.29453825590218075     
Sym=     4a
Ene=  -0.58881726814983604     
Spin= Alpha
Occup=     2.00000000
           1 -0.19746091140057856     
           2  -6.0838515625062491E-002
           3   1.9391400018672043E-002
           4 -0.26233057204903626     
           5  -1.9755621942601907E-002
           6  -5.5280419286259326E-002
           7  0.22066858220873117     
           8 -0.33109541086900734     
           9 -0.19726402285906169     
          10 -0.13378996969843115     
          11   5.1327891871083761E-002
          12 -0.22898812221581380     
          13  0.44367340183547294     
          14  -5.3381540444942831E-002
          15  0.17930952615172985     
          16 -0.28709602376686871     
          17  0.18149508025060504     
Sym=     5a
Ene=  -0.54667457396553720     
Spin= Alpha
Occup=     2.00000000
           1  -5.8380347622086812E-002
           2   8.2404948683384882E-002
           3  0.19461433350477716     
           4  -6.9143970458126855E-002
           5 -0.14397415314943415     
           6 -0.20022518910505305     
           7 -0.32387869255738921     
           8 -0.12866870484323992     
           9  -5.8664411324385123E-002
          10   4.0907431144868237E-002
          11  0.21159567239808902     
          12  -5.0873650357169828E-002
          13 -0.20845327382954260     
          14  0.14010324093705698     
          15  0.50020595172218529     
          16 -0.17133278986541595     
          17 -0.37333337288909557     
Sym=     6a
Ene=  -0.52611079704926178     
Spin= Alpha
Occup=     2.00000000
           1   8.5979769552309723E-002
           2  0.25971073511675080     
           3  0.25752990650697544     
           4  0.18499244575258020     
           5   2.2995618020000487E-004
           6  0.38399666572957136     
           7 -0.16768890808794462     
           8 -0.17617260302744067     
           9  -8.6427048790766528E-002
          10 -0.17110588787177913     
          11 -0.29731920713481097     
          12 -0.22534599486096138     
          13   4.6902013125349311E-006
          14 -0.37062482574815242     
          15  0.16194725902271082     
          16  0.17084679296982511     
          17   6.9430504084747621E-004
Sym=     7a
Ene=  -0.46661781015489501     
Spin= Alpha
Occup=     2.00000000
           1 -0.50766002350571382     
           2 -0.38425875467665532     
           3  0.16861075056873237     
           4  0.20081178086150986     
           5   7.6022185836521913E-002
           6   1.0554234956376786E-002
           7  -3.1838085073375925E-002
           8   5.3604695346499719E-002
           9 -0.50702186887436929     
          10  0.40040330642423777     
          11 -0.17490383220635658     
          12 -0.15849024175578924     
          13   1.3532480899898633E-002
          14   8.2133832282003771E-002
          15  -1.3167483686412847E-002
          16  0.19042649867978595     
          17  -2.3748218255759384E-002
Sym=     8a
Ene=  -0.45986252034489777     
Spin= Alpha
Occup=     2.00000000
           1   5.3991802845191554E-002
           2  -9.3573241970869581E-002
           3 -0.16895929759378167     
           4 -0.11166475712470061     
           5 -0.18624103855792687     
           6 -0.13259743012871586     
           7  0.14807259103363404     
           8 -0.42892318881314700     
           9   5.3642484925426379E-002
          10 -0.13874186032285279     
          11 -0.14830915486033849     
          12  -9.1256391991514016E-002
          13 -0.45599359992901378     
          14  0.30932269680034280     
          15  0.13615701181367754     
          16  0.54321501846832954     
          17  0.15072644407364730     
Sym=     9a
Ene=  -0.42946401168596599     
Spin= Alpha
Occup=     2.00000000
           1 -0.38427391618161222     
           2 -0.27981057090566697     
           3  0.42674391823962854     
           4 -0.19861778492536863     
           5  -1.5744624085687939E-004
           6  0.22605991196347403     
           7  -9.8894404069818018E-002
           8 -0.10386301596898874     
           9  0.38491752242368987     
          10 -0.25654080077565683     
          11 -0.19200516139373985     
          12  0.44458966757292157     
          13  -2.7961156381034832E-004
          14  0.17188433998970168     
          15  -7.5000534248929510E-002
          16  -7.8560769112749285E-002
          17   2.3391757101238049E-004
Sym=    10a
Ene=  -0.30684857148653555     
Spin= Alpha
Occup=     0.00000000
           1   6.7459231815523310E-002
           2  -5.6349679067766459E-002
           3 -0.32356779490742599     
           4  0.50746772148642028     
           5 -0.16138749359899371     
           6  -5.7050341565587213E-002
           7   5.6731050527565906E-002
           8 -0.17830736926013549     
           9   6.7427789343635622E-002
          10  0.15322255340162708     
          11 -0.41479203424294303     
          12  0.41075890436219831     
          13  0.11473977066724712     
          14   4.8250144016572662E-002
          15  0.49644782032561774     
          16 -0.36958625011087337     
          17  0.19846704268462173     
Sym=    11a
Ene=  -0.30631013537963225     
Spin= Alpha
Occup=     0.00000000
           1   8.3090507631468304E-004
           2 -0.40645525814459077     
           3  -5.2925147966567672E-002
           4  0.63175786187868499     
           5   2.1076762966480863E-004
           6  0.13273652733726812     
           7  -5.8415153266791718E-002
           8  -6.1171435573845336E-002
           9  -8.4952200902718310E-004
          10 -0.55306689571918988     
          11  0.47482563091219659     
          12 -0.19127043420997533     
          13   3.3109242001599882E-005
          14  0.13970515650096077     
          15  -6.2059074659417630E-002
          16  -6.4222187256785454E-002
          17  -3.3642266275463921E-004
Sym=    12a
Ene=  -0.25552166640859297     
Spin= Alpha
Occup=     0.00000000
           1   1.9134715970712528E-003
           2  0.13959894431725195     
           3  0.17425884493579663     
           4  0.25440053693081588     
           5   4.2435082560957758E-002
           6 -0.40247918047715064     
           7 -0.16345247125885295     
           8 -0.72068874947390305     
           9   2.1246429765573987E-003
          10  0.21660208321908014     
          11  0.13993497851421230     
          12  0.21991309001373865     
          13  -2.4836396414989217E-002
          14 -0.27646707866456083     
          15 -0.57298660877244745     
          16  -5.5190143764555888E-002
          17  -7.3235911135227363E-003
Sym=    13a
Ene=    3.8252629184075737E-002
Spin= Alpha
Occup=     0.00000000
           1  -1.8442902660056642E-002
           2 -0.29772316541278948     
           3 -0.44626840263233869     
           4 -0.17510652231738383     
           5  0.95418853099763812     
           6  -7.4666847326115851E-002
           7  -6.6181164431752842E-002
           8 -0.15886710182537564     
           9  -1.2002065753778546E-002
          10 -0.24514750981473218     
          11 -0.43128934058319385     
          12 -0.17574048569010103     
          13 -0.47849957510499908     
          14 -0.21889590084950605     
          15  -8.8327621545342322E-002
          16 -0.35459960988434491     
          17 -0.56519944652859344     
Sym=    14a
Ene=    4.6091542228458557E-002
Spin= Alpha
Occup=     0.00000000
           1  -7.7861732091313862E-002
           2 -0.34212750838407124     
           3 -0.51814008964432534     
           4 -0.28693889875228135     
           5  -2.5907892379345501E-002
           6  0.67223735997671530     
           7 -0.29226475356610382     
           8 -0.30352992221683012     
           9   7.8000890720076738E-002
          10  0.37911201194450000     
          11  0.53270535785819395     
          12  0.28722679377113103     
          13   1.3922026498159363E-002
          14 -0.49215665528551489     
          15  0.22125742558343056     
          16  0.23936460082686659     
          17   1.5344438211880187E-002
Sym=    15a
Ene=   0.18809913739287062     
Spin= Alpha
Occup=     0.00000000
           1  0.18702331360661767     
           2 -0.39652542000205743     
           3   3.4925081400720606E-002
           4 -0.19855461634085089     
           5 -0.49422469643157180     
           6 -0.18020148122670460     
           7 -0.64032596413934439     
           8  0.21153876316644032     
           9  0.19141252841954090     
          10   6.3565155966965214E-002
          11 -0.16466674730121947     
          12 -0.41178684871278903     
          13 -0.62018861795397784     
          14 -0.27421102809935471     
          15 -0.14959492883417988     
          16 -0.46022067388853638     
          17  0.85822366774971459     
Sym=    16a
Ene=   0.24341625202988076     
Spin= Alpha
Occup=     0.00000000
           1  0.62075288201694068     
           2 -0.51602677113557038     
           3  0.35588237380731708     
           4 -0.13811711095717663     
           5   1.6610341508411667E-004
           6 -0.49263734783696755     
           7  0.21392130915837160     
           8  0.22614737966043771     
           9 -0.61856372793536563     
          10 -0.35122890164627801     
          11   2.1538329824755072E-002
          12  0.53201913385973798     
          13  -3.8737900885657691E-003
          14 -0.64999707058698442     
          15  0.28356136149718930     
          16  0.29480774581883273     
          17   1.4346617273818748E-003
Sym=    17a
Ene=   0.51573263175459017     
Spin= Alpha
Occup=     0.00000000
           1 -0.55435109587376974     
           2  0.43815315811689953     
           3 -0.44914845478167925     
           4  -9.4452580335719655E-002
           5  0.38328184439481472     
           6 -0.34396800209900419     
           7 -0.96266074753821052     
           8  0.17359101736152005     
           9 -0.55601811182716887     
          10 -0.53056444015979209     
          11  -2.5964164818139481E-002
          12  0.35004999459283476     
          13  0.39506136250090390     
          14  0.16726680507938060     
          15   3.3667533267232666E-002
          16  0.33232125724574063     
          17  0.57298937227380375     
