5
 energy: -9.433746399082 gnorm: 0.239864771408 xtb: 6.2.2 (9d81278992624c895f80dd42a50cac0aa55982e2)
C         1.29755300000000   -0.89261300000000    0.12033000000000
C         0.21665800000000    0.16361800000000    0.02956700000000
C        -1.00247500000000   -0.16504800000000    0.75174200000000
N        -0.94884500000000   -0.33427200000000   -0.71076000000000
H         0.43710900000000    1.22831400000000   -0.19087900000000
5
 energy: -9.489663434254 gnorm: 0.156520522822 xtb: 6.2.2 (9d81278992624c895f80dd42a50cac0aa55982e2)
C         1.20855086984554   -0.84119733758754    0.10474190039086
C         0.25688525745068    0.18236065660475   -0.00027283753425
C        -1.01289817103762   -0.19114097063859    0.69236622249905
N        -0.94617167844803   -0.39099227537326   -0.63233951170256
H         0.49363372218943    1.24096892699463   -0.16449577365310
5
 energy: -9.488281446733 gnorm: 0.327274456846 xtb: 6.2.2 (9d81278992624c895f80dd42a50cac0aa55982e2)
C         1.09836604808898   -0.79199544047193    0.09533070837624
C         0.34461023348962    0.20639171566346   -0.01283328180142
C        -1.03709313805656   -0.25537106984905    0.60523856241643
N        -0.93878498655972   -0.41477452887257   -0.51567076432149
H         0.53290184303767    1.25574832353010   -0.17206522466976
5
 energy: -9.512720115063 gnorm: 0.045379421772 xtb: 6.2.2 (9d81278992624c895f80dd42a50cac0aa55982e2)
C         1.11227405030345   -0.83257686737834    0.08997875098692
C         0.31718941362292    0.22368888794612   -0.01397798352071
C        -1.03136757354296   -0.23301062726270    0.66676125792939
N        -0.91883894571494   -0.43748289525053   -0.57788837917326
H         0.52074305533154    1.27938050194544   -0.16487364622233
5
 energy: -9.518813285204 gnorm: 0.040584951082 xtb: 6.2.2 (9d81278992624c895f80dd42a50cac0aa55982e2)
C         1.04773431055337   -0.86548516206194    0.08132426971718
C         0.34056839856259    0.26169281774580   -0.02109410597575
C        -1.01875003484936   -0.24529702435010    0.66660924427862
N        -0.87928457347260   -0.47472158136856   -0.56494245884850
H         0.50973189920599    1.32380995003480   -0.16189694917155
5
 energy: -9.525436638915 gnorm: 0.161150401788 xtb: 6.2.2 (9d81278992624c895f80dd42a50cac0aa55982e2)
C         0.74093785821461   -0.98468213120235    0.03286043180696
C         0.44435735361518    0.43191826093543   -0.04295716079944
C        -0.96712509560210   -0.30387867895690    0.67144051100797
N        -0.69147700055551   -0.64106689634535   -0.50885322819820
H         0.47330688432782    1.49770844556917   -0.15249055381729
5
 energy: -9.541746350732 gnorm: 0.103867564201 xtb: 6.2.2 (9d81278992624c895f80dd42a50cac0aa55982e2)
C         0.80343457290868   -0.93687755900954   -0.01857192197953
C         0.43242103923203    0.38782202877589   -0.01976961308731
C        -1.02947116299996   -0.22607618363096    0.65536019417480
N        -0.70247607156489   -0.67379830283218   -0.50162725564477
H         0.49609162242414    1.44892901669679   -0.11539140346319
5
 energy: -9.542152144542 gnorm: 0.137949540775 xtb: 6.2.2 (9d81278992624c895f80dd42a50cac0aa55982e2)
C         0.73477870282379   -0.93036993829037   -0.13960799931152
C         0.45790009993977    0.40620633324985    0.02920170758416
C        -1.09096354306788   -0.11814649738751    0.61639864639825
N        -0.60710341549563   -0.82457318252977   -0.45512940224157
H         0.50538815579996    1.46688228495780   -0.05086295242932
5
 energy: -9.555260943077 gnorm: 0.086041702022 xtb: 6.2.2 (9d81278992624c895f80dd42a50cac0aa55982e2)
C         0.77611645557085   -0.88676475599235   -0.09085412118360
C         0.42265755308657    0.36402650563691    0.02990430709893
C        -1.04110980205989   -0.14383690167818    0.60028139644665
N        -0.67498972317466   -0.75434013786285   -0.47128026917918
H         0.51732551657713    1.42091428989646   -0.06805131318279
5
 energy: -9.562911593713 gnorm: 0.074732427967 xtb: 6.2.2 (9d81278992624c895f80dd42a50cac0aa55982e2)
C         0.77784688379376   -0.93255655366720   -0.09084628626798
C         0.39382702983283    0.37966434288564    0.08160453553546
C        -1.00309641049452   -0.14826280706770    0.58876894509221
N        -0.66040175237897   -0.74549529052171   -0.48372559450414
H         0.49182424924690    1.44664930837097   -0.09580159985555
5
 energy: -9.570493891628 gnorm: 0.076938946105 xtb: 6.2.2 (9d81278992624c895f80dd42a50cac0aa55982e2)
C         0.73507306046816   -0.93833322769086   -0.11989939934947
C         0.35910774046333    0.39917087612444    0.13736202792546
C        -0.95316965634883   -0.12274263160726    0.55349314468560
N        -0.63361372189739   -0.79042475962652   -0.48277172845354
H         0.49260257731473    1.45232874280019   -0.08818404480806
5
 energy: -9.572450704160 gnorm: 0.061350687711 xtb: 6.2.2 (9d81278992624c895f80dd42a50cac0aa55982e2)
C         0.70371701901889   -0.93113234852048   -0.13575441556362
C         0.34948593523296    0.41975471691330    0.14968103565142
C        -0.94785581304376   -0.12314487327528    0.55507580624202
N        -0.61426830638281   -0.81703307708972   -0.48400461276668
H         0.50892116517472    1.45155458197217   -0.08499781356314
5
 energy: -9.574528774155 gnorm: 0.040967933367 xtb: 6.2.2 (9d81278992624c895f80dd42a50cac0aa55982e2)
C         0.71001666990840   -0.92163576659142   -0.14156588224457
C         0.32689622062531    0.42195043541964    0.16014674203225
C        -0.94843664545655   -0.12118646574284    0.56540519548628
N        -0.61341147026750   -0.82085179860881   -0.49711138163565
H         0.52493522519034    1.44172259552344   -0.08687467363831
5
 energy: -9.578052020317 gnorm: 0.018590735536 xtb: 6.2.2 (9d81278992624c895f80dd42a50cac0aa55982e2)
C         0.70493302399868   -0.89045038338234   -0.13985363593106
C         0.27704916754893    0.43681351026082    0.19095500913763
C        -0.95607220058911   -0.17067839531531    0.61518902646348
N        -0.59530189161834   -0.78577908486673   -0.53160279149734
H         0.56939190065983    1.41009335330357   -0.13468760817272
5
 energy: -9.578360525618 gnorm: 0.008043751719 xtb: 6.2.2 (9d81278992624c895f80dd42a50cac0aa55982e2)
C         0.70332747155749   -0.88907974997884   -0.13870391515362
C         0.26660770263704    0.43255727315171    0.19960703096951
C        -0.94680430620436   -0.17196599399789    0.62090335380835
N        -0.58572560919625   -0.77327773003873   -0.53889053249308
H         0.56259474120608    1.40176520086375   -0.14291593713117
5
 energy: -9.578441456728 gnorm: 0.002895940367 xtb: 6.2.2 (9d81278992624c895f80dd42a50cac0aa55982e2)
C         0.70560149931952   -0.88972666287436   -0.13618697187387
C         0.27245231603153    0.42785029040563    0.19463740425693
C        -0.94878363545206   -0.17083717417495    0.62404842933903
N        -0.58299623213714   -0.76504604025549   -0.53887448827474
H         0.55372605223815    1.39775858689917   -0.14362437344734
5
 energy: -9.578454609990 gnorm: 0.001904583322 xtb: 6.2.2 (9d81278992624c895f80dd42a50cac0aa55982e2)
C         0.70552711364647   -0.89201319029846   -0.13685831141908
C         0.27443323127283    0.42692369641617    0.19596858730563
C        -0.94863528135351   -0.16926689530751    0.62253147428097
N        -0.58234467386754   -0.76565758711732   -0.53808223309307
H         0.55101961030175    1.40001297630712   -0.14355951707446
5
 energy: -9.578459066171 gnorm: 0.001511843628 xtb: 6.2.2 (9d81278992624c895f80dd42a50cac0aa55982e2)
C         0.70515472041310   -0.89400157546657   -0.13628490061300
C         0.27675043162447    0.42618507909066    0.19624908155220
C        -0.94733673083571   -0.16845689421908    0.62195756674480
N        -0.58263211335804   -0.76542426960553   -0.53845068686811
H         0.54806369215619    1.40169666020051   -0.14347106081589
5
 energy: -9.578461325651 gnorm: 0.000707647251 xtb: 6.2.2 (9d81278992624c895f80dd42a50cac0aa55982e2)
C         0.70493790694208   -0.89375252374059   -0.13643966585837
C         0.27738229285767    0.42618639832807    0.19759940961157
C        -0.94742326233585   -0.16879950414001    0.62234770193281
N        -0.58252760737123   -0.76472955357078   -0.53912055056062
H         0.54763066990733    1.40109418312331   -0.14438689512539
