      -----------------------------------------------------------      
     |                   =====================                   |     
     |                           x T B                           |     
     |                   =====================                   |     
     |                         S. Grimme                         |     
     |          Mulliken Center for Theoretical Chemistry        |     
     |                    University of Bonn                     |     
      -----------------------------------------------------------      

   * xtb version 6.2.2 (9d81278992624c895f80dd42a50cac0aa55982e2) compiled by '@Darwin' on 04/03/2020

   xtb is free software: you can redistribute it and/or modify it under
   the terms of the GNU Lesser General Public License as published by
   the Free Software Foundation, either version 3 of the License, or
   (at your option) any later version.
   
   xtb is distributed in the hope that it will be useful,
   but WITHOUT ANY WARRANTY; without even the implied warranty of
   MERCHANTABILITY or FITNESS FOR A PARTICULAR PURPOSE.  See the
   GNU Lesser General Public License for more details.
   
   Cite this work as:
   * S. Grimme, C. Bannwarth, P. Shushkov, J. Chem. Theory Comput., 2017,
     13, 1989-2009. DOI: 10.1021/acs.jctc.7b00118
   * C. Bannwarth, S. Ehlert and S. Grimme., J. Chem. Theory Comput., 2019,
     15, 1652-1671. DOI: 10.1021/acs.jctc.8b01176
   * P. Pracht, E. Caldeweyher, S. Ehlert, S. Grimme, ChemRxiv, 2019, preprint.
     DOI: 10.26434/chemrxiv.8326202.v1
   
   for DFT-D4:
   * E. Caldeweyher, C. Bannwarth and S. Grimme, J. Chem. Phys., 2017,
     147, 034112. DOI: 10.1063/1.4993215
   * E. Caldeweyher, S. Ehlert, A. Hansen, H. Neugebauer, S. Spicher,
     C. Bannwarth and S. Grimme, J. Chem. Phys., 2019, 150, 154122.
     DOI: 10.1063/1.5090222
   
   for sTDA-xTB:
   * S. Grimme and C. Bannwarth, J. Chem. Phys., 2016, 145, 054103.
     DOI: 10.1063/1.4959605
   
   in the mass-spec context:
   * V. Asgeirsson, C. Bauer and S. Grimme, Chem. Sci., 2017, 8, 4879.
     DOI: 10.1039/c7sc00601b
   
   for metadynamics refer to:
   * S. Grimme, J. Chem. Theory Comput., 2019, 155, 2847-2862
     DOI: 10.1021/acs.jctc.9b00143
   
   with help from (in alphabetical order)
   C. Bannwarth, F. Bohle, G. Brandenburg, E. Caldeweyher, M. Checinski,
   S. Dohm, S. Ehlert, S. Ehrlich, F. März, H. Neugebauer, J. Pisarek,
   P. Pracht, P. Shushkov, and S. Spicher.
   
 * started run on 2020/05/12 at 14:38:40.203     

           -------------------------------------------------
          |                Calculation Setup                |
           -------------------------------------------------

          program call               : xtb --input C4_3_S_0.input C4_3_S_0.xyz --ohess --molden --namespace C4_3_S_0 output.out
          calculation namespace      : C4_3_S_0
          coordinate file            : C4_3_S_0.xyz
          number of atoms            :                     4
          number of electrons        :                    16
          charge                     :                     0
          spin                       :                   0.0
          first test random number   :      0.15839833776490

   ID    Z sym.   atoms
    1    6 C      1-4

           -------------------------------------------------
          |                 G F N 2 - x T B                 |
           -------------------------------------------------

        Reference                      10.1021/acs.jctc.8b01176
      * Hamiltonian:
        H0-scaling (s, p, d)           1.850000    2.230000    2.230000
        zeta-weighting                 0.500000
      * Dispersion:
        s8                             2.700000
        a1                             0.520000
        a2                             5.000000
        s9                             5.000000
      * Repulsion:
        kExp                           1.500000    1.000000
        rExp                           1.000000
      * Coulomb:
        alpha                          2.000000
        third order                    shell-resolved
        anisotropic                    true
        a3                             3.000000
        a5                             4.000000
        cn-shift                       1.200000
        cn-exp                         4.000000
        max-rad                        5.000000


          ...................................................
          :                      SETUP                      :
          :.................................................:
          :  # basis functions                  16          :
          :  # atomic orbitals                  16          :
          :  # shells                            8          :
          :  # electrons                        16          :
          :  max. iterations                   250          :
          :  Hamiltonian                  GFN2-xTB          :
          :  restarted?                      false          :
          :  GBSA solvation                  false          :
          :  PC potential                    false          :
          :  electronic temp.          300.0000000     K    :
          :  accuracy                    1.0000000          :
          :  -> integral cutoff          0.2500000E+02      :
          :  -> integral neglect         0.1000000E-07      :
          :  -> SCF convergence          0.1000000E-05 Eh   :
          :  -> wf. convergence          0.1000000E-03 e    :
          :  Broyden damping             0.4000000          :
          ...................................................

 iter      E             dE          RMSdq      gap      omega  full diag
   1     -8.1150280 -0.811503E+01  0.130E+01    0.00       0.0  T
   2     -8.1165932 -0.156518E-02  0.693E+00    0.00       1.0  T
   3     -8.1159631  0.630083E-03  0.160E+00    0.01       1.0  T
   4     -7.9509354  0.165028E+00  0.739E+00    0.04       1.0  T
   5     -8.0539947 -0.103059E+00  0.472E+00    0.06       1.0  T
   6     -8.1055282 -0.515335E-01  0.294E+00    0.03       1.0  T
   7     -8.1175884 -0.120602E-01  0.664E-01    0.00       1.0  T
   8     -8.1178560 -0.267587E-03  0.968E-01    0.00       1.0  T
   9     -8.1164540  0.140195E-02  0.815E-01    0.01       1.0  T
  10     -8.1178023 -0.134825E-02  0.228E-01    0.00       1.0  T
  11     -8.1178796 -0.772853E-04  0.157E-01    0.00       1.0  T
  12     -8.1179284 -0.487828E-04  0.871E-02    0.00       1.0  T
  13     -8.1179324 -0.404038E-05  0.415E-02    0.00       1.2  T
  14     -8.1179316  0.796883E-06  0.405E-02    0.00       1.2  T
  15     -8.1179314  0.244940E-06  0.388E-02    0.00       1.3  T
  16     -8.1179324 -0.103045E-05  0.296E-02    0.00       1.7  T
  17     -8.1179338 -0.143672E-05  0.107E-02    0.00       4.7  T
  18     -8.1179340 -0.188503E-06  0.193E-03    0.00      25.8  T
  19     -8.1179340 -0.228125E-08  0.268E-04    0.00     186.5  T
  20     -8.1179340 -0.142885E-09  0.122E-04    0.00     410.7  T

   *** convergence criteria satisfied after 20 iterations ***

         #    Occupation            Energy/Eh            Energy/eV
      -------------------------------------------------------------
         1        2.0000           -0.7221279             -19.6501
         2        2.0000           -0.6283862             -17.0993
         3        2.0000           -0.6283853             -17.0992
         4        2.0000           -0.5409650             -14.7204
         5        2.0000           -0.5284018             -14.3785
         6        2.0000           -0.5071072             -13.7991
         7        2.0000           -0.4738126             -12.8931
         8        0.7549           -0.3985032             -10.8438 (HOMO)
         9        0.7547           -0.3985028             -10.8438 (LUMO)
        10        0.2452           -0.3971089             -10.8059
        11        0.2451           -0.3971086             -10.8059
        12                         -0.2551802              -6.9438
        13                         -0.0091378              -0.2487
       ...                                ...                  ...
        16                          0.2682540               7.2996
      -------------------------------------------------------------
                  HL-Gap            0.0000004 Eh            0.0000 eV
             Fermi-level           -0.3989786 Eh          -10.8568 eV

 SCC (total)                   0 d,  0 h,  0 min,  0.003 sec
 SCC setup                      ...        0 min,  0.000 sec (  2.212%)
 Dispersion                     ...        0 min,  0.000 sec (  0.401%)
 integral evaluation            ...        0 min,  0.001 sec ( 23.916%)
 zeroth order Hamiltonian       ...        0 min,  0.000 sec (  0.408%)
 iterations                     ...        0 min,  0.001 sec ( 42.592%)
 molecular gradient             ...        0 min,  0.001 sec ( 28.266%)
 printout                       ...        0 min,  0.000 sec (  1.930%)

         :::::::::::::::::::::::::::::::::::::::::::::::::::::
         ::                     SUMMARY                     ::
         :::::::::::::::::::::::::::::::::::::::::::::::::::::
         :: total energy              -8.057853318833 Eh    ::
         :: gradient norm              0.158858029239 Eh/a0 ::
         :: HOMO-LUMO gap              0.000012114296 eV    ::
         ::.................................................::
         :: SCC energy                -8.117934011042 Eh    ::
         :: -> isotropic ES           -0.015664111500 Eh    ::
         :: -> anisotropic ES          0.000194006096 Eh    ::
         :: -> anisotropic XC          0.006793829094 Eh    ::
         :: -> dispersion             -0.001859399271 Eh    ::
         :: repulsion energy           0.060080681790 Eh    ::
         :: add. restraining           0.000000000000 Eh    ::
         :::::::::::::::::::::::::::::::::::::::::::::::::::::

      ----------------------------------------------------------- 
     |                   =====================                   |
     |                        A N C O P T                        |
     |                   =====================                   |
     |               Approximate Normal Coordinate               |
     |                Rational Function Optimizer                |
      ----------------------------------------------------------- 

          ...................................................
          :                      SETUP                      :
          :.................................................:
          :   optimization level            normal          :
          :   max. optcycles                   200          :
          :   ANC micro-cycles                  20          :
          :   degrees of freedom                 6          :
          :.................................................:
          :   RF solver                   davidson          :
          :   write xtbopt.log                true          :
          :   linear?                        false          :
          :   energy convergence         0.5000000E-05 Eh   :
          :   grad. convergence          0.1000000E-02 Eh/α :
          :   maximium RF displ.         1.0000000          :
          :   Hlow (freq-cutoff)         0.1000000E-01      :
          :   Hmax (freq-cutoff)         5.0000000          :
          :   S6 in model hess.         20.0000000          :
          ...................................................

generating ANC from model Hessian ...
Using Lindh-Hessian (1995)
 Shifting diagonal of input Hessian by    0.0000000000000000     
 Lowest  eigenvalues of input Hessian
   -0.000000   -0.000000    0.000000    0.000000    0.000000    0.000000
    0.018590    0.221528    0.818513    0.883693    0.883697    0.895836
 Highest eigenvalues
    0.018590    0.221528    0.818513    0.883693    0.883697    0.895836


........................................................................
.............................. CYCLE    1 ..............................
........................................................................
   1     -8.1179340 -0.811793E+01  0.156E-05    0.00       0.0  T
   2     -8.1179340  0.355326E-09  0.280E-04    0.00     178.4  T
   3     -8.1179340 -0.346477E-09  0.469E-05    0.00    1066.5  T
     SCC iter.                  ...        0 min,  0.000 sec
     gradient                   ...        0 min,  0.001 sec
 * total energy  :    -8.0578533 Eh     change       -0.3707612E-10 Eh
   gradient norm :     0.1588579 Eh/α   predicted     0.0000000E+00 (-100.00%)
   displ. norm   :     0.1720787 α      lambda       -0.2733601E-01
   maximum displ.:     0.1720783 α      in ANC's #6, #1, #2, ...

........................................................................
.............................. CYCLE    2 ..............................
........................................................................
   1     -8.1725244 -0.817252E+01  0.564E+00    0.00       0.0  T
   2     -8.1728454 -0.320940E-03  0.302E+00    0.00       1.0  T
   3     -8.0664177  0.106428E+00  0.612E+00    0.06       1.0  T
   4     -8.1718439 -0.105426E+00  0.124E+00    0.01       1.0  T
   5     -8.1731542 -0.131035E-02  0.171E-01    0.00       1.0  T
   6     -8.1731052  0.490105E-04  0.684E-01    0.00       1.0  T
   7     -8.1730435  0.617212E-04  0.368E-01    0.00       1.0  T
   8     -8.1730061  0.373750E-04  0.374E-01    0.00       1.0  T
   9     -8.1730038  0.234083E-05  0.350E-01    0.00       1.0  T
  10     -8.1731425 -0.138719E-03  0.121E-01    0.00       1.0  T
  11     -8.1731574 -0.149185E-04  0.102E-01    0.00       1.0  T
  12     -8.1731676 -0.101804E-04  0.473E-02    0.00       1.1  T
  13     -8.1731687 -0.111529E-05  0.188E-02    0.00       2.7  T
  14     -8.1731688 -0.484183E-07  0.223E-03    0.00      22.4  T
  15     -8.1731688 -0.215019E-09  0.707E-04    0.00      70.7  T
  16     -8.1731688 -0.109286E-08  0.681E-05    0.00     734.7  T
     SCC iter.                  ...        0 min,  0.001 sec
     gradient                   ...        0 min,  0.001 sec
 * total energy  :    -8.0811587 Eh     change       -0.2330538E-01 Eh
   gradient norm :     0.1080395 Eh/α   predicted    -0.1407273E-01 ( -39.62%)
   displ. norm   :     0.3378103 α      lambda       -0.3559728E-01
   maximum displ.:     0.3284272 α      in ANC's #6, #1, #2, ...

........................................................................
.............................. CYCLE    3 ..............................
........................................................................
   1     -8.2800365 -0.828004E+01  0.182E+00    0.00       0.0  T
   2     -8.2553229  0.247136E-01  0.365E+00    0.05       1.0  T
   3     -8.1936718  0.616511E-01  0.657E+00    0.12       1.0  T
   4     -8.2794541 -0.857823E-01  0.619E-01    0.01       1.0  T
   5     -8.2799932 -0.539094E-03  0.314E-01    0.00       1.0  T
   6     -8.2801686 -0.175417E-03  0.752E-02    0.00       1.0  T
   7     -8.2801749 -0.633066E-05  0.481E-02    0.00       1.0  T
   8     -8.2801779 -0.301179E-05  0.296E-02    0.00       1.7  T
   9     -8.2801796 -0.169583E-05  0.194E-03    0.00      25.8  T
  10     -8.2801796 -0.630068E-08  0.562E-04    0.00      88.9  T
  11     -8.2801796 -0.100922E-08  0.209E-04    0.00     239.0  T
     SCC iter.                  ...        0 min,  0.001 sec
     gradient                   ...        0 min,  0.001 sec
 * total energy  :    -8.0768682 Eh     change        0.4290522E-02 Eh
   gradient norm :     0.2139223 Eh/α   predicted    -0.1982974E-01 (-562.18%)
   displ. norm   :     0.3801839 α      lambda       -0.4843364E-01
   maximum displ.:     0.3591997 α      in ANC's #1, #6, #3, ...

........................................................................
.............................. CYCLE    4 ..............................
........................................................................
   1     -8.2517678 -0.825177E+01  0.317E+00    0.00       0.0  T
   2     -8.2516245  0.143213E-03  0.187E+00    0.01       1.0  T
   3     -8.1435249  0.108100E+00  0.662E+00    0.21       1.0  T
   4     -8.2517270 -0.108202E+00  0.285E-01    0.01       1.0  T
   5     -8.2518819 -0.154873E-03  0.619E-02    0.00       1.0  T
   6     -8.2518618  0.201157E-04  0.995E-02    0.00       1.0  T
   7     -8.2518830 -0.212510E-04  0.240E-02    0.00       2.1  T
   8     -8.2518837 -0.727338E-06  0.167E-02    0.00       3.0  T
   9     -8.2518842 -0.491317E-06  0.768E-03    0.00       6.5  T
  10     -8.2518843 -0.107485E-06  0.320E-03    0.00      15.6  T
  11     -8.2518843 -0.155269E-07  0.183E-03    0.00      27.4  T
  12     -8.2518844 -0.745747E-08  0.161E-04    0.00     310.7  T
  13     -8.2518844 -0.495426E-10  0.602E-05    0.00     830.9  T
     SCC iter.                  ...        0 min,  0.001 sec
     gradient                   ...        0 min,  0.001 sec
 * total energy  :    -8.1182547 Eh     change       -0.4138654E-01 Eh
   gradient norm :     0.0509647 Eh/α   predicted    -0.2771712E-01 ( -33.03%)
   displ. norm   :     0.9047270 α      lambda       -0.4326251E-01
   maximum displ.:     0.9035690 α      in ANC's #1, #6, #3, ...

........................................................................
.............................. CYCLE    5 ..............................
........................................................................
   1     -8.1231393 -0.812314E+01  0.468E+00    0.01       0.0  T
   2     -8.1219392  0.120010E-02  0.283E+00    0.02       1.0  T
   3     -7.9761924  0.145747E+00  0.710E+00    0.39       1.0  T
   4     -8.1222490 -0.146057E+00  0.637E-01    0.02       1.0  T
   5     -8.1203975  0.185147E-02  0.129E+00    0.02       1.0  T
   6     -8.1200848  0.312726E-03  0.137E+00    0.03       1.0  T
   7     -8.0861073  0.339774E-01  0.456E+00    0.08       1.0  T
   8     -8.1234322 -0.373249E-01  0.363E-02    0.01       1.4  T
   9     -8.1234013  0.309341E-04  0.125E-01    0.01       1.0  T
  10     -8.1234234 -0.221000E-04  0.774E-02    0.01       1.0  T
  11     -8.1234163  0.704020E-05  0.974E-02    0.01       1.0  T
  12     -8.1234294 -0.130286E-04  0.456E-02    0.01       1.1  T
  13     -8.1234328 -0.343049E-05  0.186E-02    0.01       2.7  T
  14     -8.1234334 -0.557215E-06  0.577E-03    0.01       8.7  T
  15     -8.1234334 -0.575594E-07  0.836E-04    0.01      59.8  T
  16     -8.1234334 -0.121253E-08  0.617E-05    0.01     811.0  T
     SCC iter.                  ...        0 min,  0.001 sec
     gradient                   ...        0 min,  0.001 sec
 * total energy  :    -8.0683392 Eh     change        0.4991549E-01 Eh
   gradient norm :     0.2347143 Eh/α   predicted    -0.3933712E-01 (-178.81%)
   displ. norm   :     0.4897359 α      lambda       -0.8984119E-01
   maximum displ.:     0.4893628 α      in ANC's #1, #6, #2, ...

........................................................................
.............................. CYCLE    6 ..............................
........................................................................
   1     -8.2336640 -0.823366E+01  0.263E+00    0.02       0.0  T
   2     -8.2303049  0.335912E-02  0.197E+00    0.03       1.0  T
   3     -8.1101225  0.120182E+00  0.702E+00    0.35       1.0  T
   4     -8.2323670 -0.122244E+00  0.891E-01    0.03       1.0  T
   5     -8.2311591  0.120790E-02  0.112E+00    0.03       1.0  T
   6     -8.2220743  0.908477E-02  0.237E+00    0.04       1.0  T
   7     -8.2304922 -0.841789E-02  0.126E+00    0.03       1.0  T
   8     -8.2328534 -0.236124E-02  0.668E-01    0.03       1.0  T
   9     -8.2337575 -0.904088E-03  0.119E-01    0.02       1.0  T
  10     -8.2337868 -0.293052E-04  0.177E-02    0.02       2.8  T
  11     -8.2337877 -0.881997E-06  0.137E-03    0.02      36.4  T
  12     -8.2337877  0.928998E-08  0.238E-03    0.02      21.0  T
  13     -8.2337877 -0.650196E-08  0.140E-03    0.02      35.8  T
  14     -8.2337877 -0.570913E-08  0.150E-04    0.02     333.2  T
  15     -8.2337877  0.568695E-09  0.543E-04    0.02      92.1  T
     SCC iter.                  ...        0 min,  0.001 sec
     gradient                   ...        0 min,  0.001 sec
 * total energy  :    -8.1230431 Eh     change       -0.5470386E-01 Eh
   gradient norm :     0.0543231 Eh/α   predicted    -0.5569439E-01 (   1.81%)
   displ. norm   :     0.1159708 α      lambda       -0.4828233E-02
   maximum displ.:     0.1128363 α      in ANC's #1, #3, #6, ...

........................................................................
.............................. CYCLE    7 ..............................
........................................................................
   1     -8.2546355 -0.825464E+01  0.114E+00    0.09       0.0  T
   2     -8.2465384  0.809716E-02  0.196E+00    0.10       1.0  T
   3     -8.2279285  0.186099E-01  0.342E+00    0.12       1.0  T
   4     -8.2546762 -0.267477E-01  0.143E-01    0.09       1.0  T
   5     -8.2546778 -0.156626E-05  0.866E-02    0.09       1.0  T
   6     -8.2546880 -0.102299E-04  0.289E-03    0.09      17.3  T
   7     -8.2546880  0.243357E-07  0.318E-03    0.09      15.7  T
   8     -8.2546880 -0.123299E-07  0.247E-03    0.09      20.2  T
   9     -8.2546880 -0.142780E-07  0.336E-04    0.09     148.6  T
  10     -8.2546880 -0.268086E-09  0.259E-04    0.09     192.7  T
     SCC iter.                  ...        0 min,  0.001 sec
     gradient                   ...        0 min,  0.001 sec
 * total energy  :    -8.1261468 Eh     change       -0.3103707E-02 Eh
   gradient norm :     0.0572414 Eh/α   predicted    -0.2446584E-02 ( -21.17%)
   displ. norm   :     0.2208481 α      lambda       -0.7580593E-02
   maximum displ.:     0.1790519 α      in ANC's #1, #3, #6, ...

........................................................................
.............................. CYCLE    8 ..............................
........................................................................
   1     -8.2957092 -0.829571E+01  0.306E+00    0.55       0.0  T
   2     -8.2957309 -0.217078E-04  0.172E+00    0.54       1.0  T
   3     -8.2922474  0.348346E-02  0.115E+00    0.54       1.0  T
   4     -8.2957986 -0.355115E-02  0.424E-02    0.53       1.2  T
   5     -8.2957987 -0.154210E-06  0.124E-02    0.53       4.0  T
   6     -8.2957987 -0.693564E-08  0.233E-03    0.53      21.5  T
   7     -8.2957987  0.665178E-07  0.318E-03    0.53      15.7  T
   8     -8.2957987 -0.682962E-07  0.931E-05    0.53     536.8  T
   9     -8.2957987  0.246629E-10  0.899E-05    0.53     556.0  T
     SCC iter.                  ...        0 min,  0.001 sec
     gradient                   ...        0 min,  0.001 sec
 * total energy  :    -8.1313418 Eh     change       -0.5195035E-02 Eh
   gradient norm :     0.0876373 Eh/α   predicted    -0.3975159E-02 ( -23.48%)
   displ. norm   :     0.0761014 α      lambda       -0.3687527E-02
   maximum displ.:     0.0570811 α      in ANC's #3, #1, #6, ...

........................................................................
.............................. CYCLE    9 ..............................
........................................................................
   1     -8.2997712 -0.829977E+01  0.103E+00    0.72       0.0  T
   2     -8.2997705  0.694169E-06  0.584E-01    0.72       1.0  T
   3     -8.2992927  0.477783E-03  0.413E-01    0.71       1.0  T
   4     -8.2997828 -0.490118E-03  0.153E-02    0.71       3.3  T
   5     -8.2997828 -0.968573E-08  0.323E-03    0.71      15.5  T
   6     -8.2997828 -0.354534E-09  0.341E-04    0.71     146.5  T
   7     -8.2997828  0.149506E-08  0.537E-04    0.71      93.1  T
     SCC iter.                  ...        0 min,  0.000 sec
     gradient                   ...        0 min,  0.001 sec
 * total energy  :    -8.1342617 Eh     change       -0.2919891E-02 Eh
   gradient norm :     0.0643611 Eh/α   predicted    -0.1854439E-02 ( -36.49%)
   displ. norm   :     0.0957745 α      lambda       -0.5636969E-02
   maximum displ.:     0.0834268 α      in ANC's #6, #3, #1, ...

........................................................................
.............................. CYCLE   10 ..............................
........................................................................
   1     -8.2809166 -0.828092E+01  0.723E-01    0.77       0.0  T
   2     -8.2809043  0.122472E-04  0.420E-01    0.77       1.0  T
   3     -8.2800499  0.854421E-03  0.538E-01    0.76       1.0  T
   4     -8.2809307 -0.880775E-03  0.312E-02    0.76       1.6  T
   5     -8.2809307 -0.495642E-07  0.440E-03    0.76      11.4  T
   6     -8.2809304  0.295657E-06  0.733E-03    0.76       6.8  T
   7     -8.2809308 -0.331946E-06  0.914E-04    0.76      54.7  T
   8     -8.2809308  0.349772E-09  0.346E-04    0.76     144.5  T
     SCC iter.                  ...        0 min,  0.001 sec
     gradient                   ...        0 min,  0.001 sec
 * total energy  :    -8.1368498 Eh     change       -0.2588033E-02 Eh
   gradient norm :     0.0186724 Eh/α   predicted    -0.2844337E-02 (   9.90%)
   displ. norm   :     0.0501306 α      lambda       -0.5383540E-03
   maximum displ.:     0.0367397 α      in ANC's #3, #1, #6, ...

........................................................................
.............................. CYCLE   11 ..............................
........................................................................
   1     -8.2901095 -0.829011E+01  0.621E-01    0.89       0.0  T
   2     -8.2901076  0.187319E-05  0.355E-01    0.89       1.0  T
   3     -8.2899251  0.182491E-03  0.243E-01    0.88       1.0  T
   4     -8.2901137 -0.188561E-03  0.999E-03    0.88       5.0  T
   5     -8.2901136  0.889947E-07  0.436E-03    0.88      11.5  T
   6     -8.2901135  0.898327E-07  0.552E-03    0.88       9.1  T
   7     -8.2901137 -0.187093E-06  0.327E-04    0.88     152.9  T
   8     -8.2901137  0.108371E-08  0.405E-04    0.88     123.5  T
     SCC iter.                  ...        0 min,  0.000 sec
     gradient                   ...        0 min,  0.001 sec
 * total energy  :    -8.1370641 Eh     change       -0.2143253E-03 Eh
   gradient norm :     0.0047507 Eh/α   predicted    -0.2698542E-03 (  25.91%)
   displ. norm   :     0.0093753 α      lambda       -0.2582214E-04
   maximum displ.:     0.0067043 α      in ANC's #3, #1, #2, ...

........................................................................
.............................. CYCLE   12 ..............................
........................................................................
   1     -8.2882372 -0.828824E+01  0.115E-01    0.86       0.0  T
   2     -8.2882371  0.957550E-07  0.653E-02    0.86       1.0  T
   3     -8.2882296  0.746608E-05  0.496E-02    0.86       1.0  T
   4     -8.2882373 -0.770515E-05  0.210E-03    0.86      23.8  T
   5     -8.2882373  0.128607E-07  0.157E-03    0.86      31.8  T
   6     -8.2882373 -0.109458E-07  0.783E-04    0.86      63.9  T
   7     -8.2882373 -0.353556E-08  0.936E-05    0.86     534.3  T
     SCC iter.                  ...        0 min,  0.000 sec
     gradient                   ...        0 min,  0.001 sec
 * total energy  :    -8.1370764 Eh     change       -0.1234414E-04 Eh
   gradient norm :     0.0004378 Eh/α   predicted    -0.1291089E-04 (   4.59%)
   displ. norm   :     0.0024161 α      lambda       -0.5960968E-06
   maximum displ.:     0.0023081 α      in ANC's #2, #3, #1, ...

........................................................................
.............................. CYCLE   13 ..............................
........................................................................
   1     -8.2883410 -0.828834E+01  0.254E-02    0.86       0.0  T
   2     -8.2883403  0.725340E-06  0.155E-02    0.86       3.2  T
   3     -8.2883395  0.779067E-06  0.278E-02    0.86       1.8  T
   4     -8.2883412 -0.168663E-05  0.988E-04    0.86      50.6  T
   5     -8.2883412  0.160738E-08  0.909E-04    0.86      55.0  T
   6     -8.2883412 -0.353257E-08  0.137E-04    0.86     365.0  T
     SCC iter.                  ...        0 min,  0.000 sec
     gradient                   ...        0 min,  0.001 sec
 * total energy  :    -8.1370771 Eh     change       -0.6799298E-06 Eh
   gradient norm :     0.0002080 Eh/α   predicted    -0.2982131E-06 ( -56.14%)
   displ. norm   :     0.0037914 α      lambda       -0.5219856E-06
   maximum displ.:     0.0037821 α      in ANC's #2, #1, #3, ...

   *** GEOMETRY OPTIMIZATION CONVERGED AFTER 13 ITERATIONS ***

------------------------------------------------------------------------
 total energy gain   :        -0.0792238 Eh      -49.7137 kcal/mol
 total RMSD          :         0.3344906 a0        0.1770 Å
 total power (kW/mol):       -16.0001561 (step)-6292.0014 (real)
------------------------------------------------------------------------

 ANCopt (total)                0 d,  0 h,  0 min,  0.033 sec
 optimizer setup                ...        0 min,  0.000 sec (  0.459%)
 model hessian                  ...        0 min,  0.000 sec (  0.175%)
 ANC generation                 ...        0 min,  0.000 sec (  0.103%)
 coordinate transformation      ...        0 min,  0.000 sec (  0.060%)
 single point calculation       ...        0 min,  0.032 sec ( 95.863%)
 optimization log               ...        0 min,  0.000 sec (  1.453%)
 hessian update                 ...        0 min,  0.000 sec (  0.069%)
 rational function              ...        0 min,  0.000 sec (  0.803%)

================
 final structure:
================
4
 xtb: 6.2.2 (9d81278992624c895f80dd42a50cac0aa55982e2)
C        -0.79994991641927    0.56520954824050    0.13494741066054
C        -0.43309753750331   -0.88056597902592   -0.13528334618991
C         0.80039637149143   -0.56723201160770    0.12330845098684
C         0.43265108243115    0.88258844239311   -0.12297351545746

 Bond Distances (Angstroems)
 ---------------------------
C1-C2=1.5159         C1-C4=1.2987         C2-C1=1.5159         C2-C3=1.2987         C3-C2=1.2987         C3-C4=1.5159         
C4-C1=1.2987         C4-C3=1.5159         
 C  C  Rav=1.4073 sigma=0.1086  Rmin=1.2987  Rmax=1.5159     4

 selected bond angles (degree)
 --------------------
C4-C1-C2= 88.17                C3-C2-C1= 87.95                C4-C3-C2= 88.17                C3-C4-C1= 87.95                

 selected dihedral angles (degree)
 ---------------------------------
C3-C2-C1-C4= 22.61            C4-C3-C2-C1=340.77            C3-C4-C1-C2=340.77            C1-C4-C3-C2= 22.61            
           -------------------------------------------------
          |                Final Singlepoint                |
           -------------------------------------------------

          ...................................................
          :                      SETUP                      :
          :.................................................:
          :  # basis functions                  16          :
          :  # atomic orbitals                  16          :
          :  # shells                            8          :
          :  # electrons                        16          :
          :  max. iterations                   250          :
          :  Hamiltonian                  GFN2-xTB          :
          :  restarted?                      false          :
          :  GBSA solvation                  false          :
          :  PC potential                    false          :
          :  electronic temp.          300.0000000     K    :
          :  accuracy                    1.0000000          :
          :  -> integral cutoff          0.2500000E+02      :
          :  -> integral neglect         0.1000000E-07      :
          :  -> SCF convergence          0.1000000E-05 Eh   :
          :  -> wf. convergence          0.1000000E-03 e    :
          :  Broyden damping             0.4000000          :
          ...................................................

 iter      E             dE          RMSdq      gap      omega  full diag
   1     -8.2883412 -0.828834E+01  0.566E-05    0.86       0.0  T
   2     -8.2883412  0.581402E-11  0.573E-05    0.86     872.3  T
   3     -8.2883412 -0.228795E-11  0.340E-05    0.86    1472.0  T

   *** convergence criteria satisfied after 3 iterations ***

         #    Occupation            Energy/Eh            Energy/eV
      -------------------------------------------------------------
         1        2.0000           -0.7323216             -19.9275
         2        2.0000           -0.6432097             -17.5026
         3        2.0000           -0.6071283             -16.5208
         4        2.0000           -0.5443261             -14.8119
         5        2.0000           -0.5414389             -14.7333
         6        2.0000           -0.4836632             -13.1611
         7        2.0000           -0.4542216             -12.3600
         8        2.0000           -0.4221068             -11.4861 (HOMO)
         9        0.0000           -0.3904249             -10.6240 (LUMO)
        10                         -0.3372140              -9.1761
        11                         -0.3193476              -8.6899
        12                         -0.2054818              -5.5914
        13                         -0.0274876              -0.7480
       ...                                ...                  ...
        16                          0.7091089              19.2958
      -------------------------------------------------------------
                  HL-Gap            0.0316819 Eh            0.8621 eV
             Fermi-level           -0.4062658 Eh          -11.0551 eV

 SCC (total)                   0 d,  0 h,  0 min,  0.003 sec
 SCC setup                      ...        0 min,  0.000 sec (  3.031%)
 Dispersion                     ...        0 min,  0.000 sec (  0.293%)
 integral evaluation            ...        0 min,  0.001 sec ( 42.432%)
 zeroth order Hamiltonian       ...        0 min,  0.000 sec (  0.327%)
 iterations                     ...        0 min,  0.001 sec ( 22.826%)
 molecular gradient             ...        0 min,  0.001 sec ( 28.784%)
 printout                       ...        0 min,  0.000 sec (  2.023%)

         :::::::::::::::::::::::::::::::::::::::::::::::::::::
         ::                     SUMMARY                     ::
         :::::::::::::::::::::::::::::::::::::::::::::::::::::
         :: total energy              -8.137077107884 Eh    ::
         :: gradient norm              0.000209110716 Eh/a0 ::
         :: HOMO-LUMO gap              0.862107403625 eV    ::
         ::.................................................::
         :: SCC energy                -8.288341185751 Eh    ::
         :: -> isotropic ES           -0.008336644462 Eh    ::
         :: -> anisotropic ES          0.000315917641 Eh    ::
         :: -> anisotropic XC          0.005419383869 Eh    ::
         :: -> dispersion             -0.001712439358 Eh    ::
         :: repulsion energy           0.151264072803 Eh    ::
         :: add. restraining           0.000000000000 Eh    ::
         :::::::::::::::::::::::::::::::::::::::::::::::::::::

           ------------------------------------------------- 
          |                Numerical Hessian                |
           ------------------------------------------------- 
step length          :   0.00500
SCC accuracy         :   0.30000
Hessian scale factor :   1.00000
frozen atoms in %    :   0.00000    0
RMS gradient         :   0.00021
estimated CPU  time      0.00 min
estimated wall time      0.00 min

writing file <hessian>.

 projected vibrational frequencies (cm-1)
eigval :       -0.00    -0.00    -0.00     0.00     0.00     0.00
eigval :      291.89   358.76   555.45   989.35  1558.71  1616.74
           -------------------------------------------------
          |                Property Printout                |
           -------------------------------------------------

    * Orbital Energies and Occupations

         #    Occupation            Energy/Eh            Energy/eV
      -------------------------------------------------------------
         1        2.0000           -0.7323216             -19.9275
         2        2.0000           -0.6432097             -17.5026
         3        2.0000           -0.6071283             -16.5208
         4        2.0000           -0.5443261             -14.8119
         5        2.0000           -0.5414389             -14.7333
         6        2.0000           -0.4836632             -13.1611
         7        2.0000           -0.4542215             -12.3600
         8        2.0000           -0.4221068             -11.4861 (HOMO)
         9        0.0000           -0.3904249             -10.6240 (LUMO)
        10                         -0.3372140              -9.1761
        11                         -0.3193476              -8.6899
Molecule has the following symmetry elements: 3*(C2) 
It seems to be the D2 point group
        12                         -0.2054818              -5.5914
        13                         -0.0274876              -0.7480
        14                          0.1220280               3.3205
        15                          0.4413748              12.0104
        16                          0.7091089              19.2958
      -------------------------------------------------------------
                  HL-Gap            0.0316819 Eh            0.8621 eV
             Fermi-level           -0.4062658 Eh          -11.0551 eV

     #   Z        covCN         q      C6AA      α(0)
     1   6 C      2.528     0.000    28.122     8.665
     2   6 C      2.521    -0.000    28.147     8.668
     3   6 C      2.528     0.000    28.122     8.665
     4   6 C      2.521    -0.000    28.147     8.668

 Mol. C6AA /au·bohr⁶  :        450.147741
 Mol. C8AA /au·bohr⁸  :      13019.054915
 Mol. α(0) /au        :         34.667035


Wiberg/Mayer (AO) data.
largest (>0.10) Wiberg bond orders for each atom
          total WBO             WBO to atom ...
     1  C   3.493        C    4 1.955    C    2 0.922    C    3 0.617
     2  C   3.492        C    3 1.955    C    1 0.922    C    4 0.616
     3  C   3.493        C    2 1.955    C    4 0.922    C    1 0.617
     4  C   3.492        C    1 1.955    C    3 0.922    C    2 0.616

MOs/occ written to file <molden.input>


molecular dipole:
                 x           y           z       tot (Debye)
 q only:        0.000      -0.000       0.000
   full:        0.000      -0.000       0.003       0.007
molecular quadrupole (traceless):
                xx          xy          yy          xz          yz          zz
 q only:        0.001      -0.002      -0.001      -0.000      -0.000       0.000
  q+dip:        1.237       0.714      -1.360       0.004      -0.013       0.123
   full:       -0.356       0.155      -0.914       0.004      -0.017       1.270

           -------------------------------------------------
          |                Geometry Summary                 |
           -------------------------------------------------

      molecular mass/u    :       48.0429436
   center of mass at/Å    :       -0.0000000      -0.0000000      -0.0000002
  moments of inertia/u·Å² :        0.2025652E+02   0.2759939E+02   0.4625366E+02
rotational constants/cm⁻¹ :        0.8322078E+00   0.6107972E+00   0.3644605E+00

 * 2 selected distances

     #   Z        #   Z                                     value/Å
     2   6 C      3   6 C                                 1.2986744 (min)
     1   6 C      4   6 C                                 1.2986754 (max)

 * 1 distinct bonds (by element types)

   Z      Z             #   av. dist./Å        max./Å        min./Å
   6 C    6 C           2     1.2986749     1.2986754     1.2986744

           -------------------------------------------------
          |               Frequency Printout                |
           -------------------------------------------------
 projected vibrational frequencies (cm-1)
eigval :       -0.00    -0.00    -0.00     0.00     0.00     0.00
eigval :      291.89   358.76   555.45   989.35  1558.71  1616.74
 reduced masses (amu)
   1: 12.01   2: 12.01   3: 12.01   4: 12.01   5: 12.01   6: 12.01   7: 12.01   8: 12.01
   9: 12.01  10: 12.01  11: 12.01  12: 12.01
 IR intensities (amu)
   1:  0.02   2:  0.03   3:  0.00   4:  0.02   5:  0.02   6:  0.01   7:  0.03   8:  0.82
   9:  1.84  10:  0.00  11:  1.66  12:  0.01
 Raman intensities (amu)
   1:  0.00   2:  0.00   3:  0.00   4:  0.00   5:  0.00   6:  0.00   7:  0.00   8:  0.00
   9:  0.00  10:  0.00  11:  0.00  12:  0.00
 output can be read by thermo (or use thermo option).
 writing <g98.out> molden fake output.
 recommended (thermochemical) frequency scaling factor: 1.0
           -------------------------------------------------
          |             Thermodynamic Functions             |
           -------------------------------------------------

d2  symmetry found (for desy threshold:  0.10E+00) used in thermo

          ...................................................
          :                      SETUP                      :
          :.................................................:
          :  # frequencies                           6      :
          :  # imaginary freq.                       0      :
          :  linear?                             false      :
          :  only rotor calc.                    false      :
          :  symmetry                               d2      :
          :  rotational number                       4      :
          :  scaling factor                  1.0000000      :
          :  rotor cutoff                   50.0000000 cm⁻¹ :
          :  imag. cutoff                  -20.0000000 cm⁻¹ :
          :.................................................:

    mode    ω/cm⁻¹     T·S(HO)/kcal·mol⁻¹    T·S(FR)/kcal·mol⁻¹   T·S(vib)
   ------------------------------------------------------------------------
       1    291.89    -0.00000 ( 99.91%)     0.01584 (  0.09%)     0.00001
   ------------------------------------------------------------------------

   temp. (K)  partition function   enthalpy   heat capacity  entropy
                                   cal/mol     cal/K/mol   cal/K/mol   J/K/mol
 298.15  VIB   1.74                  636.031      4.873      3.238
         ROT  0.307E+04              888.752      2.981     18.938
         INT  0.535E+04             1524.783      7.854     22.176
         TR   0.322E+27             1481.254      4.968     37.516
         TOT                        3006.0371    12.8225    59.6920   249.7513

   temp. (K)  partition function   enthalpy   heat capacity  entropy
                                   cal/mol     cal/K/mol   cal/K/mol   J/K/mol
 120.00  VIB   1.05                   42.142      1.409      0.443
         ROT   784.                  357.707      2.981     16.225
         INT   821.                  399.849      4.390     16.668
         TR   0.823E+26              596.178      4.968     32.997
         TOT                         996.0267     9.3580    49.6643   207.7953

   temp. (K)  partition function   enthalpy   heat capacity  entropy
                                   cal/mol     cal/K/mol   cal/K/mol   J/K/mol
 100.00  VIB   1.02                   19.163      0.892      0.234
         ROT   597.                  298.089      2.981     15.682
         INT   609.                  317.252      3.873     15.916
         TR   0.626E+26              496.815      4.968     32.091
         TOT                         814.0669     8.8412    48.0073   200.8624

   temp. (K)  partition function   enthalpy   heat capacity  entropy
                                   cal/mol     cal/K/mol   cal/K/mol   J/K/mol
  80.00  VIB   1.01                    6.098      0.431      0.090
         ROT   427.                  238.471      2.981     15.017
         INT   430.                  244.569      3.411     15.107
         TR   0.448E+26              397.452      4.968     30.983
         TOT                         642.0210     8.3796    46.0900   192.8405

   temp. (K)  partition function   enthalpy   heat capacity  entropy
                                   cal/mol     cal/K/mol   cal/K/mol   J/K/mol
  60.00  VIB   1.00                    0.953      0.117      0.018
         ROT   277.                  178.853      2.981     14.159
         INT   278.                  179.807      3.097     14.177
         TR   0.291E+26              298.089      4.968     29.555
         TOT                         477.8955     8.0656    43.7317   182.9736

   temp. (K)  partition function   enthalpy   heat capacity  entropy
                                   cal/mol     cal/K/mol   cal/K/mol   J/K/mol
  40.00  VIB   1.00                    0.026      0.007      0.000
         ROT   151.                  119.236      2.981     12.950
         INT   151.                  119.261      2.988     12.951
         TR   0.158E+26              198.726      4.968     27.541
         TOT                         317.9872     7.9559    40.4918   169.4176

   temp. (K)  partition function   enthalpy   heat capacity  entropy
                                   cal/mol     cal/K/mol   cal/K/mol   J/K/mol
  20.00  VIB   1.00                    0.000      0.000     -0.001
         ROT   53.4                   59.618      2.981     10.884
         INT   53.4                   59.618      2.981     10.883
         TR   0.560E+25               99.363      4.968     24.099
         TOT                         158.9808     7.9490    34.9820   146.3647

   temp. (K)  partition function   enthalpy   heat capacity  entropy
                                   cal/mol     cal/K/mol   cal/K/mol   J/K/mol
  10.00  VIB   1.00                    0.000      0.000     -0.002
         ROT   18.9                   29.809      2.981      8.818
         INT   18.9                   29.809      2.981      8.816
         TR   0.198E+25               49.681      4.968     20.657
         TOT                          79.4904     7.9490    29.4729   123.3147

       T/K    H(0)-H(T)+PV         H(T)/Eh          T*S/Eh         G(T)/Eh
   ------------------------------------------------------------------------
    298.15    0.479042E-02    0.170262E-01    0.283616E-01   -0.113354E-01
    120.00    0.158727E-02    0.138231E-01    0.949741E-02    0.432568E-02
    100.00    0.129730E-02    0.135331E-01    0.765045E-02    0.588267E-02
     80.00    0.102313E-02    0.132589E-01    0.587593E-02    0.738301E-02
     60.00    0.761575E-03    0.129974E-01    0.418146E-02    0.881593E-02
     40.00    0.506745E-03    0.127426E-01    0.258111E-02    0.101614E-01
     20.00    0.253352E-03    0.124892E-01    0.111495E-02    0.113742E-01
     10.00    0.126676E-03    0.123625E-01    0.469681E-03    0.118928E-01 (used)
   ------------------------------------------------------------------------

         :::::::::::::::::::::::::::::::::::::::::::::::::::::
         ::                  THERMODYNAMIC                  ::
         :::::::::::::::::::::::::::::::::::::::::::::::::::::
         :: total free energy          -8.125184298669 Eh   ::
         ::.................................................::
         :: total energy               -8.137077107859 Eh   ::
         :: zero point energy           0.012235814101 Eh   ::
         :: G(RRHO) w/o ZPVE           -0.000343004911 Eh   ::
         :: G(RRHO) contrib.            0.011892809190 Eh   ::
         :::::::::::::::::::::::::::::::::::::::::::::::::::::

optimized geometry written to: xtbopt.xyz


           -------------------------------------------------
          | TOTAL ENERGY               -8.137077107859 Eh   |
          | TOTAL ENTHALPY             -8.124714617742 Eh   |
          | TOTAL FREE ENERGY          -8.125184298669 Eh   |
          | GRADIENT NORM               0.000208896451 Eh/α |
          | HOMO-LUMO GAP               0.862107418069 eV   |
           -------------------------------------------------

------------------------------------------------------------------------
 * finished run on 2020/05/12 at 14:38:40.316     
------------------------------------------------------------------------
 total:
 * wall-time:     0 d,  0 h,  0 min,  0.112 sec
 *  cpu-time:     0 d,  0 h,  0 min,  0.111 sec
 * ratio c/w:     0.991 speedup
 SCF:
 * wall-time:     0 d,  0 h,  0 min,  0.003 sec
 *  cpu-time:     0 d,  0 h,  0 min,  0.003 sec
 * ratio c/w:     1.000 speedup
 ANC optimizer:
 * wall-time:     0 d,  0 h,  0 min,  0.037 sec
 *  cpu-time:     0 d,  0 h,  0 min,  0.036 sec
 * ratio c/w:     0.996 speedup
 numerical hessian:
 * wall-time:     0 d,  0 h,  0 min,  0.054 sec
 *  cpu-time:     0 d,  0 h,  0 min,  0.054 sec
 * ratio c/w:     0.993 speedup

