4
 energy: -8.057853318870 gnorm: 0.158857921076 xtb: 6.2.2 (9d81278992624c895f80dd42a50cac0aa55982e2)
C        -0.92038500000000    0.54676300000000    0.00587600000000
C        -0.54679300000000   -0.92036800000000   -0.00626300000000
C         0.92038600000000   -0.54676400000000   -0.00587400000000
C         0.54679200000000    0.92036900000000    0.00626000000000
4
 energy: -8.081158699169 gnorm: 0.108039475138 xtb: 6.2.2 (9d81278992624c895f80dd42a50cac0aa55982e2)
C        -0.88123033870634    0.52350425893315    0.00571706928712
C        -0.52354318125912   -0.88123643226024   -0.00608777065681
C         0.88123131478230   -0.52350635034548   -0.00553309844604
C         0.52354220518315    0.88123852367257    0.00590279981573
4
 energy: -8.076868176916 gnorm: 0.213922264997 xtb: 6.2.2 (9d81278992624c895f80dd42a50cac0aa55982e2)
C        -0.80625280257785    0.47889278647710    0.02615687987291
C        -0.47926223735427   -0.80659927088263   -0.02649882733206
C         0.80632539137955   -0.47922170787863    0.01586227032810
C         0.47918964855258    0.80692819228415   -0.01552132286895
4
 energy: -8.118254719432 gnorm: 0.050964656121 xtb: 6.2.2 (9d81278992624c895f80dd42a50cac0aa55982e2)
C        -0.83425483190747    0.49526119691599    0.12137694863207
C        -0.49597743714430   -0.83435304939117   -0.12173057337881
C         0.83465657342146   -0.49707895335064    0.11071655729377
C         0.49557569563031    0.83617080582582   -0.11036393254704
4
 energy: -8.068339229816 gnorm: 0.234714290798 xtb: 6.2.2 (9d81278992624c895f80dd42a50cac0aa55982e2)
C        -0.82227663366260    0.48900890313746    0.36038931378620
C        -0.48860090700213   -0.82355942443174   -0.36074064388982
C         0.82350570564016   -0.49457101123976    0.34983695436792
C         0.48737183502457    0.82912153253403   -0.34948662426430
4
 energy: -8.123043092746 gnorm: 0.054323086976 xtb: 6.2.2 (9d81278992624c895f80dd42a50cac0aa55982e2)
C        -0.81802493646788    0.48744672207572    0.23088554674390
C        -0.48578937759450   -0.82035737907622   -0.23123638292705
C         0.81880586772060   -0.49098087284461    0.22038935940109
C         0.48500844634178    0.82389152984511   -0.22003952321794
4
 energy: -8.126146799821 gnorm: 0.057241467789 xtb: 6.2.2 (9d81278992624c895f80dd42a50cac0aa55982e2)
C        -0.81147719821213    0.49076048800672    0.20104395531685
C        -0.47885764741004   -0.82079382715697   -0.20139561653964
C         0.81215491377016   -0.49382712952490    0.19052244561569
C         0.47817993185200    0.82386046867516   -0.19017178439289
4
 energy: -8.131341834397 gnorm: 0.087637343705 xtb: 6.2.2 (9d81278992624c895f80dd42a50cac0aa55982e2)
C        -0.78975715009412    0.51768483440852    0.15384052252873
C        -0.44830375165597   -0.83637064886890   -0.15419383650555
C         0.79027105396163   -0.52000980538278    0.14297869365693
C         0.44778984778845    0.83869561984316   -0.14262637968010
4
 energy: -8.134261724992 gnorm: 0.064361157061 xtb: 6.2.2 (9d81278992624c895f80dd42a50cac0aa55982e2)
C        -0.78882438509756    0.53476804934523    0.14360785568658
C        -0.43981129561576   -0.85175580152532   -0.14396419435323
C         0.78930299202890   -0.53693047641181    0.13248304069788
C         0.43933268868441    0.85391822859190   -0.13212770203123
4
 energy: -8.136849758448 gnorm: 0.018672513360 xtb: 6.2.2 (9d81278992624c895f80dd42a50cac0aa55982e2)
C        -0.80184786777036    0.55686933246724    0.14226859722004
C        -0.44026135221024   -0.87670583230835   -0.14262392732294
C         0.80231074935303   -0.55900927874798    0.13075273359947
C         0.43979847062758    0.87884577858909   -0.13039840349657
4
 energy: -8.137064083781 gnorm: 0.004750826874 xtb: 6.2.2 (9d81278992624c895f80dd42a50cac0aa55982e2)
C        -0.79824930965315    0.56610293842768    0.13339425919959
C        -0.43226833291961   -0.88237568197706   -0.13374175094923
C         0.79868824777196   -0.56809916214947    0.12174741558873
C         0.43182939480080    0.88437190569885   -0.12140092383909
4
 energy: -8.137076427923 gnorm: 0.000438660316 xtb: 6.2.2 (9d81278992624c895f80dd42a50cac0aa55982e2)
C        -0.79946488449818    0.56475084858949    0.13505546367748
C        -0.43351608869306   -0.88098154102663   -0.13539836097051
C         0.79991301047796   -0.56677445401632    0.12342535551217
C         0.43306796271327    0.88300514645346   -0.12308345821914
4
 energy: -8.137077107853 gnorm: 0.000208620307 xtb: 6.2.2 (9d81278992624c895f80dd42a50cac0aa55982e2)
C        -0.79994991641927    0.56520954824050    0.13494741066054
C        -0.43309753750331   -0.88056597902592   -0.13528334618991
C         0.80039637149143   -0.56723201160770    0.12330845098684
C         0.43265108243115    0.88258844239311   -0.12297351545746
