 Entering Gaussian System
 *********************************************
 Gaussian 98:
 frequency output generated by the xtb code
 *********************************************
                         Standard orientation:
 --------------------------------------------------------------------
  Center     Atomic     Atomic              Coordinates (Angstroms)
  Number     Number      Type              X           Y           Z
 --------------------------------------------------------------------
    1          6             0       -0.799946    0.565214    0.134949
    2          6             0       -0.433103   -0.880564   -0.135280
    3          6             0        0.800394   -0.567236    0.123307
    4          6             0        0.432655    0.882586   -0.122977
 --------------------------------------------------------------------
     1 basis functions        1 primitive gaussians
     1 alpha electrons        1 beta electrons

 Harmonic frequencies (cm**-1), IR intensities (KM/Mole),
 Raman scattering activities (A**4/amu), Raman depolarization ratios,
 reduced masses (AMU), force constants (mDyne/A) and normal coordinates:
                      1                      2                      3
                        a                      a                      a 
 Frequencies --   291.8898               358.7552               555.4533
 Red. masses --    12.0107                12.0107                12.0107
 Frc consts  --     0.0000                 0.0000                 0.0000
 IR Inten    --     0.0343                 0.8156                 1.8398
 Raman Activ --     0.0000                 0.0000                 0.0000
 Depolar     --     0.0000                 0.0000                 0.0000
 Atom AN      X      Y      Z        X      Y      Z        X      Y      Z
   1   6    -0.08   0.19  -0.46     0.41  -0.28  -0.02     0.12  -0.48  -0.09
   2   6     0.03  -0.17   0.46    -0.22  -0.45   0.01    -0.12   0.48   0.09
   3   6     0.08  -0.18  -0.47    -0.41   0.28  -0.01     0.12  -0.48   0.08
   4   6    -0.03   0.17   0.47     0.22   0.45   0.02    -0.12   0.48  -0.08
                      4                      5                      6
                        a                      a                      a 
 Frequencies --   989.3512              1558.7097              1616.7424
 Red. masses --    12.0107                12.0107                12.0107
 Frc consts  --     0.0000                 0.0000                 0.0000
 IR Inten    --     0.0033                 1.6627                 0.0053
 Raman Activ --     0.0000                 0.0000                 0.0000
 Depolar     --     0.0000                 0.0000                 0.0000
 Atom AN      X      Y      Z        X      Y      Z        X      Y      Z
   1   6    -0.03  -0.47  -0.17     0.47   0.12  -0.10     0.49  -0.01  -0.07
   2   6    -0.25   0.40   0.17    -0.47  -0.12  -0.10     0.43   0.24   0.07
   3   6     0.03   0.47  -0.17     0.47   0.12   0.10    -0.50   0.01  -0.07
   4   6     0.25  -0.40   0.17    -0.47  -0.12   0.10    -0.43  -0.24   0.07
