[Molden Format]
[Title]
[Atoms] AU
C      1     6 -0.15116796324922E+01  0.10680995103324E+01  0.25501703632301E+00
C      2     6 -0.81844526038638E+00 -0.16640245414752E+01 -0.25564268864411E+00
C      3     6  0.15125249937762E+01 -0.10719205644874E+01  0.23301577071193E+00
C      4     6  0.81759989909584E+00  0.16678455956268E+01 -0.23239200811678E+00
[GTO]
           1 0
 s           4   1.0000000000000000     
   51.049363095579913      -0.16312063210127389     
   8.7911227406887544      -0.19911024581000730     
  0.70640422258929825       0.31882047753655751     
  0.26922813413411617       0.12706504184240380     
 p           4   1.0000000000000000     
   5.8263656140800002       0.73716451545209605     
   1.5106896018720002       0.68216371614850257     
  0.53256483288000001       0.35783053929253711     
  0.21202323690600003        5.3983030275847881E-002

           2 0
 s           4   1.0000000000000000     
   51.049363095579913      -0.16312063210127389     
   8.7911227406887544      -0.19911024581000730     
  0.70640422258929825       0.31882047753655751     
  0.26922813413411617       0.12706504184240380     
 p           4   1.0000000000000000     
   5.8263656140800002       0.73716451545209605     
   1.5106896018720002       0.68216371614850257     
  0.53256483288000001       0.35783053929253711     
  0.21202323690600003        5.3983030275847881E-002

           3 0
 s           4   1.0000000000000000     
   51.049363095579913      -0.16312063210127389     
   8.7911227406887544      -0.19911024581000730     
  0.70640422258929825       0.31882047753655751     
  0.26922813413411617       0.12706504184240380     
 p           4   1.0000000000000000     
   5.8263656140800002       0.73716451545209605     
   1.5106896018720002       0.68216371614850257     
  0.53256483288000001       0.35783053929253711     
  0.21202323690600003        5.3983030275847881E-002

           4 0
 s           4   1.0000000000000000     
   51.049363095579913      -0.16312063210127389     
   8.7911227406887544      -0.19911024581000730     
  0.70640422258929825       0.31882047753655751     
  0.26922813413411617       0.12706504184240380     
 p           4   1.0000000000000000     
   5.8263656140800002       0.73716451545209605     
   1.5106896018720002       0.68216371614850257     
  0.53256483288000001       0.35783053929253711     
  0.21202323690600003        5.3983030275847881E-002

[MO]
Sym=     1a
Ene=  -0.73232160153891690     
Spin= Alpha
Occup=     2.00000000
           1  0.31369199435187334     
           2  0.13136724703135236     
           3  -7.1247259261105672E-002
           4  -2.7054577392729359E-002
           5  0.31331021194637915     
           6   8.1250357543108429E-002
           7  0.12536738512085188     
           8   2.7081021765782590E-002
           9  0.31369129024261333     
          10 -0.13145798863042904     
          11   7.1658889518992894E-002
          12  -2.5479762452159344E-002
          13  0.31331122664765176     
          14  -8.1159791598134814E-002
          15 -0.12577834563676588     
          16   2.5396338913978363E-002
Sym=     2a
Ene=  -0.64320969492991109     
Spin= Alpha
Occup=     2.00000000
           1  0.35137423581376620     
           2  0.10252638653976635     
           3  0.18326806820472055     
           4  -3.0430196716844240E-002
           5 -0.35362738352571454     
           6 -0.17633422609879221     
           7  0.11067300453805658     
           8  -3.0702216909207554E-002
           9 -0.35137459984004948     
          10  0.10263644652270267     
          11  0.18277113910134499     
          12   3.2940477446692401E-002
          13  0.35362701668160956     
          14 -0.17622394280750081     
          15  0.11017491680829164     
          16   3.3042881271527158E-002
Sym=     3a
Ene=  -0.60712828913549188     
Spin= Alpha
Occup=     2.00000000
           1  0.35410867043604760     
           2 -0.17406865924194720     
           3 -0.17364761014120689     
           4  -2.7946131867766490E-002
           5  0.35143265324706502     
           6 -0.23669601025350290     
           7   7.0761260305313087E-002
           8   2.7663540375980743E-002
           9 -0.35410738680133469     
          10 -0.17397535856823865     
          11 -0.17406906055989840     
          12   2.5827410180503031E-002
          13 -0.35143374064414917     
          14 -0.23678955144541813     
          15   7.1179427351675248E-002
          16  -2.5730730422833258E-002
Sym=     4a
Ene=  -0.54432606833671060     
Spin= Alpha
Occup=     2.00000000
           1  0.11943198748102299     
           2   8.2598992609107594E-003
           3  -1.1737116849129620E-002
           4  0.40442553145366728     
           5 -0.12008222885394601     
           6  -4.2570771109997239E-003
           7  -1.1792095024441283E-002
           8  0.40389052170239853     
           9  0.11943220001573422     
          10  -6.8565340904701566E-003
          11   5.4029620532011421E-003
          12  0.40458507966962726     
          13 -0.12008217305895529     
          14   5.6586260223182114E-003
          15   5.4661149122392210E-003
          16  0.40400994092590875     
Sym=     5a
Ene=  -0.54143885338420605     
Spin= Alpha
Occup=     2.00000000
           1   6.7948275881046669E-002
           2  0.11195337749811879     
           3  0.39413029445925130     
           4  -2.5133161168702776E-003
           5   6.7357989644668922E-002
           6  0.28693918389173656     
           7 -0.29258462969969062     
           8   6.1942406999825408E-003
           9   6.7949681272728962E-002
          10 -0.11197175344525978     
          11 -0.39404543911635082     
          12  -8.2962696861927244E-003
          13   6.7357679432523382E-002
          14 -0.28690763171656131     
          15  0.29244421167521140     
          16   1.1770193893390653E-002
Sym=     6a
Ene=  -0.48366321519951372     
Spin= Alpha
Occup=     2.00000000
           1 -0.38599659791981389     
           2  0.29350463205255056     
           3 -0.11796514802162283     
           4   6.7325084711515520E-002
           5  0.38762696719572709     
           6 -0.20277381088596436     
           7 -0.24487652141125735     
           8   6.7051654413026088E-002
           9 -0.38599648031015310     
          10 -0.29326604481408863     
          11  0.11688689550484956     
          12   7.0182086322363335E-002
          13  0.38762682524144521     
          14  0.20301125001700951     
          15  0.24380373047011464     
          16   7.0173838013375067E-002
Sym=     7a
Ene=  -0.45422154966228040     
Spin= Alpha
Occup=     2.00000000
           1 -0.29503048342021038     
           2  0.38823568094007688     
           3  -7.6636960184870220E-002
           4  -2.0969182514478893E-002
           5 -0.29368627190522900     
           6  0.30304531164612303     
           7  0.25122330744324678     
           8   2.1272740918745033E-002
           9 -0.29502879287765954     
          10 -0.38830088639769228     
          11   7.6945455403161667E-002
          12  -1.8418790726422409E-002
          13 -0.29368737425658281     
          14 -0.30297928438359523     
          15 -0.25153534703633484     
          16   1.8388191801842063E-002
Sym=     8a
Ene=  -0.42210677620143822     
Spin= Alpha
Occup=     1.99999989
           1  0.12583408048018571     
           2  -3.3599737693805871E-002
           3  0.13019668601885193     
           4  0.45709299145148896     
           5  0.12701836476626913     
           6   3.1602378525601368E-002
           7 -0.13146908428620238     
           8 -0.45842014585067753     
           9 -0.12583519928998507     
          10  -3.5182084917501105E-002
          11  0.13733726281529149     
          12 -0.45487963937251252     
          13 -0.12701735696034078     
          14   3.3188967211129475E-002
          15 -0.13863010084769248     
          16  0.45619228465534534     
Sym=     9a
Ene=  -0.39042491155231529     
Spin= Alpha
Occup=     0.00000011
           1 -0.18956034302525784     
           2  0.40153343121803875     
           3  -3.0143969781302477E-002
           4 -0.25973210583844736     
           5  0.19071250296172348     
           6 -0.33911189746146647     
           7 -0.22244502381043957     
           8 -0.25587051700598218     
           9  0.18956214656767273     
          10  0.40243394507605984     
          11  -3.4196857072627387E-002
          12  0.25783299060088694     
          13 -0.19071059910252799     
          14 -0.33822622144595305     
          15 -0.22643185691492781     
          16  0.25353122508687187     
Sym=    10a
Ene=  -0.33721400827081771     
Spin= Alpha
Occup=     0.00000000
           1  0.10407739672332014     
           2 -0.26116871362998989     
           3  0.42675675393711404     
           4 -0.15384965884503787     
           5  0.10231808725574834     
           6  -2.7314153960758109E-002
           7 -0.50537342574451360     
           8  0.17100543939209434     
           9 -0.10407861272324906     
          10 -0.26062281315501784     
          11  0.42428765612782443     
          12  0.16141860031111005     
          13 -0.10231687620400153     
          14  -2.7920071594005048E-002
          15 -0.50263431246203161     
          16 -0.17880186889778280     
Sym=    11a
Ene=  -0.31934757592205787     
Spin= Alpha
Occup=     0.00000000
           1  -8.4727081002529351E-003
           2 -0.28928940470840453     
           3  0.10768071752684596     
           4 -0.45673978790343228     
           5   1.1303948898398692E-002
           6  0.20232070989515663     
           7  0.21628603361748505     
           8 -0.45105217856116869     
           9   8.4720985853144817E-003
          10 -0.28770080988074725     
          11  0.10050770778011157     
          12  0.45936704552064239     
          13  -1.1304518436176922E-002
          14  0.20388964604428875     
          15  0.20920173720460125     
          16  0.45368227818700940     
Sym=    12a
Ene=  -0.20548177777000842     
Spin= Alpha
Occup=     0.00000000
           1   4.0490524095264387E-002
           2   5.5351797775422810E-002
           3  -1.5259668864971626E-002
           4  0.59655788523692843     
           5   4.0179940117244337E-002
           6   4.1682501991413705E-002
           7   3.9543569705456832E-002
           8 -0.59718554130812151     
           9   4.0491344919052347E-002
          10  -5.3282941200879202E-002
          11   5.9159879834451840E-003
          12  0.59691523786927236     
          13   4.0179207567028974E-002
          14  -4.3754277797501295E-002
          15  -3.0187367359202997E-002
          16 -0.59758035584825109     
Sym=    13a
Ene=   -2.7487598412070005E-002
Spin= Alpha
Occup=     0.00000000
           1  0.39448609382874644     
           2   1.4279982897547117E-002
           3 -0.55771335193707672     
           4 -0.13886285570885976     
           5 -0.39261158251453387     
           6  0.25581990177305858     
           7 -0.49531434501921379     
           8 -0.13857576569984800     
           9 -0.39448593070703852     
          10   1.4746060652881646E-002
          11 -0.55981674543587434     
          12  0.13006282799904550     
          13  0.39261104558816629     
          14  0.25628345384299778     
          15 -0.49741478950118700     
          16  0.12991386377369285     
Sym=    14a
Ene=   0.12202795427610064     
Spin= Alpha
Occup=     0.00000000
           1 -0.11916437984430096     
           2  0.15529691328018175     
           3  0.70984458689195973     
           4   3.8991720372618464E-002
           5  0.11899189295293582     
           6 -0.47550282888193474     
           7  0.54943245243698391     
           8   3.8331886659804783E-002
           9 -0.11916770878459981     
          10 -0.15517770782471460     
          11 -0.71037456671768795     
          12   2.8410895401347377E-002
          13  0.11899202063054200     
          14  0.47562066752466053     
          15 -0.54995333834978466     
          16   2.8074411569054186E-002
Sym=    15a
Ene=   0.44137475916038521     
Spin= Alpha
Occup=     0.00000000
           1  0.56458119799105089     
           2  0.61660627766432208     
           3  0.22096514504712278     
           4 -0.13757686839947261     
           5  0.56581787786914040     
           6  0.64561230845236617     
           7  0.10316466859678874     
           8  0.13850621892308002     
           9 -0.56457317240371052     
          10  0.61707782094543229     
          11  0.21880406262233085     
          12  0.13887859565930424     
          13 -0.56582593940928716     
          14  0.64513602387682623     
          15  0.10534474298785944     
          16 -0.13911426089425047     
Sym=    16a
Ene=   0.70910894409303615     
Spin= Alpha
Occup=     0.00000000
           1  0.66831893268510323     
           2  0.67780534649695012     
           3  -4.6097789534049832E-002
           4 -0.16015546476121117     
           5 -0.66802955275713627     
           6 -0.57357883377465224     
           7 -0.36626481415630530     
           8 -0.15997290684728288     
           9  0.66832755996716708     
          10 -0.67836399943504766     
          11   4.8579013498500773E-002
          12 -0.15706407760372970     
          13 -0.66802142155443056     
          14  0.57302187225419043     
          15  0.36873877680491518     
          16 -0.15620458050462474     
