 Entering Gaussian System
 *********************************************
 Gaussian 98:
 frequency output generated by the xtb code
 *********************************************
                         Standard orientation:
 --------------------------------------------------------------------
  Center     Atomic     Atomic              Coordinates (Angstroms)
  Number     Number      Type              X           Y           Z
 --------------------------------------------------------------------
    1          6             0        1.244141   -0.018121   -0.052680
    2          7             0       -0.094758   -0.002351    0.259121
    3          1             0       -0.587332   -0.822233   -0.115394
    4          1             0       -0.562051    0.842705   -0.091046
 --------------------------------------------------------------------
     1 basis functions        1 primitive gaussians
     1 alpha electrons        1 beta electrons

 Harmonic frequencies (cm**-1), IR intensities (KM/Mole),
 Raman scattering activities (A**4/amu), Raman depolarization ratios,
 reduced masses (AMU), force constants (mDyne/A) and normal coordinates:
                      1                      2                      3
                        a                      a                      a 
 Frequencies --   918.8183              1105.5185              1283.7346
 Red. masses --     3.9408                 2.9189                12.6398
 Frc consts  --     0.0000                 0.0000                 0.0000
 IR Inten    --     0.5170                 0.1463                 0.1641
 Raman Activ --     0.0000                 0.0000                 0.0000
 Depolar     --     0.0000                 0.0000                 0.0000
 Atom AN      X      Y      Z        X      Y      Z        X      Y      Z
   1   6    -0.02   0.00  -0.15     0.00   0.24   0.00    -0.73   0.01   0.15
   2   7    -0.11  -0.00   0.44    -0.00  -0.31  -0.00     0.64  -0.01  -0.10
   3   1     0.23   0.11  -0.56    -0.59   0.16   0.23     0.06   0.03  -0.07
   4   1     0.23  -0.10  -0.57     0.59   0.15  -0.22     0.06  -0.03  -0.07
                      4                      5                      6
                        a                      a                      a 
 Frequencies --  1451.1357              3108.6636              3129.9324
 Red. masses --     1.6813                 1.3899                 2.1331
 Frc consts  --     0.0000                 0.0000                 0.0000
 IR Inten    --     0.1751                 0.0472                 0.0097
 Raman Activ --     0.0000                 0.0000                 0.0000
 Depolar     --     0.0000                 0.0000                 0.0000
 Atom AN      X      Y      Z        X      Y      Z        X      Y      Z
   1   6    -0.13   0.00  -0.02    -0.03   0.00   0.00    -0.00  -0.00   0.00
   2   7    -0.18   0.00  -0.06    -0.13   0.00  -0.11     0.00   0.29   0.00
   3   1     0.56  -0.37   0.15     0.31   0.59   0.21    -0.32  -0.54  -0.25
   4   1     0.57   0.35   0.17     0.29  -0.60   0.19     0.31  -0.56   0.23
