$hessian                                                                        
        0.4214638839  -0.0047971489  -0.0760229995  -0.3350688930   0.0032636441
        0.0795452320  -0.0438273077  -0.0179652200  -0.0019062550  -0.0425676832
        0.0194987248  -0.0016159776
       -0.0047971489   0.0332700694   0.0012751115   0.0031583370  -0.0458793903
       -0.0013108866  -0.0222362466   0.0067449911   0.0089873354   0.0238750585
        0.0058643298  -0.0089515603
       -0.0760229995   0.0012751115   0.0250809893   0.0850514059  -0.0013984612
       -0.0388203052  -0.0047856160   0.0044486957   0.0070657572  -0.0042427904
       -0.0043253459   0.0066735587
       -0.3350688930   0.0031583370   0.0850514059   0.4870849362   0.0002001252
        0.0101185527  -0.0787159270  -0.0823218759  -0.0504288076  -0.0733001163
        0.0789634137  -0.0447411510
        0.0032636441  -0.0458793903  -0.0013984612   0.0002001252   0.5118739394
        0.0049452461  -0.0991377840  -0.2275166478  -0.1117134072   0.0956740148
       -0.2384779013   0.1081666223
        0.0795452320  -0.0013108866  -0.0388203052   0.0101185527   0.0049452461
        0.1631232794  -0.0474631571  -0.0812777202  -0.0649219829  -0.0422006276
        0.0776433606  -0.0593809913
       -0.0438273077  -0.0222362466  -0.0047856160  -0.0787159270  -0.0991377840
       -0.0474631571   0.1162522089   0.1114075159   0.0495568388   0.0062910258
        0.0099665147   0.0026919343
       -0.0179652200   0.0067449911   0.0044486957  -0.0823218759  -0.2275166478
       -0.0812777202   0.1114075159   0.2500346451   0.0903052350  -0.0111204200
       -0.0292629884  -0.0134762105
       -0.0019062550   0.0089873354   0.0070657572  -0.0504288076  -0.1117134072
       -0.0649219829   0.0495568388   0.0903052350   0.0539074781   0.0027782237
        0.0124208368   0.0039487477
       -0.0425676832   0.0238750585  -0.0042427904  -0.0733001163   0.0956740148
       -0.0422006276   0.0062910258  -0.0111204200   0.0027782237   0.1095767737
       -0.1084286533   0.0436651943
        0.0194987248   0.0058643298  -0.0043253459   0.0789634137  -0.2384779013
        0.0776433606   0.0099665147  -0.0292629884   0.0124208368  -0.1084286533
        0.2618765599  -0.0857388515
       -0.0016159776  -0.0089515603   0.0066735587  -0.0447411510   0.1081666223
       -0.0593809913   0.0026919343  -0.0134762105   0.0039487477   0.0436651943
       -0.0857388515   0.0487586848
