      -----------------------------------------------------------      
     |                   =====================                   |     
     |                           x T B                           |     
     |                   =====================                   |     
     |                         S. Grimme                         |     
     |          Mulliken Center for Theoretical Chemistry        |     
     |                    University of Bonn                     |     
      -----------------------------------------------------------      

   * xtb version 6.2.2 (9d81278992624c895f80dd42a50cac0aa55982e2) compiled by '@Darwin' on 04/03/2020

   xtb is free software: you can redistribute it and/or modify it under
   the terms of the GNU Lesser General Public License as published by
   the Free Software Foundation, either version 3 of the License, or
   (at your option) any later version.
   
   xtb is distributed in the hope that it will be useful,
   but WITHOUT ANY WARRANTY; without even the implied warranty of
   MERCHANTABILITY or FITNESS FOR A PARTICULAR PURPOSE.  See the
   GNU Lesser General Public License for more details.
   
   Cite this work as:
   * S. Grimme, C. Bannwarth, P. Shushkov, J. Chem. Theory Comput., 2017,
     13, 1989-2009. DOI: 10.1021/acs.jctc.7b00118
   * C. Bannwarth, S. Ehlert and S. Grimme., J. Chem. Theory Comput., 2019,
     15, 1652-1671. DOI: 10.1021/acs.jctc.8b01176
   * P. Pracht, E. Caldeweyher, S. Ehlert, S. Grimme, ChemRxiv, 2019, preprint.
     DOI: 10.26434/chemrxiv.8326202.v1
   
   for DFT-D4:
   * E. Caldeweyher, C. Bannwarth and S. Grimme, J. Chem. Phys., 2017,
     147, 034112. DOI: 10.1063/1.4993215
   * E. Caldeweyher, S. Ehlert, A. Hansen, H. Neugebauer, S. Spicher,
     C. Bannwarth and S. Grimme, J. Chem. Phys., 2019, 150, 154122.
     DOI: 10.1063/1.5090222
   
   for sTDA-xTB:
   * S. Grimme and C. Bannwarth, J. Chem. Phys., 2016, 145, 054103.
     DOI: 10.1063/1.4959605
   
   in the mass-spec context:
   * V. Asgeirsson, C. Bauer and S. Grimme, Chem. Sci., 2017, 8, 4879.
     DOI: 10.1039/c7sc00601b
   
   for metadynamics refer to:
   * S. Grimme, J. Chem. Theory Comput., 2019, 155, 2847-2862
     DOI: 10.1021/acs.jctc.9b00143
   
   with help from (in alphabetical order)
   C. Bannwarth, F. Bohle, G. Brandenburg, E. Caldeweyher, M. Checinski,
   S. Dohm, S. Ehlert, S. Ehrlich, F. März, H. Neugebauer, J. Pisarek,
   P. Pracht, P. Shushkov, and S. Spicher.
   
 * started run on 2020/05/12 at 11:43:50.384     

           -------------------------------------------------
          |                Calculation Setup                |
           -------------------------------------------------

          program call               : xtb --input H2C1N1_2_S_3.input H2C1N1_2_S_3.xyz --ohess --molden --namespace H2C1N1_2_S_3 output.out
          calculation namespace      : H2C1N1_2_S_3
          coordinate file            : H2C1N1_2_S_3.xyz
          number of atoms            :                     4
          number of electrons        :                    11
          charge                     :                     0
          spin                       :                   1.5
          first test random number   :      0.49261821611382

   ID    Z sym.   atoms
    1    6 C      1
    2    7 N      2
    3    1 H      3, 4

           -------------------------------------------------
          |                 G F N 2 - x T B                 |
           -------------------------------------------------

        Reference                      10.1021/acs.jctc.8b01176
      * Hamiltonian:
        H0-scaling (s, p, d)           1.850000    2.230000    2.230000
        zeta-weighting                 0.500000
      * Dispersion:
        s8                             2.700000
        a1                             0.520000
        a2                             5.000000
        s9                             5.000000
      * Repulsion:
        kExp                           1.500000    1.000000
        rExp                           1.000000
      * Coulomb:
        alpha                          2.000000
        third order                    shell-resolved
        anisotropic                    true
        a3                             3.000000
        a5                             4.000000
        cn-shift                       1.200000
        cn-exp                         4.000000
        max-rad                        5.000000


          ...................................................
          :                      SETUP                      :
          :.................................................:
          :  # basis functions                  10          :
          :  # atomic orbitals                  10          :
          :  # shells                            6          :
          :  # electrons                        11          :
          :  max. iterations                   250          :
          :  Hamiltonian                  GFN2-xTB          :
          :  restarted?                      false          :
          :  GBSA solvation                  false          :
          :  PC potential                    false          :
          :  electronic temp.          300.0000000     K    :
          :  accuracy                    1.0000000          :
          :  -> integral cutoff          0.2500000E+02      :
          :  -> integral neglect         0.1000000E-07      :
          :  -> SCF convergence          0.1000000E-05 Eh   :
          :  -> wf. convergence          0.1000000E-03 e    :
          :  Broyden damping             0.4000000          :
          ...................................................

 iter      E             dE          RMSdq      gap      omega  full diag
   1     -5.7047346 -0.570473E+01  0.514E+00    9.07       0.0  T
   2     -5.7524143 -0.476797E-01  0.306E+00    7.27       1.0  T
   3     -5.7750317 -0.226174E-01  0.140E+00    8.13       1.0  T
   4     -5.7734506  0.158108E-02  0.806E-01    8.49       1.0  T
   5     -5.7758988 -0.244822E-02  0.112E-01    8.25       1.0  T
   6     -5.7759068 -0.796017E-05  0.484E-02    8.22       1.0  T
   7     -5.7759077 -0.951684E-06  0.143E-02    8.21       3.5  T
   8     -5.7759079 -0.110864E-06  0.173E-03    8.21      28.9  T
   9     -5.7759079 -0.799941E-08  0.264E-04    8.21     189.7  T
  10     -5.7759079 -0.131655E-09  0.516E-05    8.21     968.5  T

   *** convergence criteria satisfied after 10 iterations ***

         #    Occupation            Energy/Eh            Energy/eV
      -------------------------------------------------------------
         1        2.0000           -0.6308029             -17.1650
         2        2.0000           -0.5544006             -15.0860
         3        2.0000           -0.5399664             -14.6932
         4        2.0000           -0.4614808             -12.5575
         5        1.0000           -0.4004990             -10.8981
         6        1.0000           -0.2941159              -8.0033
         7        1.0000           -0.2775909              -7.5536 (HOMO)
         8                          0.0239648               0.6521 (LUMO)
         9                          0.1249855               3.4010
        10                          0.1345130               3.6603
      -------------------------------------------------------------
                  HL-Gap            0.3015557 Eh            8.2057 eV
             Fermi-level           -0.2789015 Eh           -7.5893 eV

 SCC (total)                   0 d,  0 h,  0 min,  0.002 sec
 SCC setup                      ...        0 min,  0.000 sec (  4.444%)
 Dispersion                     ...        0 min,  0.000 sec (  0.468%)
 integral evaluation            ...        0 min,  0.000 sec ( 19.492%)
 zeroth order Hamiltonian       ...        0 min,  0.000 sec (  0.593%)
 iterations                     ...        0 min,  0.001 sec ( 53.173%)
 molecular gradient             ...        0 min,  0.000 sec ( 18.431%)
 printout                       ...        0 min,  0.000 sec (  2.807%)

         :::::::::::::::::::::::::::::::::::::::::::::::::::::
         ::                     SUMMARY                     ::
         :::::::::::::::::::::::::::::::::::::::::::::::::::::
         :: total energy              -5.736472923023 Eh    ::
         :: gradient norm              0.064156092792 Eh/a0 ::
         :: HOMO-LUMO gap              8.205748246400 eV    ::
         ::.................................................::
         :: SCC energy                -5.775907867192 Eh    ::
         :: -> isotropic ES            0.007496728037 Eh    ::
         :: -> anisotropic ES          0.001217678510 Eh    ::
         :: -> anisotropic XC          0.003170509889 Eh    ::
         :: -> dispersion             -0.000725465469 Eh    ::
         :: repulsion energy           0.039434939835 Eh    ::
         :: add. restraining           0.000000000000 Eh    ::
         :::::::::::::::::::::::::::::::::::::::::::::::::::::

      ----------------------------------------------------------- 
     |                   =====================                   |
     |                        A N C O P T                        |
     |                   =====================                   |
     |               Approximate Normal Coordinate               |
     |                Rational Function Optimizer                |
      ----------------------------------------------------------- 

          ...................................................
          :                      SETUP                      :
          :.................................................:
          :   optimization level            normal          :
          :   max. optcycles                   200          :
          :   ANC micro-cycles                  20          :
          :   degrees of freedom                 6          :
          :.................................................:
          :   RF solver                   davidson          :
          :   write xtbopt.log                true          :
          :   linear?                        false          :
          :   energy convergence         0.5000000E-05 Eh   :
          :   grad. convergence          0.1000000E-02 Eh/α :
          :   maximium RF displ.         1.0000000          :
          :   Hlow (freq-cutoff)         0.1000000E-01      :
          :   Hmax (freq-cutoff)         5.0000000          :
          :   S6 in model hess.         20.0000000          :
          ...................................................

generating ANC from model Hessian ...
Using Lindh-Hessian (1995)
 Shifting diagonal of input Hessian by    0.0000000000000000     
 Lowest  eigenvalues of input Hessian
   -0.000000   -0.000000   -0.000000    0.000000    0.000000    0.000000
    0.125345    0.141251    0.166729    0.755427    1.168114    1.203357
 Highest eigenvalues
    0.125345    0.141251    0.166729    0.755427    1.168114    1.203357


........................................................................
.............................. CYCLE    1 ..............................
........................................................................
   1     -5.7759079 -0.577591E+01  0.109E-05    8.21       0.0  T
   2     -5.7759079 -0.241585E-12  0.657E-06    8.21    7608.3  T
   3     -5.7759079 -0.861533E-13  0.326E-06    8.21   15347.5  T
     SCC iter.                  ...        0 min,  0.000 sec
     gradient                   ...        0 min,  0.000 sec
 * total energy  :    -5.7364729 Eh     change        0.2258194E-10 Eh
   gradient norm :     0.0641558 Eh/α   predicted     0.0000000E+00 (-100.00%)
   displ. norm   :     0.0801706 α      lambda       -0.4820262E-02
   maximum displ.:     0.0681252 α      in ANC's #4, #6, #2, ...

........................................................................
.............................. CYCLE    2 ..............................
........................................................................
   1     -5.7869730 -0.578697E+01  0.534E-01    8.41       0.0  T
   2     -5.7869965 -0.235114E-04  0.306E-01    8.40       1.0  T
   3     -5.7870044 -0.789577E-05  0.437E-02    8.39       1.1  T
   4     -5.7870048 -0.368581E-06  0.139E-02    8.40       3.6  T
   5     -5.7870048 -0.157063E-07  0.491E-03    8.40      10.2  T
   6     -5.7870049 -0.278230E-07  0.109E-03    8.40      45.7  T
   7     -5.7870049 -0.122888E-08  0.491E-04    8.40     101.9  T
   8     -5.7870049 -0.341930E-09  0.271E-05    8.40    1846.2  T
     SCC iter.                  ...        0 min,  0.000 sec
     gradient                   ...        0 min,  0.000 sec
 * total energy  :    -5.7400302 Eh     change       -0.3557249E-02 Eh
   gradient norm :     0.0302068 Eh/α   predicted    -0.2425621E-02 ( -31.81%)
   displ. norm   :     0.0771951 α      lambda       -0.2003343E-02
   maximum displ.:     0.0543441 α      in ANC's #4, #2, #6, ...

........................................................................
.............................. CYCLE    3 ..............................
........................................................................
   1     -5.7942722 -0.579427E+01  0.506E-01    8.31       0.0  T
   2     -5.7942869 -0.147525E-04  0.290E-01    8.30       1.0  T
   3     -5.7942928 -0.583741E-05  0.334E-02    8.31       1.5  T
   4     -5.7942929 -0.148043E-06  0.877E-03    8.31       5.7  T
   5     -5.7942929 -0.115039E-07  0.144E-03    8.31      34.6  T
   6     -5.7942929 -0.120680E-08  0.521E-04    8.31      95.9  T
   7     -5.7942929  0.342881E-10  0.171E-04    8.31     292.4  T
     SCC iter.                  ...        0 min,  0.000 sec
     gradient                   ...        0 min,  0.000 sec
 * total energy  :    -5.7409330 Eh     change       -0.9028275E-03 Eh
   gradient norm :     0.0065163 Eh/α   predicted    -0.1007641E-02 (  11.61%)
   displ. norm   :     0.0162259 α      lambda       -0.7868145E-04
   maximum displ.:     0.0135050 α      in ANC's #2, #4, #3, ...

........................................................................
.............................. CYCLE    4 ..............................
........................................................................
   1     -5.7931319 -0.579313E+01  0.601E-02    8.25       0.0  T
   2     -5.7931363 -0.433078E-05  0.347E-02    8.26       1.4  T
   3     -5.7931369 -0.625907E-06  0.185E-02    8.26       2.7  T
   4     -5.7931370 -0.965692E-07  0.262E-03    8.26      19.1  T
   5     -5.7931370 -0.534235E-09  0.308E-04    8.26     162.3  T
   6     -5.7931370 -0.349347E-10  0.935E-05    8.26     535.0  T
     SCC iter.                  ...        0 min,  0.000 sec
     gradient                   ...        0 min,  0.000 sec
 * total energy  :    -5.7409690 Eh     change       -0.3602219E-04 Eh
   gradient norm :     0.0008806 Eh/α   predicted    -0.3935159E-04 (   9.24%)
   displ. norm   :     0.0021404 α      lambda       -0.1174106E-05
   maximum displ.:     0.0018636 α      in ANC's #4, #3, #2, ...

........................................................................
.............................. CYCLE    5 ..............................
........................................................................
   1     -5.7934313 -0.579343E+01  0.816E-03    8.28       0.0  T
   2     -5.7934313 -0.130376E-07  0.453E-03    8.28      11.0  T
   3     -5.7934313 -0.227045E-08  0.102E-03    8.28      49.2  T
   4     -5.7934313 -0.211328E-09  0.366E-04    8.28     136.5  T
   5     -5.7934313 -0.146153E-09  0.133E-04    8.28     377.3  T
     SCC iter.                  ...        0 min,  0.000 sec
     gradient                   ...        0 min,  0.000 sec
 * total energy  :    -5.7409697 Eh     change       -0.6951435E-06 Eh
   gradient norm :     0.0003011 Eh/α   predicted    -0.5867960E-06 ( -15.59%)
   displ. norm   :     0.0007272 α      lambda       -0.1009552E-06
   maximum displ.:     0.0006008 α      in ANC's #2, #6, #3, ...

   *** GEOMETRY OPTIMIZATION CONVERGED AFTER 5 ITERATIONS ***

------------------------------------------------------------------------
 total energy gain   :        -0.0044968 Eh       -2.8218 kcal/mol
 total RMSD          :         0.0788137 a0        0.0417 Å
 total power (kW/mol):        -2.3612662 (step)-2353.6927 (real)
------------------------------------------------------------------------

 ANCopt (total)                0 d,  0 h,  0 min,  0.005 sec
 optimizer setup                ...        0 min,  0.000 sec (  2.997%)
 model hessian                  ...        0 min,  0.000 sec (  1.210%)
 ANC generation                 ...        0 min,  0.000 sec (  0.714%)
 coordinate transformation      ...        0 min,  0.000 sec (  0.194%)
 single point calculation       ...        0 min,  0.004 sec ( 88.229%)
 optimization log               ...        0 min,  0.000 sec (  1.574%)
 hessian update                 ...        0 min,  0.000 sec (  0.161%)
 rational function              ...        0 min,  0.000 sec (  1.707%)

================
 final structure:
================
4
 xtb: 6.2.2 (9d81278992624c895f80dd42a50cac0aa55982e2)
C         1.24414118295486   -0.01811414781576   -0.05267560576629
N        -0.09475921210206   -0.00235161861051    0.25912063419559
H        -0.58732688882134   -0.82223614253116   -0.11539788932684
H        -0.56205508203146    0.84270190895744   -0.09104613910245

 Bond Distances (Angstroems)
 ---------------------------
C1-N2=1.3748         N2-C1=1.3748         N2-H3=1.0272         N2-H4=1.0272         H3-N2=1.0272         H4-N2=1.0272         
 N  H  Rav=1.0272 sigma=0.0000  Rmin=1.0272  Rmax=1.0272     2
 N  C  Rav=1.3748 sigma=0.0000  Rmin=1.3748  Rmax=1.3748     1

 selected bond angles (degree)
 --------------------
H3-N2-C1=112.03                H4-N2-C1=112.03                H4-N2-H3=108.31                

 selected dihedral angles (degree)
 ---------------------------------

           -------------------------------------------------
          |                Final Singlepoint                |
           -------------------------------------------------

          ...................................................
          :                      SETUP                      :
          :.................................................:
          :  # basis functions                  10          :
          :  # atomic orbitals                  10          :
          :  # shells                            6          :
          :  # electrons                        11          :
          :  max. iterations                   250          :
          :  Hamiltonian                  GFN2-xTB          :
          :  restarted?                      false          :
          :  GBSA solvation                  false          :
          :  PC potential                    false          :
          :  electronic temp.          300.0000000     K    :
          :  accuracy                    1.0000000          :
          :  -> integral cutoff          0.2500000E+02      :
          :  -> integral neglect         0.1000000E-07      :
          :  -> SCF convergence          0.1000000E-05 Eh   :
          :  -> wf. convergence          0.1000000E-03 e    :
          :  Broyden damping             0.4000000          :
          ...................................................

 iter      E             dE          RMSdq      gap      omega  full diag
   1     -5.7934313 -0.579343E+01  0.150E-05    8.28       0.0  T
   2     -5.7934313 -0.195399E-13  0.854E-06    8.28    5854.7  T
   3     -5.7934313  0.000000E+00  0.120E-06    8.28   41694.5  T

   *** convergence criteria satisfied after 3 iterations ***

         #    Occupation            Energy/Eh            Energy/eV
      -------------------------------------------------------------
         1        2.0000           -0.6320564             -17.1991
         2        2.0000           -0.5599503             -15.2370
         3        2.0000           -0.5424096             -14.7597
         4        2.0000           -0.4587473             -12.4831
         5        1.0000           -0.3909956             -10.6395
         6        1.0000           -0.2854664              -7.7679
         7        1.0000           -0.2575828              -7.0092 (HOMO)
         8                          0.0467738               1.2728 (LUMO)
         9                          0.1750463               4.7633
        10                          0.2568244               6.9885
      -------------------------------------------------------------
                  HL-Gap            0.3043566 Eh            8.2820 eV
             Fermi-level           -0.2651380 Eh           -7.2148 eV

 SCC (total)                   0 d,  0 h,  0 min,  0.001 sec
 SCC setup                      ...        0 min,  0.000 sec (  6.300%)
 Dispersion                     ...        0 min,  0.000 sec (  0.492%)
 integral evaluation            ...        0 min,  0.000 sec ( 36.755%)
 zeroth order Hamiltonian       ...        0 min,  0.000 sec (  0.615%)
 iterations                     ...        0 min,  0.000 sec ( 15.857%)
 molecular gradient             ...        0 min,  0.000 sec ( 33.006%)
 printout                       ...        0 min,  0.000 sec (  6.054%)

         :::::::::::::::::::::::::::::::::::::::::::::::::::::
         ::                     SUMMARY                     ::
         :::::::::::::::::::::::::::::::::::::::::::::::::::::
         :: total energy              -5.740969716569 Eh    ::
         :: gradient norm              0.000300301254 Eh/a0 ::
         :: HOMO-LUMO gap              8.281965944600 eV    ::
         ::.................................................::
         :: SCC energy                -5.793431308784 Eh    ::
         :: -> isotropic ES            0.008630750589 Eh    ::
         :: -> anisotropic ES          0.001266590004 Eh    ::
         :: -> anisotropic XC          0.002928583926 Eh    ::
         :: -> dispersion             -0.000727318660 Eh    ::
         :: repulsion energy           0.052461588408 Eh    ::
         :: add. restraining           0.000000000000 Eh    ::
         :::::::::::::::::::::::::::::::::::::::::::::::::::::

           ------------------------------------------------- 
          |                Numerical Hessian                |
           ------------------------------------------------- 
step length          :   0.00500
SCC accuracy         :   0.30000
Hessian scale factor :   1.00000
frozen atoms in %    :   0.00000    0
RMS gradient         :   0.00030
estimated CPU  time      0.00 min
estimated wall time      0.00 min

writing file <hessian>.

 projected vibrational frequencies (cm-1)
eigval :       -0.00    -0.00    -0.00     0.00     0.00     0.00
eigval :      918.82  1105.52  1283.73  1451.14  3108.66  3129.93
           -------------------------------------------------
          |                Property Printout                |
           -------------------------------------------------

    * Orbital Energies and Occupations

         #    Occupation            Energy/Eh            Energy/eV
      -------------------------------------------------------------
         1        2.0000           -0.6320564             -17.1991
         2        2.0000           -0.5599503             -15.2370
         3        2.0000           -0.5424095             -14.7597
         4        2.0000           -0.4587473             -12.4831
         5        1.0000           -0.3909956             -10.6395
         6        1.0000           -0.2854664              -7.7679
         7        1.0000           -0.2575828              -7.0092 (HOMO)
         8                          0.0467738               1.2728 (LUMO)
         9                          0.1750463               4.7633
        10                          0.2568244               6.9885
      -------------------------------------------------------------
                  HL-Gap            0.3043566 Eh            8.2820 eV
             Fermi-level           -0.2651380 Eh           -7.2148 eV

     #   Z        covCN         q      C6AA      α(0)
     1   6 C      0.910    -0.141    39.955    10.578
     2   7 N      2.628    -0.207    25.510     7.501
     3   1 H      0.859     0.174     1.250     1.751
     4   1 H      0.859     0.174     1.250     1.751

 Mol. C6AA /au·bohr⁶  :        184.491939
 Mol. C8AA /au·bohr⁸  :       4273.460428
 Mol. α(0) /au        :         21.581876


Wiberg/Mayer (AO) data.
Molecule has the following symmetry elements: (sigma) 
It seems to be the Cs point group
largest (>0.10) Wiberg bond orders for each atom
          total WBO             WBO to atom ...
     1  C   1.159        N    2 1.157
     2  N   2.990        C    1 1.157    H    4 0.916    H    3 0.916
     3  H   0.918        N    2 0.916
     4  H   0.918        N    2 0.916

MOs/occ written to file <molden.input>


molecular dipole:
                 x           y           z       tot (Debye)
 q only:       -0.672       0.012      -0.155
   full:       -0.693       0.016      -0.373       1.999
molecular quadrupole (traceless):
                xx          xy          yy          xz          yz          zz
 q only:       -0.786       0.025       1.066       0.187       0.017      -0.280
  q+dip:       -0.248       0.016       1.357       0.581       0.027      -1.109
   full:       -0.148       0.016       1.478       0.628       0.032      -1.330

           -------------------------------------------------
          |                Geometry Summary                 |
           -------------------------------------------------

      molecular mass/u    :       28.0333206
   center of mass at/Å    :        0.4443743      -0.0082022       0.0994754
  moments of inertia/u·Å² :        0.1740484E+01   0.1456733E+02   0.1562212E+02
rotational constants/cm⁻¹ :        0.9685602E+01   0.1157222E+01   0.1079087E+01

 * 2 selected distances

     #   Z        #   Z                                     value/Å
     2   7 N      3   1 H                                 1.0271795 (max)
     2   7 N      4   1 H                                 1.0271795 (min)

 * 1 distinct bonds (by element types)

   Z      Z             #   av. dist./Å        max./Å        min./Å
   1 H    7 N           2     1.0271795     1.0271795     1.0271795

           -------------------------------------------------
          |               Frequency Printout                |
           -------------------------------------------------
 projected vibrational frequencies (cm-1)
eigval :       -0.00    -0.00    -0.00     0.00     0.00     0.00
eigval :      918.82  1105.52  1283.73  1451.14  3108.66  3129.93
 reduced masses (amu)
   1: 11.19   2: 11.68   3:  7.86   4: 12.12   5: 11.17   6:  5.38   7:  3.94   8:  2.92
   9: 12.64  10:  1.68  11:  1.39  12:  2.13
 IR intensities (amu)
   1:  0.10   2:  0.14   3:  0.10   4:  0.11   5:  0.23   6:  0.18   7:  0.52   8:  0.15
   9:  0.16  10:  0.18  11:  0.05  12:  0.01
 Raman intensities (amu)
   1:  0.00   2:  0.00   3:  0.00   4:  0.00   5:  0.00   6:  0.00   7:  0.00   8:  0.00
   9:  0.00  10:  0.00  11:  0.00  12:  0.00
 output can be read by thermo (or use thermo option).
 writing <g98.out> molden fake output.
 recommended (thermochemical) frequency scaling factor: 1.0
           -------------------------------------------------
          |             Thermodynamic Functions             |
           -------------------------------------------------

cs  symmetry found (for desy threshold:  0.10E+00) used in thermo

          ...................................................
          :                      SETUP                      :
          :.................................................:
          :  # frequencies                           6      :
          :  # imaginary freq.                       0      :
          :  linear?                             false      :
          :  only rotor calc.                    false      :
          :  symmetry                               cs      :
          :  rotational number                       1      :
          :  scaling factor                  1.0000000      :
          :  rotor cutoff                   50.0000000 cm⁻¹ :
          :  imag. cutoff                  -20.0000000 cm⁻¹ :
          :.................................................:

    mode    ω/cm⁻¹     T·S(HO)/kcal·mol⁻¹    T·S(FR)/kcal·mol⁻¹   T·S(vib)
   ------------------------------------------------------------------------
   ------------------------------------------------------------------------

   temp. (K)  partition function   enthalpy   heat capacity  entropy
                                   cal/mol     cal/K/mol   cal/K/mol   J/K/mol
 298.15  VIB   1.02                   58.148      0.995      0.234
         ROT  0.152E+04              888.752      2.981     17.541
         INT  0.155E+04              946.900      3.976     17.775
         TR   0.144E+27             1481.254      4.968     35.911
         TOT                        2428.1539     8.9444    53.6859   224.6220

   temp. (K)  partition function   enthalpy   heat capacity  entropy
                                   cal/mol     cal/K/mol   cal/K/mol   J/K/mol
 120.00  VIB   1.00                    0.050      0.005      0.000
         ROT   388.                  357.707      2.981     14.828
         INT   388.                  357.756      2.986     14.828
         TR   0.367E+26              596.178      4.968     31.391
         TOT                         953.9344     7.9537    46.2199   193.3841

   temp. (K)  partition function   enthalpy   heat capacity  entropy
                                   cal/mol     cal/K/mol   cal/K/mol   J/K/mol
 100.00  VIB   1.00                    0.005      0.001      0.000
         ROT   295.                  298.089      2.981     14.285
         INT   295.                  298.094      2.982     14.285
         TR   0.279E+26              496.815      4.968     30.486
         TOT                         794.9092     7.9497    44.7707   187.3205

   temp. (K)  partition function   enthalpy   heat capacity  entropy
                                   cal/mol     cal/K/mol   cal/K/mol   J/K/mol
  80.00  VIB   1.00                    0.000      0.000     -0.000
         ROT   211.                  238.471      2.981     13.619
         INT   211.                  238.471      2.981     13.619
         TR   0.200E+26              397.452      4.968     29.378
         TOT                         635.9234     7.9491    42.9974   179.9010

   temp. (K)  partition function   enthalpy   heat capacity  entropy
                                   cal/mol     cal/K/mol   cal/K/mol   J/K/mol
  60.00  VIB   1.00                    0.000      0.000     -0.000
         ROT   137.                  178.853      2.981     12.762
         INT   137.                  178.853      2.981     12.762
         TR   0.130E+26              298.089      4.968     27.950
         TOT                         476.9424     7.9490    40.7113   170.3360

   temp. (K)  partition function   enthalpy   heat capacity  entropy
                                   cal/mol     cal/K/mol   cal/K/mol   J/K/mol
  40.00  VIB   1.00                    0.000      0.000     -0.000
         ROT   74.7                  119.236      2.981     11.553
         INT   74.7                  119.236      2.981     11.553
         TR   0.706E+25              198.726      4.968     25.936
         TOT                         317.9616     7.9490    37.4892   156.8548

   temp. (K)  partition function   enthalpy   heat capacity  entropy
                                   cal/mol     cal/K/mol   cal/K/mol   J/K/mol
  20.00  VIB   1.00                    0.000      0.000     -0.000
         ROT   26.4                   59.618      2.981      9.487
         INT   26.4                   59.618      2.981      9.487
         TR   0.249E+25               99.363      4.968     22.494
         TOT                         158.9808     7.9490    31.9810   133.8085

   temp. (K)  partition function   enthalpy   heat capacity  entropy
                                   cal/mol     cal/K/mol   cal/K/mol   J/K/mol
  10.00  VIB   1.00                    0.000      0.000     -0.000
         ROT   9.34                   29.809      2.981      7.421
         INT   9.34                   29.809      2.981      7.421
         TR   0.882E+24               49.681      4.968     19.052
         TOT                          79.4904     7.9490    26.4728   110.7623

       T/K    H(0)-H(T)+PV         H(T)/Eh          T*S/Eh         G(T)/Eh
   ------------------------------------------------------------------------
    298.15    0.386951E-02    0.289243E-01    0.255079E-01    0.341642E-02
    120.00    0.152019E-02    0.265750E-01    0.883873E-02    0.177363E-01
    100.00    0.126677E-02    0.263216E-01    0.713466E-02    0.191869E-01
     80.00    0.101341E-02    0.260682E-01    0.548165E-02    0.205866E-01
     60.00    0.760056E-03    0.258149E-01    0.389265E-02    0.219222E-01
     40.00    0.506704E-03    0.255615E-01    0.238971E-02    0.231718E-01
     20.00    0.253352E-03    0.253082E-01    0.101930E-02    0.242889E-01
     10.00    0.126676E-03    0.251815E-01    0.421871E-03    0.247596E-01 (used)
   ------------------------------------------------------------------------

         :::::::::::::::::::::::::::::::::::::::::::::::::::::
         ::                  THERMODYNAMIC                  ::
         :::::::::::::::::::::::::::::::::::::::::::::::::::::
         :: total free energy          -5.716210072534 Eh   ::
         ::.................................................::
         :: total energy               -5.740969716555 Eh   ::
         :: zero point energy           0.025054839335 Eh   ::
         :: G(RRHO) w/o ZPVE           -0.000295195313 Eh   ::
         :: G(RRHO) contrib.            0.024759644022 Eh   ::
         :::::::::::::::::::::::::::::::::::::::::::::::::::::

optimized geometry written to: xtbopt.xyz


           -------------------------------------------------
          | TOTAL ENERGY               -5.740969716555 Eh   |
          | TOTAL ENTHALPY             -5.715788201205 Eh   |
          | TOTAL FREE ENERGY          -5.716210072534 Eh   |
          | GRADIENT NORM               0.000300297427 Eh/α |
          | HOMO-LUMO GAP               8.281965889433 eV   |
           -------------------------------------------------

------------------------------------------------------------------------
 * finished run on 2020/05/12 at 11:43:50.432     
------------------------------------------------------------------------
 total:
 * wall-time:     0 d,  0 h,  0 min,  0.047 sec
 *  cpu-time:     0 d,  0 h,  0 min,  0.047 sec
 * ratio c/w:     0.998 speedup
 SCF:
 * wall-time:     0 d,  0 h,  0 min,  0.002 sec
 *  cpu-time:     0 d,  0 h,  0 min,  0.002 sec
 * ratio c/w:     0.983 speedup
 ANC optimizer:
 * wall-time:     0 d,  0 h,  0 min,  0.007 sec
 *  cpu-time:     0 d,  0 h,  0 min,  0.007 sec
 * ratio c/w:     0.999 speedup
 numerical hessian:
 * wall-time:     0 d,  0 h,  0 min,  0.023 sec
 *  cpu-time:     0 d,  0 h,  0 min,  0.023 sec
 * ratio c/w:     0.999 speedup

