[Molden Format]
[Title]
[Atoms] AU
C      1     6  0.10783085181183E+01 -0.28377260844612E-02 -0.13186328112631E-01
C      2     6 -0.13062357898369E+01  0.14274222326080E+00  0.12647109104102E+00
C      3     6  0.34613684864671E+01  0.97844145767559E-01  0.43363444301394E-01
H      4     1 -0.32334431044678E+01 -0.23774864293070E+00 -0.15664631749724E+00
[GTO]
           1 0
 s           4   1.0000000000000000     
   51.049363095579913      -0.16312063210127389     
   8.7911227406887544      -0.19911024581000730     
  0.70640422258929825       0.31882047753655751     
  0.26922813413411617       0.12706504184240380     
 p           4   1.0000000000000000     
   5.8263656140800002       0.73716451545209605     
   1.5106896018720002       0.68216371614850257     
  0.53256483288000001       0.35783053929253711     
  0.21202323690600003        5.3983030275847881E-002

           2 0
 s           4   1.0000000000000000     
   51.049363095579913      -0.16312063210127389     
   8.7911227406887544      -0.19911024581000730     
  0.70640422258929825       0.31882047753655751     
  0.26922813413411617       0.12706504184240380     
 p           4   1.0000000000000000     
   5.8263656140800002       0.73716451545209605     
   1.5106896018720002       0.68216371614850257     
  0.53256483288000001       0.35783053929253711     
  0.21202323690600003        5.3983030275847881E-002

           3 0
 s           4   1.0000000000000000     
   51.049363095579913      -0.16312063210127389     
   8.7911227406887544      -0.19911024581000730     
  0.70640422258929825       0.31882047753655751     
  0.26922813413411617       0.12706504184240380     
 p           4   1.0000000000000000     
   5.8263656140800002       0.73716451545209605     
   1.5106896018720002       0.68216371614850257     
  0.53256483288000001       0.35783053929253711     
  0.21202323690600003        5.3983030275847881E-002

           4 0
 s           3   1.0000000000000000     
   3.3702276975336001       0.27359110588908298     
  0.61389118221497996       0.26460540653860526     
  0.16614291148415999        8.2465947534082318E-002

[MO]
Sym=     1a
Ene=  -0.63743771983087749     
Spin= Alpha
Occup=     2.00000000
           1 -0.55772925214027946     
           2  -7.2998025695029736E-003
           3  -1.3488268111536543E-002
           4  -1.0676046323512975E-002
           5 -0.31876878265910452     
           6 -0.16831189221346038     
           7   1.0025888013629049E-002
           8   9.6538891073714838E-003
           9 -0.33523583609584240     
          10  0.18438015366897814     
          11   4.8817557597566367E-003
          12   2.0585493094320392E-003
          13  -5.3607471987918598E-002
Sym=     2a
Ene=  -0.59876423870690532     
Spin= Alpha
Occup=     2.00000000
           1  -1.8831307039668250E-002
           2 -0.40378118385328138     
           3  -8.0533208591921184E-005
           4   3.9526109966198045E-003
           5  0.46982658961217361     
           6   3.3323903752359857E-002
           7  -1.9026162731178908E-002
           8  -1.5467395187306044E-002
           9 -0.42423330916723334     
          10   9.4704127632246393E-002
          11   7.6478298028398060E-003
          12   5.1549537629759518E-003
          13  0.17252399208733019     
Sym=     3a
Ene=  -0.52370227064824737     
Spin= Alpha
Occup=     2.00000000
           1  0.15895281721802065     
           2 -0.21246567458828922     
           3   3.4324828532631441E-002
           4   2.9374422272084096E-002
           5 -0.23257068131037464     
           6  0.46148716427470160     
           7   4.6771382316010017E-002
           8   3.2531015428729458E-002
           9 -0.28542916631499077     
          10  -4.3264139421869657E-002
          11   1.7553600670464620E-002
          12   1.4380324384937851E-002
          13 -0.47183607802256544     
Sym=     4a
Ene=  -0.46835505875777450     
Spin= Alpha
Occup=     2.00000000
           1   7.4830601606767994E-002
           2  -1.5112650253492503E-002
           3 -0.47441210450683319     
           4 -0.37818142737451310     
           5  -8.8665997496152310E-002
           6   3.4083973857299131E-002
           7 -0.33040543187684301     
           8 -0.26383300884725519     
           9  -7.7451019853951517E-002
          10  -3.1018395179617467E-002
          11 -0.32877498318571324     
          12 -0.26187995209724069     
          13  -1.0203578764734367E-002
Sym=     5a
Ene=  -0.46811112306680480     
Spin= Alpha
Occup=     2.00000000
           1  -7.0089296751456916E-005
           2  -4.7365467923382630E-003
           3  0.38230077846662719     
           4 -0.47941847986067448     
           5   1.3880960485746771E-004
           6  -3.4368328536842113E-003
           7  0.26688816913106789     
           8 -0.33469174103480959     
           9   1.0605081155128561E-004
          10  -3.2478165733863624E-003
          11  0.26463312447888260     
          12 -0.33185664663963027     
          13   4.0709923610955545E-005
Sym=     6a
Ene=  -0.41130229479966623     
Spin= Alpha
Occup=     1.00000000
           1  0.13777008539671340     
           2  0.21847359822676743     
           3   4.1642187752695813E-002
           4   3.0949705706690103E-002
           5 -0.10939376391023595     
           6 -0.17010451291207521     
           7   2.5958302998357653E-002
           8   2.2410824371065403E-002
           9 -0.62267442814347707     
          10 -0.68248822876690896     
          11   1.9481272068734172E-002
          12   2.2216625013394536E-002
          13  0.12455309061789346     
Sym=     7a
Ene=  -0.34436251738570173     
Spin= Alpha
Occup=     1.00000000
           1  -2.1369651484988265E-002
           2   2.8585389794677538E-002
           3  -1.6551387036637857E-002
           4  -1.3441406314046032E-002
           5  0.13988745894709667     
           6  -4.4783835646640124E-002
           7  0.55137770095862859     
           8  0.43881601595864639     
           9  -1.4139697541212137E-002
          10   6.6885345012392561E-003
          11 -0.54881669117093512     
          12 -0.43640388361973020     
          13  -5.6948912665227260E-002
Sym=     8a
Ene=  -0.34170369423066582     
Spin= Alpha
Occup=     1.00000000
           1   2.3963208738282450E-006
           2   6.3012983906914939E-005
           3  -4.0962222833138794E-003
           4   5.1550326481239325E-003
           5  -9.3309809779679503E-006
           6  -5.6439634804755666E-003
           7  0.44527848015832405     
           8 -0.56006398562618254     
           9  -7.4693450531575342E-006
          10   5.4365312597473665E-003
          11 -0.44140543406834670     
          12  0.55519759192896911     
          13   7.5682981101997814E-006
Sym=     9a
Ene=  -0.13314451295407667     
Spin= Alpha
Occup=     0.00000000
           1   3.6292746448213647E-002
           2   1.1205070772971060E-002
           3 -0.67279690937832759     
           4 -0.53500379402855913     
           5  0.15027249847322022     
           6  -9.6855533107896963E-002
           7  0.44031015720934158     
           8  0.35103389270149560     
           9   6.0819102193894166E-003
          10  -2.0278740158866396E-002
          11  0.49055841551400081     
          12  0.39020849889074588     
          13 -0.13844791572375217     
Sym=    10a
Ene=  -0.12575140813865976     
Spin= Alpha
Occup=     0.00000000
           1  -1.0318811475534686E-004
           2   6.7835240027266106E-003
           3 -0.54139504486655754     
           4  0.68097362631158076     
           5   6.9014830250612889E-005
           6  -4.7664583761778340E-003
           7  0.37851430546018655     
           8 -0.47613560322506843     
           9   8.1360443954384885E-006
          10  -4.8413521875690733E-003
          11  0.38508034929018442     
          12 -0.48435884416373132     
          13  -5.7957932381145450E-005
Sym=    11a
Ene=   0.11388589834520696     
Spin= Alpha
Occup=     0.00000000
           1 -0.60148683872516195     
           2  0.17826849812821832     
           3   4.9235549230881137E-002
           4   3.7221449936645633E-002
           5  0.98218754310960754     
           6 -0.22387448920809239     
           7 -0.21683537343985990     
           8 -0.17006552579283715     
           9  0.17133328034338677     
          10 -0.35429560201720484     
          11  -3.1572256740919985E-002
          12  -2.1533870126459066E-002
          13 -0.92847923200175253     
Sym=    12a
Ene=   0.55125714029956507     
Spin= Alpha
Occup=     0.00000000
           1   1.0816263492883786     
           2  0.24021852175965175     
           3  0.11336916854371074     
           4   8.7860926781809109E-002
           5  0.11821928000375038     
           6 -0.90117505427844669     
           7 -0.10054325944730405     
           8  -7.0924742576768507E-002
           9 -0.53053736281241271     
          10  0.70766038310738366     
          11  -7.3982788424430113E-004
          12  -7.5932639047889038E-003
          13 -0.68921567889297863     
Sym=    13a
Ene=    1.2829982034993566     
Spin= Alpha
Occup=     0.00000000
           1  0.13168256437963199     
           2  -1.4746274737701348     
           3   3.5114536417140664E-002
           4   4.2591270735901333E-002
           5 -0.61334052332902955     
           6  -1.0168883962052975     
           7   1.8856916690894412E-002
           8   2.5225037054812008E-002
           9  0.72922233442681617     
          10 -0.69069727757269495     
          11  -5.2520011623204986E-002
          12  -3.4977197333661746E-002
          13 -0.38552338582647022     
