4
 energy: -6.582671670173 gnorm: 0.000405623943 xtb: 6.2.2 (9d81278992624c895f80dd42a50cac0aa55982e2)
C         0.57061634705251   -0.00150166011401   -0.00697790498010
C        -0.69123027617985    0.07553593859146    0.06692562542630
C         1.83167749151900    0.05177689696432    0.02294694863957
H        -1.71106456238817   -0.12581117543478   -0.08289366908228
