$hessian                                                                        
        1.0567406441  -0.0001795272  -0.0103228632  -0.5167107862   0.0092554461
        0.0125231160  -0.5280334812  -0.0213047275  -0.0119386013  -0.0119963767
        0.0122288085   0.0097383485
       -0.0001795272   0.0385690531   0.0036307510   0.0359389680  -0.0056990593
       -0.0031357054  -0.0327323906  -0.0228041349  -0.0008976126  -0.0030270503
       -0.0100658589   0.0004025670
       -0.0103228632   0.0036307510   0.0370138215   0.0337575658  -0.0028502965
       -0.0048546633  -0.0210423578  -0.0010163028  -0.0218633042  -0.0023923448
        0.0002358483  -0.0102958540
       -0.5167107862   0.0359389680   0.0337575658   1.0474373278   0.0455215053
        0.0256808924  -0.1720273745  -0.0034744960  -0.0010505716  -0.3586991670
       -0.0779859773  -0.0583878866
        0.0092554461  -0.0056990593  -0.0028502965   0.0455215053   0.0167754116
        0.0127636704   0.0105465504   0.0022819612   0.0005999663  -0.0653235019
       -0.0133583136  -0.0105133402
        0.0125231160  -0.0031357054  -0.0048546633   0.0256808924   0.0127636704
        0.0100366289   0.0101159044   0.0007513475   0.0018940027  -0.0483199127
       -0.0103793125  -0.0070759683
       -0.5280334812  -0.0327323906  -0.0210423578  -0.1720273745   0.0105465504
        0.0101159044   0.7009767631   0.0248783136   0.0129922325  -0.0009159074
       -0.0026924734  -0.0020657791
       -0.0213047275  -0.0228041349  -0.0010163028  -0.0034744960   0.0022819612
        0.0007513475   0.0248783136   0.0143320252   0.0005780420  -0.0000990900
        0.0061901484  -0.0003130867
       -0.0119386013  -0.0008976126  -0.0218633042  -0.0010505716   0.0005999663
        0.0018940027   0.0129922325   0.0005780420   0.0136235990  -0.0000030596
       -0.0002803957   0.0063457026
       -0.0119963767  -0.0030270503  -0.0023923448  -0.3586991670  -0.0653235019
       -0.0483199127  -0.0009159074  -0.0000990900  -0.0000030596   0.3716114512
        0.0684496421   0.0507153171
        0.0122288085  -0.0100658589   0.0002358483  -0.0779859773  -0.0133583136
       -0.0103793125  -0.0026924734   0.0061901484  -0.0002803957   0.0684496421
        0.0172340242   0.0104238599
        0.0097383485   0.0004025670  -0.0102958540  -0.0583878866  -0.0105133402
       -0.0070759683  -0.0020657791  -0.0003130867   0.0063457026   0.0507153171
        0.0104238599   0.0110261197
