 Entering Gaussian System
 *********************************************
 Gaussian 98:
 frequency output generated by the xtb code
 *********************************************
                         Standard orientation:
 --------------------------------------------------------------------
  Center     Atomic     Atomic              Coordinates (Angstroms)
  Number     Number      Type              X           Y           Z
 --------------------------------------------------------------------
    1          6             0        0.570616   -0.001502   -0.006978
    2          6             0       -0.691230    0.075536    0.066926
    3          6             0        1.831677    0.051777    0.022947
    4          1             0       -1.711065   -0.125811   -0.082894
 --------------------------------------------------------------------
     1 basis functions        1 primitive gaussians
     1 alpha electrons        1 beta electrons

 Harmonic frequencies (cm**-1), IR intensities (KM/Mole),
 Raman scattering activities (A**4/amu), Raman depolarization ratios,
 reduced masses (AMU), force constants (mDyne/A) and normal coordinates:
                      1                      2                      3
                        a                      a                      a 
 Frequencies --   243.1490               435.5035               441.8555
 Red. masses --     8.6594                 7.0647                 5.9267
 Frc consts  --     0.0000                 0.0000                 0.0000
 IR Inten    --     0.3066                 0.0609                 0.1173
 Raman Activ --     0.0000                 0.0000                 0.0000
 Depolar     --     0.0000                 0.0000                 0.0000
 Atom AN      X      Y      Z        X      Y      Z        X      Y      Z
   1   6    -0.00   0.47   0.38    -0.01   0.38  -0.50    -0.01  -0.44  -0.34
   2   6    -0.01  -0.41  -0.32     0.00  -0.03   0.03     0.08  -0.02  -0.02
   3   6     0.06  -0.18  -0.15     0.00  -0.24   0.31    -0.03   0.29   0.22
   4   1    -0.16   0.41   0.33     0.00  -0.41   0.53    -0.15   0.58   0.44
                      4                      5                      6
                        a                      a                      a 
 Frequencies --  1360.8483              1854.2339              3347.7525
 Red. masses --    11.4546                11.7868                 2.0869
 Frc consts  --     0.0000                 0.0000                 0.0000
 IR Inten    --     0.0699                 0.2127                 0.1739
 Raman Activ --     0.0000                 0.0000                 0.0000
 Depolar     --     0.0000                 0.0000                 0.0000
 Atom AN      X      Y      Z        X      Y      Z        X      Y      Z
   1   6    -0.04   0.06   0.05     0.82   0.00  -0.01     0.03  -0.01  -0.00
   2   6     0.67  -0.04  -0.04    -0.35   0.01   0.01    -0.31  -0.05  -0.03
   3   6    -0.70  -0.02  -0.01    -0.43  -0.02  -0.01     0.01   0.00   0.00
   4   1     0.22   0.01   0.01    -0.14   0.01   0.01     0.92   0.18   0.13
