      -----------------------------------------------------------      
     |                   =====================                   |     
     |                           x T B                           |     
     |                   =====================                   |     
     |                         S. Grimme                         |     
     |          Mulliken Center for Theoretical Chemistry        |     
     |                    University of Bonn                     |     
      -----------------------------------------------------------      

   * xtb version 6.2.2 (9d81278992624c895f80dd42a50cac0aa55982e2) compiled by '@Darwin' on 04/03/2020

   xtb is free software: you can redistribute it and/or modify it under
   the terms of the GNU Lesser General Public License as published by
   the Free Software Foundation, either version 3 of the License, or
   (at your option) any later version.
   
   xtb is distributed in the hope that it will be useful,
   but WITHOUT ANY WARRANTY; without even the implied warranty of
   MERCHANTABILITY or FITNESS FOR A PARTICULAR PURPOSE.  See the
   GNU Lesser General Public License for more details.
   
   Cite this work as:
   * S. Grimme, C. Bannwarth, P. Shushkov, J. Chem. Theory Comput., 2017,
     13, 1989-2009. DOI: 10.1021/acs.jctc.7b00118
   * C. Bannwarth, S. Ehlert and S. Grimme., J. Chem. Theory Comput., 2019,
     15, 1652-1671. DOI: 10.1021/acs.jctc.8b01176
   * P. Pracht, E. Caldeweyher, S. Ehlert, S. Grimme, ChemRxiv, 2019, preprint.
     DOI: 10.26434/chemrxiv.8326202.v1
   
   for DFT-D4:
   * E. Caldeweyher, C. Bannwarth and S. Grimme, J. Chem. Phys., 2017,
     147, 034112. DOI: 10.1063/1.4993215
   * E. Caldeweyher, S. Ehlert, A. Hansen, H. Neugebauer, S. Spicher,
     C. Bannwarth and S. Grimme, J. Chem. Phys., 2019, 150, 154122.
     DOI: 10.1063/1.5090222
   
   for sTDA-xTB:
   * S. Grimme and C. Bannwarth, J. Chem. Phys., 2016, 145, 054103.
     DOI: 10.1063/1.4959605
   
   in the mass-spec context:
   * V. Asgeirsson, C. Bauer and S. Grimme, Chem. Sci., 2017, 8, 4879.
     DOI: 10.1039/c7sc00601b
   
   for metadynamics refer to:
   * S. Grimme, J. Chem. Theory Comput., 2019, 155, 2847-2862
     DOI: 10.1021/acs.jctc.9b00143
   
   with help from (in alphabetical order)
   C. Bannwarth, F. Bohle, G. Brandenburg, E. Caldeweyher, M. Checinski,
   S. Dohm, S. Ehlert, S. Ehrlich, F. März, H. Neugebauer, J. Pisarek,
   P. Pracht, P. Shushkov, and S. Spicher.
   
 * started run on 2020/05/12 at 11:43:51.473     

           -------------------------------------------------
          |                Calculation Setup                |
           -------------------------------------------------

          program call               : xtb --input H1C3_1_S_3.input H1C3_1_S_3.xyz --ohess --molden --namespace H1C3_1_S_3 output.out
          calculation namespace      : H1C3_1_S_3
          coordinate file            : H1C3_1_S_3.xyz
          number of atoms            :                     4
          number of electrons        :                    13
          charge                     :                     0
          spin                       :                   1.5
          first test random number   :      0.70113386478231

   ID    Z sym.   atoms
    1    6 C      1-3
    2    1 H      4

           -------------------------------------------------
          |                 G F N 2 - x T B                 |
           -------------------------------------------------

        Reference                      10.1021/acs.jctc.8b01176
      * Hamiltonian:
        H0-scaling (s, p, d)           1.850000    2.230000    2.230000
        zeta-weighting                 0.500000
      * Dispersion:
        s8                             2.700000
        a1                             0.520000
        a2                             5.000000
        s9                             5.000000
      * Repulsion:
        kExp                           1.500000    1.000000
        rExp                           1.000000
      * Coulomb:
        alpha                          2.000000
        third order                    shell-resolved
        anisotropic                    true
        a3                             3.000000
        a5                             4.000000
        cn-shift                       1.200000
        cn-exp                         4.000000
        max-rad                        5.000000


          ...................................................
          :                      SETUP                      :
          :.................................................:
          :  # basis functions                  13          :
          :  # atomic orbitals                  13          :
          :  # shells                            7          :
          :  # electrons                        13          :
          :  max. iterations                   250          :
          :  Hamiltonian                  GFN2-xTB          :
          :  restarted?                      false          :
          :  GBSA solvation                  false          :
          :  PC potential                    false          :
          :  electronic temp.          300.0000000     K    :
          :  accuracy                    1.0000000          :
          :  -> integral cutoff          0.2500000E+02      :
          :  -> integral neglect         0.1000000E-07      :
          :  -> SCF convergence          0.1000000E-05 Eh   :
          :  -> wf. convergence          0.1000000E-03 e    :
          :  Broyden damping             0.4000000          :
          ...................................................

 iter      E             dE          RMSdq      gap      omega  full diag
   1     -6.3955946 -0.639559E+01  0.922E+00    0.51       0.0  T
   2     -5.6209046  0.774690E+00  0.117E+01    1.04       1.0  T
   3     -6.0292342 -0.408330E+00  0.815E+00    1.10       1.0  T
   4     -6.3980553 -0.368821E+00  0.417E+00    0.34       1.0  T
   5     -6.4650235 -0.669683E-01  0.253E+00    0.36       1.0  T
   6     -6.4602659  0.475767E-02  0.233E+00    0.25       1.0  T
   7     -6.4712063 -0.109404E-01  0.173E+00    0.33       1.0  T
   8     -6.4782470 -0.704072E-02  0.385E-01    0.32       1.0  T
   9     -6.4781885  0.585482E-04  0.366E-01    0.32       1.0  T
  10     -6.4783575 -0.169020E-03  0.137E-01    0.31       1.0  T
  11     -6.4783689 -0.114031E-04  0.102E-01    0.30       1.0  T
  12     -6.4783803 -0.114250E-04  0.147E-02    0.30       3.4  T
  13     -6.4783803  0.637288E-07  0.113E-02    0.30       4.4  T
  14     -6.4783808 -0.561896E-06  0.220E-03    0.30      22.7  T
  15     -6.4783808 -0.263189E-08  0.110E-03    0.30      45.5  T
  16     -6.4783808 -0.167524E-08  0.322E-04    0.30     155.4  T
  17     -6.4783808 -0.138185E-09  0.422E-05    0.30    1183.9  T

   *** convergence criteria satisfied after 17 iterations ***

         #    Occupation            Energy/Eh            Energy/eV
      -------------------------------------------------------------
         1        2.0000           -0.6579798             -17.9045
         2        2.0000           -0.6093000             -16.5799
         3        2.0000           -0.5441712             -14.8077
         4        2.0000           -0.4873858             -13.2624
         5        1.9315           -0.4583919             -12.4735
         6        1.0685           -0.4534328             -12.3385
         7        1.0000           -0.3988523             -10.8533
         8        0.9970           -0.3523315              -9.5874 (HOMO)
         9        0.0030           -0.3413116              -9.2876 (LUMO)
        10                         -0.2890522              -7.8655
        11                          0.0927649               2.5243
        12                          0.1018485               2.7714
        13                          0.1401324               3.8132
      -------------------------------------------------------------
                  HL-Gap            0.0110198 Eh            0.2999 eV
             Fermi-level           -0.4013669 Eh          -10.9218 eV

 SCC (total)                   0 d,  0 h,  0 min,  0.002 sec
 SCC setup                      ...        0 min,  0.000 sec (  2.810%)
 Dispersion                     ...        0 min,  0.000 sec (  0.371%)
 integral evaluation            ...        0 min,  0.001 sec ( 23.761%)
 zeroth order Hamiltonian       ...        0 min,  0.000 sec (  0.562%)
 iterations                     ...        0 min,  0.001 sec ( 47.612%)
 molecular gradient             ...        0 min,  0.000 sec ( 22.581%)
 printout                       ...        0 min,  0.000 sec (  1.843%)

         :::::::::::::::::::::::::::::::::::::::::::::::::::::
         ::                     SUMMARY                     ::
         :::::::::::::::::::::::::::::::::::::::::::::::::::::
         :: total energy              -6.434628599501 Eh    ::
         :: gradient norm              0.234844400260 Eh/a0 ::
         :: HOMO-LUMO gap              0.299865356971 eV    ::
         ::.................................................::
         :: SCC energy                -6.478380816370 Eh    ::
         :: -> isotropic ES           -0.014056896139 Eh    ::
         :: -> anisotropic ES          0.000132698848 Eh    ::
         :: -> anisotropic XC          0.007765063248 Eh    ::
         :: -> dispersion             -0.001305722884 Eh    ::
         :: repulsion energy           0.043752202862 Eh    ::
         :: add. restraining           0.000000000000 Eh    ::
         :::::::::::::::::::::::::::::::::::::::::::::::::::::

      ----------------------------------------------------------- 
     |                   =====================                   |
     |                        A N C O P T                        |
     |                   =====================                   |
     |               Approximate Normal Coordinate               |
     |                Rational Function Optimizer                |
      ----------------------------------------------------------- 

          ...................................................
          :                      SETUP                      :
          :.................................................:
          :   optimization level            normal          :
          :   max. optcycles                   200          :
          :   ANC micro-cycles                  20          :
          :   degrees of freedom                 6          :
          :.................................................:
          :   RF solver                   davidson          :
          :   write xtbopt.log                true          :
          :   linear?                        false          :
          :   energy convergence         0.5000000E-05 Eh   :
          :   grad. convergence          0.1000000E-02 Eh/α :
          :   maximium RF displ.         1.0000000          :
          :   Hlow (freq-cutoff)         0.1000000E-01      :
          :   Hmax (freq-cutoff)         5.0000000          :
          :   S6 in model hess.         20.0000000          :
          ...................................................

generating ANC from model Hessian ...
Using Lindh-Hessian (1995)
 Shifting diagonal of input Hessian by    1.7884392518607312E-003
 Lowest  eigenvalues of input Hessian
   -0.000000   -0.000000   -0.000000    0.000000    0.000000    0.000000
    0.010000    0.051737    0.105661    0.644074    0.824627    1.008162
 Highest eigenvalues
    0.010000    0.051737    0.105661    0.644074    0.824627    1.008162


........................................................................
.............................. CYCLE    1 ..............................
........................................................................
   1     -6.4783808 -0.647838E+01  0.756E-05    0.30       0.0  T
   2     -6.4783808  0.113216E-08  0.409E-04    0.30     122.2  T
   3     -6.4783808 -0.108572E-08  0.111E-04    0.30     450.2  T
     SCC iter.                  ...        0 min,  0.000 sec
     gradient                   ...        0 min,  0.001 sec
 * total energy  :    -6.4346286 Eh     change        0.1445475E-09 Eh
   gradient norm :     0.2348442 Eh/α   predicted     0.0000000E+00 (-100.00%)
   displ. norm   :     0.4282563 α      lambda       -0.8214999E-01
   maximum displ.:     0.2786698 α      in ANC's #2, #4, #5, ...

........................................................................
.............................. CYCLE    2 ..............................
........................................................................
   1     -6.5830465 -0.658305E+01  0.326E+00    1.69       0.0  T
   2     -6.5815849  0.146156E-02  0.186E+00    1.66       1.0  T
   3     -6.4921529  0.894320E-01  0.365E+00    1.92       1.0  T
   4     -6.5810022 -0.888493E-01  0.825E-01    1.70       1.0  T
   5     -6.5841085 -0.310627E-02  0.251E-01    1.70       1.0  T
   6     -6.5842158 -0.107324E-03  0.173E-01    1.75       1.0  T
   7     -6.5842456 -0.297685E-04  0.615E-02    1.73       1.0  T
   8     -6.5842687 -0.231280E-04  0.982E-03    1.73       5.1  T
   9     -6.5842687 -0.120282E-07  0.488E-03    1.73      10.2  T
  10     -6.5842688 -0.969581E-07  0.107E-03    1.73      46.6  T
  11     -6.5842688  0.456777E-09  0.513E-04    1.73      97.5  T
  12     -6.5842688 -0.647692E-09  0.885E-05    1.73     564.9  T
     SCC iter.                  ...        0 min,  0.001 sec
     gradient                   ...        0 min,  0.000 sec
 * total energy  :    -6.5040519 Eh     change       -0.6942331E-01 Eh
   gradient norm :     0.1930877 Eh/α   predicted    -0.4860829E-01 ( -29.98%)
   displ. norm   :     0.7709767 α      lambda       -0.1440959E+00
   maximum displ.:     0.6263834 α      in ANC's #4, #5, #1, ...

........................................................................
.............................. CYCLE    3 ..............................
........................................................................
   1     -6.8551512 -0.685515E+01  0.352E+00    6.79       0.0  T
   2     -6.8562076 -0.105640E-02  0.218E+00    6.65       1.0  T
   3     -6.8551840  0.102355E-02  0.614E-01    6.69       1.0  T
   4     -6.8560940 -0.909951E-03  0.220E-01    6.73       1.0  T
   5     -6.8564173 -0.323280E-03  0.116E-01    6.68       1.0  T
   6     -6.8564490 -0.317725E-04  0.158E-02    6.69       3.2  T
   7     -6.8564491 -0.119700E-06  0.488E-03    6.69      10.2  T
   8     -6.8564492 -0.105327E-06  0.821E-04    6.69      60.9  T
   9     -6.8564492 -0.838121E-10  0.671E-05    6.69     745.3  T
     SCC iter.                  ...        0 min,  0.000 sec
     gradient                   ...        0 min,  0.000 sec
 * total energy  :    -6.3961217 Eh     change        0.1079302E+00 Eh
   gradient norm :     1.0744658 Eh/α   predicted    -0.1148736E+00 (-206.43%)
   displ. norm   :     0.4135271 α      lambda       -0.4034708E+00
   maximum displ.:     0.2024515 α      in ANC's #5, #3, #1, ...

........................................................................
.............................. CYCLE    4 ..............................
........................................................................
   1     -6.7370559 -0.673706E+01  0.205E+00    4.21       0.0  T
   2     -6.7373973 -0.341451E-03  0.127E+00    4.32       1.0  T
   3     -6.7363838  0.101352E-02  0.638E-01    4.17       1.0  T
   4     -6.7375488 -0.116496E-02  0.147E-01    4.26       1.0  T
   5     -6.7376126 -0.638259E-04  0.143E-01    4.27       1.0  T
   6     -6.7376999 -0.873043E-04  0.413E-02    4.27       1.2  T
   7     -6.7377090 -0.914046E-05  0.563E-03    4.27       8.9  T
   8     -6.7377092 -0.183824E-06  0.144E-03    4.27      34.7  T
   9     -6.7377092 -0.426392E-08  0.123E-04    4.27     407.9  T
  10     -6.7377092 -0.951275E-10  0.243E-05    4.27    2054.5  T
     SCC iter.                  ...        0 min,  0.000 sec
     gradient                   ...        0 min,  0.001 sec
 * total energy  :    -6.5518454 Eh     change       -0.1557236E+00 Eh
   gradient norm :     0.1271692 Eh/α   predicted    -0.2362331E+00 (  51.70%)
   displ. norm   :     0.5479583 α      lambda       -0.4148665E-01
   maximum displ.:     0.4187775 α      in ANC's #2, #1, #6, ...

........................................................................
.............................. CYCLE    5 ..............................
........................................................................
   1     -6.6931410 -0.669314E+01  0.150E+00    4.14       0.0  T
   2     -6.6910947  0.204628E-02  0.109E+00    4.24       1.0  T
   3     -6.6845776  0.651717E-02  0.122E+00    4.24       1.0  T
   4     -6.6914900 -0.691248E-02  0.624E-01    4.09       1.0  T
   5     -6.6942542 -0.276412E-02  0.369E-02    4.20       1.4  T
   6     -6.6942512  0.294602E-05  0.281E-02    4.20       1.8  T
   7     -6.6942551 -0.386062E-05  0.338E-03    4.20      14.8  T
   8     -6.6942551 -0.169841E-07  0.698E-04    4.20      71.6  T
   9     -6.6942551 -0.201743E-08  0.174E-04    4.20     287.7  T
     SCC iter.                  ...        0 min,  0.000 sec
     gradient                   ...        0 min,  0.001 sec
 * total energy  :    -6.5657142 Eh     change       -0.1386883E-01 Eh
   gradient norm :     0.0825934 Eh/α   predicted    -0.2697168E-01 (  94.48%)
   displ. norm   :     0.6241290 α      lambda       -0.1690546E-01
   maximum displ.:     0.5743991 α      in ANC's #1, #4, #5, ...

........................................................................
.............................. CYCLE    6 ..............................
........................................................................
   1     -6.6804761 -0.668048E+01  0.209E+00    3.99       0.0  T
   2     -6.6738362  0.663992E-02  0.148E+00    3.89       1.0  T
   3     -6.6378787  0.359576E-01  0.238E+00    4.07       1.0  T
   4     -6.6814316 -0.435529E-01  0.237E-01    3.94       1.0  T
   5     -6.6817777 -0.346168E-03  0.841E-02    3.93       1.0  T
   6     -6.6817967 -0.189469E-04  0.374E-02    3.94       1.3  T
   7     -6.6817981 -0.147203E-05  0.639E-03    3.94       7.8  T
   8     -6.6817982 -0.246414E-07  0.358E-03    3.94      14.0  T
   9     -6.6817982 -0.232322E-08  0.402E-04    3.94     124.3  T
  10     -6.6817982 -0.821752E-10  0.733E-05    3.94     681.9  T
     SCC iter.                  ...        0 min,  0.001 sec
     gradient                   ...        0 min,  0.001 sec
 * total energy  :    -6.5587122 Eh     change        0.7001931E-02 Eh
   gradient norm :     0.1617567 Eh/α   predicted    -0.1174537E-01 (-267.74%)
   displ. norm   :     0.4174674 α      lambda       -0.3053204E-01
   maximum displ.:     0.3904382 α      in ANC's #1, #2, #5, ...

........................................................................
.............................. CYCLE    7 ..............................
........................................................................
   1     -6.7394725 -0.673947E+01  0.135E+00    4.76       0.0  T
   2     -6.7376516  0.182092E-02  0.899E-01    4.72       1.0  T
   3     -6.7279142  0.973741E-02  0.136E+00    4.76       1.0  T
   4     -6.7399557 -0.120415E-01  0.187E-01    4.77       1.0  T
   5     -6.7400676 -0.111861E-03  0.836E-02    4.74       1.0  T
   6     -6.7400704 -0.280540E-05  0.438E-02    4.75       1.1  T
   7     -6.7400797 -0.928584E-05  0.765E-03    4.75       6.5  T
   8     -6.7400797 -0.303865E-07  0.188E-03    4.75      26.5  T
   9     -6.7400797 -0.144908E-07  0.354E-04    4.75     141.2  T
  10     -6.7400797 -0.627832E-09  0.442E-05    4.75    1131.0  T
     SCC iter.                  ...        0 min,  0.001 sec
     gradient                   ...        0 min,  0.001 sec
 * total energy  :    -6.5742408 Eh     change       -0.1552853E-01 Eh
   gradient norm :     0.0779580 Eh/α   predicted    -0.1792657E-01 (  15.44%)
   displ. norm   :     0.1533389 α      lambda       -0.6795231E-02
   maximum displ.:     0.1375165 α      in ANC's #2, #6, #3, ...

........................................................................
.............................. CYCLE    8 ..............................
........................................................................
   1     -6.7241859 -0.672419E+01  0.615E-01    4.65       0.0  T
   2     -6.7234642  0.721725E-03  0.476E-01    4.67       1.0  T
   3     -6.7225949  0.869281E-03  0.548E-01    4.68       1.0  T
   4     -6.7242738 -0.167887E-02  0.152E-01    4.64       1.0  T
   5     -6.7243992 -0.125456E-03  0.279E-02    4.66       1.8  T
   6     -6.7244010 -0.177646E-05  0.969E-03    4.66       5.2  T
   7     -6.7244015 -0.521093E-06  0.148E-03    4.66      33.9  T
   8     -6.7244015 -0.249573E-08  0.396E-04    4.66     126.2  T
   9     -6.7244015 -0.349382E-09  0.412E-05    4.66    1214.7  T
     SCC iter.                  ...        0 min,  0.000 sec
     gradient                   ...        0 min,  0.000 sec
 * total energy  :    -6.5757534 Eh     change       -0.1512576E-02 Eh
   gradient norm :     0.0514228 Eh/α   predicted    -0.3477501E-02 ( 129.91%)
   displ. norm   :     0.0951608 α      lambda       -0.3217137E-02
   maximum displ.:     0.0593744 α      in ANC's #4, #1, #3, ...

........................................................................
.............................. CYCLE    9 ..............................
........................................................................
   1     -6.7359300 -0.673593E+01  0.343E-01    4.87       0.0  T
   2     -6.7358484  0.815710E-04  0.227E-01    4.86       1.0  T
   3     -6.7353234  0.524997E-03  0.314E-01    4.86       1.0  T
   4     -6.7359340 -0.610557E-03  0.748E-02    4.88       1.0  T
   5     -6.7359670 -0.329915E-04  0.620E-03    4.86       8.1  T
   6     -6.7359670  0.112895E-07  0.215E-03    4.86      23.3  T
   7     -6.7359670 -0.211716E-07  0.354E-04    4.86     141.1  T
   8     -6.7359670 -0.858380E-10  0.102E-04    4.86     488.6  T
     SCC iter.                  ...        0 min,  0.000 sec
     gradient                   ...        0 min,  0.000 sec
 * total energy  :    -6.5781695 Eh     change       -0.2416104E-02 Eh
   gradient norm :     0.0251440 Eh/α   predicted    -0.1623134E-02 ( -32.82%)
   displ. norm   :     0.2176852 α      lambda       -0.4125652E-02
   maximum displ.:     0.1656367 α      in ANC's #4, #1, #6, ...

........................................................................
.............................. CYCLE   10 ..............................
........................................................................
   1     -6.7512828 -0.675128E+01  0.751E-01    5.19       0.0  T
   2     -6.7511496  0.133278E-03  0.460E-01    5.17       1.0  T
   3     -6.7481860  0.296354E-02  0.656E-01    5.20       1.0  T
   4     -6.7513138 -0.312777E-02  0.746E-02    5.19       1.0  T
   5     -6.7513416 -0.277825E-04  0.152E-02    5.18       3.3  T
   6     -6.7513420 -0.474427E-06  0.330E-03    5.19      15.2  T
   7     -6.7513421 -0.132974E-07  0.149E-03    5.19      33.6  T
   8     -6.7513421 -0.786499E-08  0.192E-04    5.19     260.8  T
   9     -6.7513421 -0.129153E-09  0.355E-05    5.19    1408.5  T
     SCC iter.                  ...        0 min,  0.000 sec
     gradient                   ...        0 min,  0.000 sec
 * total energy  :    -6.5802545 Eh     change       -0.2085079E-02 Eh
   gradient norm :     0.0478136 Eh/α   predicted    -0.2160582E-02 (   3.62%)
   displ. norm   :     0.1679650 α      lambda       -0.2128710E-02
   maximum displ.:     0.0875020 α      in ANC's #2, #1, #4, ...

........................................................................
.............................. CYCLE   11 ..............................
........................................................................
   1     -6.7502336 -0.675023E+01  0.428E-01    5.37       0.0  T
   2     -6.7502242  0.937650E-05  0.261E-01    5.37       1.0  T
   3     -6.7497301  0.494130E-03  0.261E-01    5.37       1.0  T
   4     -6.7502382 -0.508103E-03  0.159E-02    5.37       3.1  T
   5     -6.7502383 -0.129266E-06  0.117E-02    5.37       4.3  T
   6     -6.7502387 -0.377581E-06  0.214E-03    5.37      23.4  T
   7     -6.7502387 -0.139769E-07  0.609E-04    5.37      82.1  T
   8     -6.7502387 -0.450791E-09  0.202E-04    5.37     247.3  T
     SCC iter.                  ...        0 min,  0.000 sec
     gradient                   ...        0 min,  0.000 sec
 * total energy  :    -6.5815004 Eh     change       -0.1245879E-02 Eh
   gradient norm :     0.0347887 Eh/α   predicted    -0.1094383E-02 ( -12.16%)
   displ. norm   :     0.0942182 α      lambda       -0.1397569E-02
   maximum displ.:     0.0667297 α      in ANC's #4, #6, #2, ...

........................................................................
.............................. CYCLE   12 ..............................
........................................................................
   1     -6.7514890 -0.675149E+01  0.303E-01    5.45       0.0  T
   2     -6.7514634  0.255926E-04  0.185E-01    5.45       1.0  T
   3     -6.7509776  0.485816E-03  0.278E-01    5.46       1.0  T
   4     -6.7514993 -0.521712E-03  0.164E-02    5.45       3.1  T
   5     -6.7514998 -0.533690E-06  0.932E-03    5.46       5.4  T
   6     -6.7515000 -0.183121E-06  0.313E-03    5.45      16.0  T
   7     -6.7515000 -0.272564E-07  0.503E-04    5.45      99.5  T
   8     -6.7515000 -0.248095E-10  0.177E-04    5.45     282.6  T
     SCC iter.                  ...        0 min,  0.001 sec
     gradient                   ...        0 min,  0.001 sec
 * total energy  :    -6.5822515 Eh     change       -0.7511192E-03 Eh
   gradient norm :     0.0069128 Eh/α   predicted    -0.7049873E-03 (  -6.14%)
   displ. norm   :     0.0876685 α      lambda       -0.2990455E-03
   maximum displ.:     0.0599607 α      in ANC's #1, #4, #6, ...

........................................................................
.............................. CYCLE   13 ..............................
........................................................................
   1     -6.7508985 -0.675090E+01  0.252E-01    5.50       0.0  T
   2     -6.7508830  0.154956E-04  0.155E-01    5.50       1.0  T
   3     -6.7505447  0.338327E-03  0.224E-01    5.50       1.0  T
   4     -6.7509034 -0.358749E-03  0.640E-03    5.50       7.8  T
   5     -6.7509035 -0.105115E-06  0.312E-03    5.50      16.0  T
   6     -6.7509035 -0.100815E-07  0.592E-04    5.50      84.5  T
   7     -6.7509035 -0.158829E-09  0.225E-04    5.50     222.0  T
     SCC iter.                  ...        0 min,  0.000 sec
     gradient                   ...        0 min,  0.000 sec
 * total energy  :    -6.5824181 Eh     change       -0.1665715E-03 Eh
   gradient norm :     0.0063872 Eh/α   predicted    -0.1506729E-03 (  -9.54%)
   displ. norm   :     0.0393923 α      lambda       -0.1436448E-03
   maximum displ.:     0.0221732 α      in ANC's #1, #2, #4, ...

........................................................................
.............................. CYCLE   14 ..............................
........................................................................
   1     -6.7550392 -0.675504E+01  0.121E-01    5.60       0.0  T
   2     -6.7550394 -0.126628E-06  0.737E-02    5.59       1.0  T
   3     -6.7550219  0.174745E-04  0.532E-02    5.60       1.0  T
   4     -6.7550375 -0.156023E-04  0.203E-02    5.60       2.5  T
   5     -6.7550403 -0.281966E-05  0.322E-03    5.60      15.5  T
   6     -6.7550403 -0.177158E-07  0.831E-04    5.60      60.1  T
   7     -6.7550403 -0.135043E-08  0.183E-04    5.60     274.0  T
     SCC iter.                  ...        0 min,  0.000 sec
     gradient                   ...        0 min,  0.000 sec
 * total energy  :    -6.5825000 Eh     change       -0.8185001E-04 Eh
   gradient norm :     0.0052774 Eh/α   predicted    -0.7193300E-04 ( -12.12%)
   displ. norm   :     0.0233240 α      lambda       -0.4426284E-04
   maximum displ.:     0.0174992 α      in ANC's #1, #2, #6, ...

........................................................................
.............................. CYCLE   15 ..............................
........................................................................
   1     -6.7552441 -0.675524E+01  0.772E-02    5.61       0.0  T
   2     -6.7552442 -0.435356E-07  0.469E-02    5.61       1.1  T
   3     -6.7552440  0.154874E-06  0.542E-03    5.61       9.2  T
   4     -6.7552442 -0.158359E-06  0.231E-03    5.61      21.7  T
   5     -6.7552442 -0.183363E-07  0.115E-03    5.61      43.4  T
   6     -6.7552442 -0.436721E-08  0.256E-04    5.61     195.3  T
   7     -6.7552442 -0.456692E-10  0.467E-05    5.61    1071.5  T
     SCC iter.                  ...        0 min,  0.000 sec
     gradient                   ...        0 min,  0.000 sec
 * total energy  :    -6.5825382 Eh     change       -0.3828300E-04 Eh
   gradient norm :     0.0044719 Eh/α   predicted    -0.2214334E-04 ( -42.16%)
   displ. norm   :     0.0747092 α      lambda       -0.1377788E-03
   maximum displ.:     0.0531923 α      in ANC's #1, #2, #6, ...

........................................................................
.............................. CYCLE   16 ..............................
........................................................................
   1     -6.7542054 -0.675421E+01  0.273E-01    5.61       0.0  T
   2     -6.7542058 -0.457211E-06  0.167E-01    5.61       1.0  T
   3     -6.7542056  0.278429E-06  0.114E-02    5.61       4.4  T
   4     -6.7542059 -0.326827E-06  0.689E-03    5.61       7.3  T
   5     -6.7542060 -0.129884E-06  0.480E-03    5.61      10.4  T
   6     -6.7542061 -0.107679E-06  0.346E-04    5.61     144.4  T
   7     -6.7542061 -0.424505E-10  0.105E-04    5.61     474.3  T
     SCC iter.                  ...        0 min,  0.000 sec
     gradient                   ...        0 min,  0.001 sec
 * total energy  :    -6.5826196 Eh     change       -0.8137883E-04 Eh
   gradient norm :     0.0035364 Eh/α   predicted    -0.6927446E-04 ( -14.87%)
   displ. norm   :     0.0205900 α      lambda       -0.1843613E-04
   maximum displ.:     0.0139593 α      in ANC's #4, #2, #5, ...

........................................................................
.............................. CYCLE   17 ..............................
........................................................................
   1     -6.7540376 -0.675404E+01  0.822E-02    5.60       0.0  T
   2     -6.7540376  0.360761E-08  0.504E-02    5.60       1.0  T
   3     -6.7540348  0.286528E-05  0.201E-02    5.60       2.5  T
   4     -6.7540377 -0.294125E-05  0.222E-03    5.60      22.5  T
   5     -6.7540377 -0.138471E-07  0.116E-03    5.60      43.2  T
   6     -6.7540377 -0.141594E-08  0.103E-04    5.60     486.6  T
   7     -6.7540377 -0.109308E-10  0.465E-05    5.60    1074.3  T
     SCC iter.                  ...        0 min,  0.000 sec
     gradient                   ...        0 min,  0.001 sec
 * total energy  :    -6.5826314 Eh     change       -0.1182481E-04 Eh
   gradient norm :     0.0028887 Eh/α   predicted    -0.9223110E-05 ( -22.00%)
   displ. norm   :     0.0089704 α      lambda       -0.9512773E-05
   maximum displ.:     0.0055930 α      in ANC's #4, #5, #3, ...

........................................................................
.............................. CYCLE   18 ..............................
........................................................................
   1     -6.7540682 -0.675407E+01  0.364E-02    5.60       0.0  T
   2     -6.7540681  0.700933E-07  0.223E-02    5.60       2.2  T
   3     -6.7540647  0.346226E-05  0.220E-02    5.60       2.3  T
   4     -6.7540682 -0.356633E-05  0.118E-03    5.60      42.4  T
   5     -6.7540682 -0.365668E-08  0.564E-04    5.60      88.7  T
   6     -6.7540682 -0.217526E-09  0.515E-05    5.60     971.0  T
     SCC iter.                  ...        0 min,  0.000 sec
     gradient                   ...        0 min,  0.001 sec
 * total energy  :    -6.5826383 Eh     change       -0.6820206E-05 Eh
   gradient norm :     0.0021428 Eh/α   predicted    -0.4755648E-05 ( -30.27%)
   displ. norm   :     0.0089459 α      lambda       -0.1012054E-04
   maximum displ.:     0.0055070 α      in ANC's #5, #3, #1, ...

........................................................................
.............................. CYCLE   19 ..............................
........................................................................
   1     -6.7542326 -0.675423E+01  0.337E-02    5.61       0.0  T
   2     -6.7542325  0.382970E-07  0.204E-02    5.61       2.4  T
   3     -6.7542303  0.221275E-05  0.176E-02    5.61       2.8  T
   4     -6.7542326 -0.227134E-05  0.163E-03    5.61      30.6  T
   5     -6.7542326 -0.101487E-07  0.592E-04    5.61      84.4  T
   6     -6.7542326 -0.117584E-09  0.977E-05    5.61     511.8  T
     SCC iter.                  ...        0 min,  0.000 sec
     gradient                   ...        0 min,  0.001 sec
 * total energy  :    -6.5826460 Eh     change       -0.7711774E-05 Eh
   gradient norm :     0.0018610 Eh/α   predicted    -0.5061719E-05 ( -34.36%)
   displ. norm   :     0.0262859 α      lambda       -0.1541815E-04
   maximum displ.:     0.0178579 α      in ANC's #5, #3, #2, ...

........................................................................
.............................. CYCLE   20 ..............................
........................................................................
   1     -6.7543458 -0.675435E+01  0.938E-02    5.65       0.0  T
   2     -6.7543454  0.480767E-06  0.579E-02    5.65       1.0  T
   3     -6.7543199  0.254746E-04  0.599E-02    5.65       1.0  T
   4     -6.7543462 -0.262705E-04  0.414E-03    5.65      12.1  T
   5     -6.7543462 -0.533864E-07  0.166E-03    5.65      30.2  T
   6     -6.7543462 -0.219947E-08  0.454E-04    5.65     110.0  T
   7     -6.7543462 -0.852083E-10  0.107E-04    5.65     468.6  T
     SCC iter.                  ...        0 min,  0.000 sec
     gradient                   ...        0 min,  0.001 sec
 * total energy  :    -6.5826600 Eh     change       -0.1406452E-04 Eh
   gradient norm :     0.0027043 Eh/α   predicted    -0.7710974E-05 ( -45.17%)
   displ. norm   :     0.0152288 α      lambda       -0.1029162E-04
   maximum displ.:     0.0090101 α      in ANC's #4, #5, #2, ...
 * RMSD in coord.:     1.1220827 α      energy gain  -0.1480314E+00 Eh

generating ANC from model Hessian ...
Using Lindh-Hessian (1995)
 Shifting diagonal of input Hessian by    9.8036667236817768E-003
 Lowest  eigenvalues of input Hessian
   -0.000000   -0.000000   -0.000000    0.000000    0.000000    0.000000
    0.010000    0.178772    0.401054    0.838829    1.253977    2.554030
 Highest eigenvalues
    0.010000    0.178772    0.401054    0.838829    1.253977    2.554030


........................................................................
.............................. CYCLE   21 ..............................
........................................................................
   1     -6.7545360 -0.675454E+01  0.494E-02    5.67       0.0  T
   2     -6.7545360 -0.205254E-07  0.302E-02    5.67       1.7  T
   3     -6.7545346  0.144783E-05  0.144E-02    5.67       3.5  T
   4     -6.7545361 -0.147831E-05  0.231E-03    5.67      21.6  T
   5     -6.7545361 -0.189909E-07  0.111E-03    5.67      44.9  T
   6     -6.7545361 -0.274049E-08  0.300E-04    5.67     166.8  T
   7     -6.7545361 -0.819025E-10  0.420E-05    5.67    1190.0  T
     SCC iter.                  ...        0 min,  0.001 sec
     gradient                   ...        0 min,  0.001 sec
 * total energy  :    -6.5826684 Eh     change       -0.8402155E-05 Eh
   gradient norm :     0.0017239 Eh/α   predicted     0.0000000E+00 (-100.00%)
   displ. norm   :     0.0349077 α      lambda       -0.7811693E-05
   maximum displ.:     0.0347540 α      in ANC's #1, #2, #3, ...

........................................................................
.............................. CYCLE   22 ..............................
........................................................................
   1     -6.7544318 -0.675443E+01  0.128E-01    5.67       0.0  T
   2     -6.7544319 -0.232698E-07  0.773E-02    5.67       1.0  T
   3     -6.7544286  0.321933E-05  0.213E-02    5.67       2.3  T
   4     -6.7544320 -0.333000E-05  0.311E-03    5.67      16.1  T
   5     -6.7544320 -0.442517E-08  0.151E-03    5.67      33.2  T
   6     -6.7544320 -0.574834E-08  0.151E-04    5.67     331.8  T
   7     -6.7544320 -0.139684E-10  0.500E-05    5.67     999.8  T
     SCC iter.                  ...        0 min,  0.000 sec
     gradient                   ...        0 min,  0.001 sec
 * total energy  :    -6.5826476 Eh     change        0.2081887E-04 Eh
   gradient norm :     0.0017064 Eh/α   predicted    -0.3907387E-05 (-118.77%)
   displ. norm   :     0.0306776 α      lambda       -0.3175762E-04
   maximum displ.:     0.0306479 α      in ANC's #1, #2, #3, ...

........................................................................
.............................. CYCLE   23 ..............................
........................................................................
   1     -6.7546840 -0.675468E+01  0.113E-01    5.67       0.0  T
   2     -6.7546840 -0.411187E-07  0.681E-02    5.67       1.0  T
   3     -6.7546830  0.103901E-05  0.124E-02    5.67       4.0  T
   4     -6.7546840 -0.108591E-05  0.280E-03    5.67      17.9  T
   5     -6.7546841 -0.857348E-08  0.115E-03    5.67      43.6  T
   6     -6.7546841 -0.397018E-08  0.965E-05    5.67     518.3  T
   7     -6.7546841 -0.131566E-10  0.373E-05    5.67    1338.7  T
     SCC iter.                  ...        0 min,  0.000 sec
     gradient                   ...        0 min,  0.000 sec
 * total energy  :    -6.5826710 Eh     change       -0.2334188E-04 Eh
   gradient norm :     0.0009030 Eh/α   predicted    -0.1588573E-04 ( -31.94%)
   displ. norm   :     0.0021481 α      lambda       -0.8449817E-06
   maximum displ.:     0.0018035 α      in ANC's #2, #5, #3, ...

........................................................................
.............................. CYCLE   24 ..............................
........................................................................
   1     -6.7546635 -0.675466E+01  0.574E-03    5.68       0.0  T
   2     -6.7546635  0.534845E-07  0.405E-03    5.68      12.3  T
   3     -6.7546634  0.692253E-07  0.518E-03    5.68       9.7  T
   4     -6.7546635 -0.140263E-06  0.509E-04    5.68      98.2  T
   5     -6.7546635 -0.948575E-09  0.134E-04    5.68     374.0  T
     SCC iter.                  ...        0 min,  0.000 sec
     gradient                   ...        0 min,  0.001 sec
 * total energy  :    -6.5826717 Eh     change       -0.7035891E-06 Eh
   gradient norm :     0.0004058 Eh/α   predicted    -0.4213733E-06 ( -40.11%)
   displ. norm   :     0.0031845 α      lambda       -0.4950228E-06
   maximum displ.:     0.0030929 α      in ANC's #2, #4, #1, ...

   *** GEOMETRY OPTIMIZATION CONVERGED AFTER 24 ITERATIONS ***

------------------------------------------------------------------------
 total energy gain   :        -0.1480431 Eh      -92.8984 kcal/mol
 total RMSD          :         1.1251580 a0        0.5954 Å
 total power (kW/mol):       -16.1952930 (step)-9603.5602 (real)
------------------------------------------------------------------------

 ANCopt (total)                0 d,  0 h,  0 min,  0.040 sec
 optimizer setup                ...        0 min,  0.000 sec (  0.173%)
 model hessian                  ...        0 min,  0.000 sec (  0.212%)
 ANC generation                 ...        0 min,  0.000 sec (  0.219%)
 coordinate transformation      ...        0 min,  0.000 sec (  0.114%)
 single point calculation       ...        0 min,  0.039 sec ( 95.271%)
 optimization log               ...        0 min,  0.000 sec (  1.082%)
 hessian update                 ...        0 min,  0.000 sec (  0.094%)
 rational function              ...        0 min,  0.001 sec (  1.273%)

================
 final structure:
================
4
 xtb: 6.2.2 (9d81278992624c895f80dd42a50cac0aa55982e2)
C         0.57061637926137   -0.00149866019851   -0.00697591576889
C        -0.69123090528591    0.07553220251400    0.06692334440433
C         1.83167714027957    0.05178644754331    0.02295343278354
H        -1.71106361425503   -0.12581998985880   -0.08289986141897

 Bond Distances (Angstroems)
 ---------------------------
C1-C2=1.2664         C1-C3=1.2625         C2-C1=1.2664         C2-H4=1.0503         C3-C1=1.2625         H4-C2=1.0503         
 C  H  Rav=1.0503 sigma=0.0000  Rmin=1.0503  Rmax=1.0503     1
 C  C  Rav=1.2644 sigma=0.0019  Rmin=1.2625  Rmax=1.2664     2

 selected bond angles (degree)
 --------------------
C3-C1-C2=172.45                H4-C2-C1=161.37                

 selected dihedral angles (degree)
 ---------------------------------
H4-C2-C1-C3=180.06            
           -------------------------------------------------
          |                Final Singlepoint                |
           -------------------------------------------------

          ...................................................
          :                      SETUP                      :
          :.................................................:
          :  # basis functions                  13          :
          :  # atomic orbitals                  13          :
          :  # shells                            7          :
          :  # electrons                        13          :
          :  max. iterations                   250          :
          :  Hamiltonian                  GFN2-xTB          :
          :  restarted?                      false          :
          :  GBSA solvation                  false          :
          :  PC potential                    false          :
          :  electronic temp.          300.0000000     K    :
          :  accuracy                    1.0000000          :
          :  -> integral cutoff          0.2500000E+02      :
          :  -> integral neglect         0.1000000E-07      :
          :  -> SCF convergence          0.1000000E-05 Eh   :
          :  -> wf. convergence          0.1000000E-03 e    :
          :  Broyden damping             0.4000000          :
          ...................................................

 iter      E             dE          RMSdq      gap      omega  full diag
   1     -6.7546635 -0.675466E+01  0.275E-05    5.68       0.0  T
   2     -6.7546635  0.459810E-11  0.320E-05    5.68    1563.3  T
   3     -6.7546635 -0.548095E-11  0.148E-05    5.68    3382.4  T

   *** convergence criteria satisfied after 3 iterations ***

         #    Occupation            Energy/Eh            Energy/eV
      -------------------------------------------------------------
         1        2.0000           -0.6374377             -17.3456
         2        2.0000           -0.5987642             -16.2932
         3        2.0000           -0.5237022             -14.2507
         4        2.0000           -0.4683550             -12.7446
         5        2.0000           -0.4681111             -12.7380
         6        1.0000           -0.4113025             -11.1921
         7        1.0000           -0.3443626              -9.3706
         8        1.0000           -0.3417037              -9.2982 (HOMO)
         9                         -0.1331445              -3.6230 (LUMO)
        10                         -0.1257514              -3.4219
        11                          0.1138860               3.0990
        12                          0.5512572              15.0005
        13                          1.2829983              34.9122
      -------------------------------------------------------------
                  HL-Gap            0.2085592 Eh            5.6752 eV
             Fermi-level           -0.3384333 Eh           -9.2092 eV

 SCC (total)                   0 d,  0 h,  0 min,  0.002 sec
 SCC setup                      ...        0 min,  0.000 sec (  6.972%)
 Dispersion                     ...        0 min,  0.000 sec (  0.422%)
 integral evaluation            ...        0 min,  0.001 sec ( 31.845%)
 zeroth order Hamiltonian       ...        0 min,  0.000 sec (  0.459%)
 iterations                     ...        0 min,  0.000 sec ( 24.761%)
 molecular gradient             ...        0 min,  0.001 sec ( 33.098%)
 printout                       ...        0 min,  0.000 sec (  2.183%)

         :::::::::::::::::::::::::::::::::::::::::::::::::::::
         ::                     SUMMARY                     ::
         :::::::::::::::::::::::::::::::::::::::::::::::::::::
         :: total energy              -6.582671670173 Eh    ::
         :: gradient norm              0.000405623943 Eh/a0 ::
         :: HOMO-LUMO gap              5.675186045648 eV    ::
         ::.................................................::
         :: SCC energy                -6.754663547149 Eh    ::
         :: -> isotropic ES           -0.000564250353 Eh    ::
         :: -> anisotropic ES         -0.000423698832 Eh    ::
         :: -> anisotropic XC          0.009680740267 Eh    ::
         :: -> dispersion             -0.001281776913 Eh    ::
         :: repulsion energy           0.171991920771 Eh    ::
         :: add. restraining           0.000000000000 Eh    ::
         :::::::::::::::::::::::::::::::::::::::::::::::::::::

           ------------------------------------------------- 
          |                Numerical Hessian                |
           ------------------------------------------------- 
step length          :   0.00500
SCC accuracy         :   0.30000
Hessian scale factor :   1.00000
frozen atoms in %    :   0.00000    0
RMS gradient         :   0.00041
estimated CPU  time      0.00 min
estimated wall time      0.00 min

writing file <hessian>.

 projected vibrational frequencies (cm-1)
eigval :       -0.00    -0.00    -0.00    -0.00    -0.00     0.00
eigval :      243.15   435.50   441.86  1360.85  1854.23  3347.75
           -------------------------------------------------
          |                Property Printout                |
           -------------------------------------------------

    * Orbital Energies and Occupations

         #    Occupation            Energy/Eh            Energy/eV
      -------------------------------------------------------------
         1        2.0000           -0.6374377             -17.3456
         2        2.0000           -0.5987642             -16.2932
         3        2.0000           -0.5237023             -14.2507
         4        2.0000           -0.4683551             -12.7446
         5        2.0000           -0.4681111             -12.7380
         6        1.0000           -0.4113023             -11.1921
         7        1.0000           -0.3443625              -9.3706
         8        1.0000           -0.3417037              -9.2982 (HOMO)
         9                         -0.1331445              -3.6230 (LUMO)
        10                         -0.1257514              -3.4219
        11                          0.1138859               3.0990
        12                          0.5512571              15.0005
        13                          1.2829982              34.9122
      -------------------------------------------------------------
                  HL-Gap            0.2085592 Eh            5.6752 eV
             Fermi-level           -0.3384333 Eh           -9.2092 eV

     #   Z        covCN         q      C6AA      α(0)
     1   6 C      1.962     0.036    30.142     8.866
     2   6 C      1.911    -0.081    33.308     9.321
     3   6 C      0.984    -0.060    37.806    10.329
     4   1 H      0.928     0.105     1.744     2.065

 Mol. C6AA /au·bohr⁶  :        350.753446
 Mol. C8AA /au·bohr⁸  :       9645.337192
 Mol. α(0) /au        :         30.580271


Wiberg/Mayer (AO) data.
largest (>0.10) Wiberg bond orders for each atom
          total WBO             WBO to atom ...
     1  C   3.886        C    3 1.947    C    2 1.931
     2  C   2.895        C    1 1.931    H    4 0.951
     3  C   1.971        C    1 1.947
     4  H   0.969        C    2 0.951

MOs/occ written to file <molden.input>


molecular dipole:
                 x           y           z       tot (Debye)
 q only:       -0.403      -0.042      -0.030
   full:       -0.390      -0.092      -0.069       1.034
molecular quadrupole (traceless):
                xx          xy          yy          xz          yz          zz
 q only:        0.273       0.112      -0.135       0.085       0.003      -0.138
  q+dip:        4.655       0.349      -2.317       0.208       0.033      -2.339
   full:        2.099       0.227      -1.042       0.149       0.021      -1.056

           -------------------------------------------------
          |                Geometry Summary                 |
           -------------------------------------------------
Molecule has the following symmetry elements: (sigma) 
It seems to be the Cs point group

      molecular mass/u    :       37.0401484
   center of mass at/Å    :        0.5082723       0.0373723       0.0246239
  moments of inertia/u·Å² :        0.1060836E+00   0.4333206E+02   0.4343814E+02
rotational constants/cm⁻¹ :        0.1589090E+03   0.3890337E+00   0.3880836E+00

 * 2 selected distances

     #   Z        #   Z                                     value/Å
     1   6 C      2   6 C                                 1.2663544 (max)
     1   6 C      3   6 C                                 1.2625408 (min)

 * 1 distinct bonds (by element types)

   Z      Z             #   av. dist./Å        max./Å        min./Å
   6 C    6 C           2     1.2644476     1.2663544     1.2625408

           -------------------------------------------------
          |               Frequency Printout                |
           -------------------------------------------------
 projected vibrational frequencies (cm-1)
eigval :       -0.00    -0.00    -0.00    -0.00    -0.00     0.00
eigval :      243.15   435.50   441.86  1360.85  1854.23  3347.75
 reduced masses (amu)
   1: 11.66   2:  6.67   3: 10.99   4: 11.23   5: 11.61   6: 11.99   7:  8.66   8:  7.06
   9:  5.93  10: 11.45  11: 11.79  12:  2.09
 IR intensities (amu)
   1:  0.06   2:  0.23   3:  0.07   4:  0.09   5:  0.08   6:  0.24   7:  0.31   8:  0.06
   9:  0.12  10:  0.07  11:  0.21  12:  0.17
 Raman intensities (amu)
   1:  0.00   2:  0.00   3:  0.00   4:  0.00   5:  0.00   6:  0.00   7:  0.00   8:  0.00
   9:  0.00  10:  0.00  11:  0.00  12:  0.00
 output can be read by thermo (or use thermo option).
 writing <g98.out> molden fake output.
 recommended (thermochemical) frequency scaling factor: 1.0
           -------------------------------------------------
          |             Thermodynamic Functions             |
           -------------------------------------------------

cs  symmetry found (for desy threshold:  0.10E+00) used in thermo

          ...................................................
          :                      SETUP                      :
          :.................................................:
          :  # frequencies                           6      :
          :  # imaginary freq.                       0      :
          :  linear?                             false      :
          :  only rotor calc.                    false      :
          :  symmetry                               cs      :
          :  rotational number                       1      :
          :  scaling factor                  1.0000000      :
          :  rotor cutoff                   50.0000000 cm⁻¹ :
          :  imag. cutoff                  -20.0000000 cm⁻¹ :
          :.................................................:

    mode    ω/cm⁻¹     T·S(HO)/kcal·mol⁻¹    T·S(FR)/kcal·mol⁻¹   T·S(vib)
   ------------------------------------------------------------------------
       1    243.15    -0.00000 ( 99.82%)     0.01404 (  0.18%)     0.00003
   ------------------------------------------------------------------------

   temp. (K)  partition function   enthalpy   heat capacity  entropy
                                   cal/mol     cal/K/mol   cal/K/mol   J/K/mol
 298.15  VIB   1.87                  660.920      4.687      3.466
         ROT  0.108E+04              888.752      2.981     16.860
         INT  0.202E+04             1549.673      7.668     20.326
         TR   0.218E+27             1481.254      4.968     36.741
         TOT                        3030.9268    12.6365    57.0670   238.7683

   temp. (K)  partition function   enthalpy   heat capacity  entropy
                                   cal/mol     cal/K/mol   cal/K/mol   J/K/mol
 120.00  VIB   1.07                   52.941      1.601      0.574
         ROT   276.                  357.707      2.981     14.147
         INT   294.                  410.648      4.582     14.721
         TR   0.557E+26              596.178      4.968     32.222
         TOT                        1006.8262     9.5497    46.9429   196.4089

   temp. (K)  partition function   enthalpy   heat capacity  entropy
                                   cal/mol     cal/K/mol   cal/K/mol   J/K/mol
 100.00  VIB   1.03                   26.249      1.071      0.332
         ROT   210.                  298.089      2.981     13.604
         INT   217.                  324.338      4.052     13.936
         TR   0.424E+26              496.815      4.968     31.316
         TOT                         821.1526     9.0198    45.2521   189.3347

   temp. (K)  partition function   enthalpy   heat capacity  entropy
                                   cal/mol     cal/K/mol   cal/K/mol   J/K/mol
  80.00  VIB   1.01                    9.823      0.585      0.150
         ROT   150.                  238.471      2.981     12.939
         INT   152.                  248.294      3.565     13.089
         TR   0.303E+26              397.452      4.968     30.208
         TOT                         645.7458     8.5335    43.2974   181.1562

   temp. (K)  partition function   enthalpy   heat capacity  entropy
                                   cal/mol     cal/K/mol   cal/K/mol   J/K/mol
  60.00  VIB   1.00                    2.115      0.211      0.042
         ROT   97.4                  178.853      2.981     12.081
         INT   97.7                  180.969      3.192     12.123
         TR   0.197E+26              298.089      4.968     28.780
         TOT                         479.0577     8.1605    40.9026   171.1363

   temp. (K)  partition function   enthalpy   heat capacity  entropy
                                   cal/mol     cal/K/mol   cal/K/mol   J/K/mol
  40.00  VIB   1.00                    0.111      0.024      0.003
         ROT   53.0                  119.236      2.981     10.873
         INT   53.1                  119.347      3.005     10.875
         TR   0.107E+26              198.726      4.968     26.766
         TOT                         318.0726     7.9734    37.6416   157.4924

   temp. (K)  partition function   enthalpy   heat capacity  entropy
                                   cal/mol     cal/K/mol   cal/K/mol   J/K/mol
  20.00  VIB   1.00                    0.000      0.000     -0.002
         ROT   18.8                   59.618      2.981      8.806
         INT   18.8                   59.618      2.981      8.805
         TR   0.379E+25               99.363      4.968     23.324
         TOT                         158.9808     7.9491    32.1289   134.4271

   temp. (K)  partition function   enthalpy   heat capacity  entropy
                                   cal/mol     cal/K/mol   cal/K/mol   J/K/mol
  10.00  VIB   1.00                    0.000      0.000     -0.003
         ROT   6.63                   29.809      2.981      6.740
         INT   6.63                   29.809      2.981      6.737
         TR   0.134E+25               49.681      4.968     19.882
         TOT                          79.4904     7.9490    26.6192   111.3748

       T/K    H(0)-H(T)+PV         H(T)/Eh          T*S/Eh         G(T)/Eh
   ------------------------------------------------------------------------
    298.15    0.483009E-02    0.223340E-01    0.271144E-01   -0.478033E-02
    120.00    0.160448E-02    0.191084E-01    0.897698E-02    0.101314E-01
    100.00    0.130859E-02    0.188125E-01    0.721138E-02    0.116012E-01
     80.00    0.102906E-02    0.185330E-01    0.551990E-02    0.130131E-01
     60.00    0.763427E-03    0.182674E-01    0.391094E-02    0.143564E-01
     40.00    0.506881E-03    0.180108E-01    0.239943E-02    0.156114E-01
     20.00    0.253352E-03    0.177573E-01    0.102401E-02    0.167333E-01
     10.00    0.126676E-03    0.176306E-01    0.424204E-03    0.172064E-01 (used)
   ------------------------------------------------------------------------

         :::::::::::::::::::::::::::::::::::::::::::::::::::::
         ::                  THERMODYNAMIC                  ::
         :::::::::::::::::::::::::::::::::::::::::::::::::::::
         :: total free energy          -6.565465255999 Eh   ::
         ::.................................................::
         :: total energy               -6.582671670178 Eh   ::
         :: zero point energy           0.017503942410 Eh   ::
         :: G(RRHO) w/o ZPVE           -0.000297528231 Eh   ::
         :: G(RRHO) contrib.            0.017206414179 Eh   ::
         :::::::::::::::::::::::::::::::::::::::::::::::::::::

optimized geometry written to: xtbopt.xyz


           -------------------------------------------------
          | TOTAL ENERGY               -6.582671670178 Eh   |
          | TOTAL ENTHALPY             -6.565041051753 Eh   |
          | TOTAL FREE ENERGY          -6.565465255999 Eh   |
          | GRADIENT NORM               0.000405617774 Eh/α |
          | HOMO-LUMO GAP               5.675184187430 eV   |
           -------------------------------------------------

------------------------------------------------------------------------
 * finished run on 2020/05/12 at 11:43:51.570     
------------------------------------------------------------------------
 total:
 * wall-time:     0 d,  0 h,  0 min,  0.097 sec
 *  cpu-time:     0 d,  0 h,  0 min,  0.095 sec
 * ratio c/w:     0.982 speedup
 SCF:
 * wall-time:     0 d,  0 h,  0 min,  0.002 sec
 *  cpu-time:     0 d,  0 h,  0 min,  0.002 sec
 * ratio c/w:     1.000 speedup
 ANC optimizer:
 * wall-time:     0 d,  0 h,  0 min,  0.044 sec
 *  cpu-time:     0 d,  0 h,  0 min,  0.043 sec
 * ratio c/w:     0.985 speedup
 numerical hessian:
 * wall-time:     0 d,  0 h,  0 min,  0.034 sec
 *  cpu-time:     0 d,  0 h,  0 min,  0.034 sec
 * ratio c/w:     0.989 speedup

