$hessian                                                                        
        1.2049364415  -0.0050168517  -0.0000040980  -0.8635809369   0.0042573927
        0.0000015102  -0.3412834395   0.0006985725   0.0000011241
       -0.0050168517   0.0183196277   0.0000000151   0.0047112952  -0.0097175028
       -0.0000000052   0.0003052494  -0.0085914705  -0.0000000029
       -0.0000040980   0.0000000151   0.0182585965   0.0000030503  -0.0000000137
       -0.0096750735   0.0000010471  -0.0000000037  -0.0085901591
       -0.8635809369   0.0047112952   0.0000030503   1.0058617663  -0.0051334324
       -0.0000017090  -0.1423410369   0.0004258954   0.0000002601
        0.0042573927  -0.0097175028  -0.0000000137  -0.0051334324   0.0051381003
        0.0000000074   0.0008763167   0.0045674314  -0.0000000012
        0.0000015102  -0.0000000052  -0.0096750735  -0.0000017090   0.0000000074
        0.0051090167   0.0000001994   0.0000000001   0.0045674356
       -0.3412834395   0.0003052494   0.0000010471  -0.1423410369   0.0008763167
        0.0000001994   0.4836126187  -0.0011244377  -0.0000013841
        0.0006985725  -0.0085914705  -0.0000000037   0.0004258954   0.0045674314
        0.0000000001  -0.0011244377   0.0040253557   0.0000000040
        0.0000011241  -0.0000000029  -0.0085901591   0.0000002601  -0.0000000012
        0.0045674356  -0.0000013841   0.0000000040   0.0040279807
