 Entering Gaussian System
 *********************************************
 Gaussian 98:
 frequency output generated by the xtb code
 *********************************************
                         Standard orientation:
 --------------------------------------------------------------------
  Center     Atomic     Atomic              Coordinates (Angstroms)
  Number     Number      Type              X           Y           Z
 --------------------------------------------------------------------
    1          6             0       -0.053006   -0.000932    0.000000
    2          7             0       -1.231180    0.005201    0.000004
    3          6             0        1.284186   -0.004270   -0.000004
 --------------------------------------------------------------------
     1 basis functions        1 primitive gaussians
     1 alpha electrons        1 beta electrons

 Harmonic frequencies (cm**-1), IR intensities (KM/Mole),
 Raman scattering activities (A**4/amu), Raman depolarization ratios,
 reduced masses (AMU), force constants (mDyne/A) and normal coordinates:
                      1                      2                      3
                        a                      a                      a 
 Frequencies --   242.3507               242.5204              1218.2172
 Red. masses --    12.3394                12.3394                12.5467
 Frc consts  --     0.0000                 0.0000                 0.0000
 IR Inten    --     0.7551                 0.7548                 0.3402
 Raman Activ --     0.0000                 0.0000                 0.0000
 Depolar     --     0.0000                 0.0000                 0.0000
 Atom AN      X      Y      Z        X      Y      Z        X      Y      Z
   1   6    -0.00  -0.00  -0.83     0.00   0.83  -0.00     0.26   0.00  -0.00
   2   7     0.00   0.00   0.41    -0.00  -0.41   0.00     0.52  -0.00  -0.00
   3   6     0.00   0.00   0.39     0.00  -0.39   0.00    -0.82   0.00   0.00
                      4
                        a 
 Frequencies --  2031.9032
 Red. masses --    12.7355
 Frc consts  --     0.0000
 IR Inten    --     0.4210
 Raman Activ --     0.0000
 Depolar     --     0.0000
 Atom AN      X      Y      Z        X      Y      Z        X      Y      Z
   1   6     0.79  -0.00  -0.00
   2   7    -0.60   0.00   0.00
   3   6    -0.14   0.00   0.00
