3
 energy: -6.930410667813 gnorm: 0.000215740312 xtb: 6.2.2 (9d81278992624c895f80dd42a50cac0aa55982e2)
C        -0.05300550644242   -0.00093161662112    0.00000018665057
N        -1.23118015154090    0.00520142408831    0.00000428856261
C         1.28418565798332   -0.00426980746719   -0.00000447521318
