[Molden Format]
[Title]
[Atoms] AU
O      1     8  0.10914536675128E+01 -0.57148380393721E-05 -0.38098920262810E-05
N      2     7 -0.10914536675128E+01  0.57148380393721E-05  0.38098920262810E-05
[GTO]
           1 0
 s           4   1.0000000000000000     
   69.137961906196551      -0.20478756370077797     
   11.906129132707308      -0.24997023136827334     
  0.95670827744340703       0.40025880240639616     
  0.36462520496073686       0.15952206667693555     
 p           4   1.0000000000000000     
   8.2124193257781641        1.1321556799186829     
   2.1293576997098116        1.0476840782254817     
  0.75066448202360914       0.54956508217158984     
  0.29885246543283073        8.2908486592766617E-002

           2 0
 s           4   1.0000000000000000     
   63.594024466941008      -0.19234388414721629     
   10.951417231523665      -0.23478107924953728     
  0.87999310257376984       0.37593753901700888     
  0.33538715296521110       0.14982889271862770     
 p           4   1.0000000000000000     
   7.2965040481495080       0.97658666315667420     
   1.8918745450712575       0.90372226730345739     
  0.66694432110824120       0.47404958461536373     
  0.26552202674130870        7.1516067715011844E-002

[MO]
Sym=     1a
Ene=  -0.80032313959744550     
Spin= Alpha
Occup=     2.00000000
           1 -0.61786260340199906     
           2  0.26833745268815362     
           3  -1.4353857015281959E-006
           4  -9.5692380108324549E-007
           5 -0.35458623590814914     
           6 -0.25404576897861364     
           7   1.3312159189371293E-006
           8   8.8747727914041237E-007
Sym=     2a
Ene=  -0.67131594285942298     
Spin= Alpha
Occup=     2.00000000
           1 -0.67127272896643142     
           2 -0.56401085004452600     
           3   2.8127129182156396E-006
           4   1.8751419446597814E-006
           5  0.45697187462987726     
           6  -1.7245755809074923E-002
           7   7.5012398898047169E-009
           8   5.0008259088390853E-009
Sym=     3a
Ene=  -0.62622659691304949     
Spin= Alpha
Occup=     2.00000000
           1   1.6724225541085815E-008
           2  -4.9598119731259219E-007
           3 -0.47764062836276189     
           4  0.57058122491642882     
           5  -8.5939455732750682E-009
           6  -3.5829779980377501E-007
           7 -0.33838791551710923     
           8  0.40423234512547640     
Sym=     4a
Ene=  -0.62622659687567461     
Spin= Alpha
Occup=     2.00000000
           1   1.5287912878343908E-007
           2  -4.5338524063999912E-006
           3 -0.57058122502526210     
           4 -0.47764062846080108     
           5  -7.8558788842015489E-008
           6  -3.2752639643011362E-006
           7 -0.40423234495768862     
           8 -0.33838791537320906     
Sym=     5a
Ene=  -0.50998474363428348     
Spin= Alpha
Occup=     2.00000000
           1 -0.16661466746120240     
           2 -0.40093228644923568     
           3   2.0785337396068264E-006
           4   1.3856891595149313E-006
           5 -0.68209909984331241     
           6  0.62989098343640038     
           7  -3.2712106790456038E-006
           8  -2.1808071192028496E-006
Sym=     6a
Ene=  -0.35571533293034430     
Spin= Alpha
Occup=     0.50000001
           1   3.8949300378352200E-009
           2  -6.0426355232840813E-007
           3 -0.46662550373918049     
           4  0.52616222734080775     
           5   3.3834725172734148E-009
           6   7.5456694867908855E-007
           7  0.58237116882621764     
           8 -0.65667587576852826     
Sym=     7a
Ene=  -0.35571533283820206     
Spin= Alpha
Occup=     0.49999999
           1  -2.8148423508697509E-008
           2   4.3669761395868793E-006
           3  0.52616222720142258     
           4  0.46662550363132588     
           5  -2.4452152515981560E-008
           6  -5.4532096942874639E-006
           7 -0.65667587585417631     
           8 -0.58237116890353957     
Sym=     8a
Ene=   0.42066197405668559     
Spin= Alpha
Occup=     0.00000000
           1 -0.74457035692824403     
           2  0.94780723903655129     
           3  -4.9564605031659798E-006
           4  -3.3043070020844302E-006
           5  0.76430870512719207     
           6   1.0090214238825572     
           7  -5.2781817420474328E-006
           8  -3.5187878280316705E-006
