2
 energy: -6.779751026622 gnorm: 0.293657501446 xtb: 6.2.2 (9d81278992624c895f80dd42a50cac0aa55982e2)
O         0.67663100000000    0.00000000000000    0.00000000000000
N        -0.67663100000000    0.00000000000000    0.00000000000000
2
 energy: -6.826025450147 gnorm: 0.091613339488 xtb: 6.2.2 (9d81278992624c895f80dd42a50cac0aa55982e2)
O         0.59584278218968    0.00000000000000    0.00000000000000
N        -0.59584278218968    0.00000000000000    0.00000000000000
2
 energy: -6.825571181546 gnorm: 0.119231834766 xtb: 6.2.2 (9d81278992624c895f80dd42a50cac0aa55982e2)
O         0.55955530838974    0.00000000000000    0.00000000000000
N        -0.55955530838974    0.00000000000000    0.00000000000000
2
 energy: -6.828301093806 gnorm: 0.012958971917 xtb: 6.2.2 (9d81278992624c895f80dd42a50cac0aa55982e2)
O         0.58001433986884    0.00000000000000    0.00000000000000
N        -0.58001433986884    0.00000000000000    0.00000000000000
2
 energy: -6.828340368491 gnorm: 0.001641338191 xtb: 6.2.2 (9d81278992624c895f80dd42a50cac0aa55982e2)
O         0.57800875123964    0.00000000000000    0.00000000000000
N        -0.57800875123964    0.00000000000000    0.00000000000000
2
 energy: -6.828340823233 gnorm: 0.000868051721 xtb: 6.2.2 (9d81278992624c895f80dd42a50cac0aa55982e2)
O         0.57757246120283    0.00000000000000    0.00000000000000
N        -0.57757246120283    0.00000000000000    0.00000000000000
