$hessian                                                                        
        1.0778782174  -0.0000036568  -0.0000022320  -1.0778782174   0.0000036568
        0.0000022320
       -0.0000036568  -0.0000115549   0.0000006703   0.0000036568   0.0000115549
       -0.0000006703
       -0.0000022320   0.0000006703  -0.0000111972   0.0000022320  -0.0000006703
        0.0000111972
       -1.0778782174   0.0000036568   0.0000022320   1.0778782174  -0.0000036568
       -0.0000022320
        0.0000036568   0.0000115549  -0.0000006703  -0.0000036568  -0.0000115549
        0.0000006703
        0.0000022320  -0.0000006703   0.0000111972  -0.0000022320   0.0000006703
       -0.0000111972
