 Entering Gaussian System
 *********************************************
 Gaussian 98:
 frequency output generated by the xtb code
 *********************************************
                         Standard orientation:
 --------------------------------------------------------------------
  Center     Atomic     Atomic              Coordinates (Angstroms)
  Number     Number      Type              X           Y           Z
 --------------------------------------------------------------------
    1          8             0       -0.003012    0.791409   -0.000001
    2          7             0       -0.662596   -0.415803    0.000003
    3          6             0        0.665606   -0.375604   -0.000002
 --------------------------------------------------------------------
     1 basis functions        1 primitive gaussians
     1 alpha electrons        1 beta electrons

 Harmonic frequencies (cm**-1), IR intensities (KM/Mole),
 Raman scattering activities (A**4/amu), Raman depolarization ratios,
 reduced masses (AMU), force constants (mDyne/A) and normal coordinates:
                      1                      2                      3
                        a                      a                      a 
 Frequencies --   804.2038              1113.8721              1606.4315
 Red. masses --    13.7691                14.5363                13.2851
 Frc consts  --     0.0000                 0.0000                 0.0000
 IR Inten    --     0.7332                 0.6811                 0.3992
 Raman Activ --     0.0000                 0.0000                 0.0000
 Depolar     --     0.0000                 0.0000                 0.0000
 Atom AN      X      Y      Z        X      Y      Z        X      Y      Z
   1   8    -0.47   0.23   0.00     0.23   0.64  -0.00     0.06  -0.39   0.00
   2   7     0.46   0.33  -0.00     0.15  -0.56   0.00     0.55   0.17  -0.00
   3   6     0.04  -0.63   0.00    -0.42  -0.14   0.00    -0.67   0.26   0.00
