3
 energy: -8.765802191417 gnorm: 0.153938537738 xtb: 6.2.2 (9d81278992624c895f80dd42a50cac0aa55982e2)
O        -0.02399000000000    0.56013500000000    0.00000000000000
N        -1.07412200000000   -0.29341100000000    0.00000000000000
C         1.09811100000000   -0.26672300000000    0.00000000000000
3
 energy: -8.791060089788 gnorm: 0.092740150974 xtb: 6.2.2 (9d81278992624c895f80dd42a50cac0aa55982e2)
O        -0.01016152312617    0.56655003127579    0.00000000000000
N        -0.99072372190485   -0.30096394965813    0.00000000000000
C         1.00088424503102   -0.26558508161766    0.00000000000000
3
 energy: -8.835858380787 gnorm: 0.372299214199 xtb: 6.2.2 (9d81278992624c895f80dd42a50cac0aa55982e2)
O         0.03249455657135    0.65888039119688    0.00000000000000
N        -0.70694453320039   -0.36140912794066    0.00000000000000
C         0.67444897662904   -0.29747026325621    0.00000000000000
3
 energy: -8.864238744768 gnorm: 0.168323303191 xtb: 6.2.2 (9d81278992624c895f80dd42a50cac0aa55982e2)
O         0.01964647610069    0.70380131798560    0.00000000000000
N        -0.70879735698017   -0.37974589333820    0.00000000000000
C         0.68914988087948   -0.32405442464741    0.00000000000000
3
 energy: -8.830542745628 gnorm: 0.469185319319 xtb: 6.2.2 (9d81278992624c895f80dd42a50cac0aa55982e2)
O         0.01945935113822    0.85642614836041    0.00000000000000
N        -0.55729967344561   -0.45665411581618    0.00000000000000
C         0.53783932230739   -0.39977103254423    0.00000000000000
3
 energy: -8.877247345664 gnorm: 0.053823927756 xtb: 6.2.2 (9d81278992624c895f80dd42a50cac0aa55982e2)
O         0.02611760633111    0.81999757865239    0.00000000000000
N        -0.67261530655746   -0.44178758938501    0.00000000000000
C         0.64649670022635   -0.37820898926738    0.00000000000000
3
 energy: -8.879518791528 gnorm: 0.019628175304 xtb: 6.2.2 (9d81278992624c895f80dd42a50cac0aa55982e2)
O         0.01679666380977    0.78825763440046    0.00000000000000
N        -0.67956877569320   -0.42192924781113    0.00000000000000
C         0.66277111188343   -0.36632738658933    0.00000000000000
3
 energy: -8.879711487086 gnorm: 0.014365760393 xtb: 6.2.2 (9d81278992624c895f80dd42a50cac0aa55982e2)
O         0.01213432959838    0.78688818828067    0.00000000000000
N        -0.67582314803259   -0.41940110809829    0.00000000000000
C         0.66368781843421   -0.36748608018238    0.00000000000000
3
 energy: -8.879979021483 gnorm: 0.005004898916 xtb: 6.2.2 (9d81278992624c895f80dd42a50cac0aa55982e2)
O        -0.00093107750430    0.78962026152727    0.00000000000000
N        -0.66329002439071   -0.41568508948161    0.00000000000000
C         0.66422010189501   -0.37393417204566    0.00000000000000
3
 energy: -8.879990004264 gnorm: 0.002217536980 xtb: 6.2.2 (9d81278992624c895f80dd42a50cac0aa55982e2)
O        -0.00231665073172    0.79086595483785    0.00000000000000
N        -0.66259777964750   -0.41579265012271    0.00000000000000
C         0.66491343037922   -0.37507230471514    0.00000000000000
3
 energy: -8.879992202537 gnorm: 0.000077636380 xtb: 6.2.2 (9d81278992624c895f80dd42a50cac0aa55982e2)
O        -0.00301576279843    0.79140877102420    0.00000000000000
N        -0.66259349775467   -0.41580688151737    0.00000000000000
C         0.66560826055310   -0.37560088950683    0.00000000000000
