      -----------------------------------------------------------      
     |                   =====================                   |     
     |                           x T B                           |     
     |                   =====================                   |     
     |                         S. Grimme                         |     
     |          Mulliken Center for Theoretical Chemistry        |     
     |                    University of Bonn                     |     
      -----------------------------------------------------------      

   * xtb version 6.2.2 (9d81278992624c895f80dd42a50cac0aa55982e2) compiled by '@Darwin' on 04/03/2020

   xtb is free software: you can redistribute it and/or modify it under
   the terms of the GNU Lesser General Public License as published by
   the Free Software Foundation, either version 3 of the License, or
   (at your option) any later version.
   
   xtb is distributed in the hope that it will be useful,
   but WITHOUT ANY WARRANTY; without even the implied warranty of
   MERCHANTABILITY or FITNESS FOR A PARTICULAR PURPOSE.  See the
   GNU Lesser General Public License for more details.
   
   Cite this work as:
   * S. Grimme, C. Bannwarth, P. Shushkov, J. Chem. Theory Comput., 2017,
     13, 1989-2009. DOI: 10.1021/acs.jctc.7b00118
   * C. Bannwarth, S. Ehlert and S. Grimme., J. Chem. Theory Comput., 2019,
     15, 1652-1671. DOI: 10.1021/acs.jctc.8b01176
   * P. Pracht, E. Caldeweyher, S. Ehlert, S. Grimme, ChemRxiv, 2019, preprint.
     DOI: 10.26434/chemrxiv.8326202.v1
   
   for DFT-D4:
   * E. Caldeweyher, C. Bannwarth and S. Grimme, J. Chem. Phys., 2017,
     147, 034112. DOI: 10.1063/1.4993215
   * E. Caldeweyher, S. Ehlert, A. Hansen, H. Neugebauer, S. Spicher,
     C. Bannwarth and S. Grimme, J. Chem. Phys., 2019, 150, 154122.
     DOI: 10.1063/1.5090222
   
   for sTDA-xTB:
   * S. Grimme and C. Bannwarth, J. Chem. Phys., 2016, 145, 054103.
     DOI: 10.1063/1.4959605
   
   in the mass-spec context:
   * V. Asgeirsson, C. Bauer and S. Grimme, Chem. Sci., 2017, 8, 4879.
     DOI: 10.1039/c7sc00601b
   
   for metadynamics refer to:
   * S. Grimme, J. Chem. Theory Comput., 2019, 155, 2847-2862
     DOI: 10.1021/acs.jctc.9b00143
   
   with help from (in alphabetical order)
   C. Bannwarth, F. Bohle, G. Brandenburg, E. Caldeweyher, M. Checinski,
   S. Dohm, S. Ehlert, S. Ehrlich, F. März, H. Neugebauer, J. Pisarek,
   P. Pracht, P. Shushkov, and S. Spicher.
   
 * started run on 2020/05/12 at 11:44:41.245     

           -------------------------------------------------
          |                Calculation Setup                |
           -------------------------------------------------

          program call               : xtb --input C1N1O1_2_S_1.input C1N1O1_2_S_1.xyz --ohess --molden --namespace C1N1O1_2_S_1 output.out
          calculation namespace      : C1N1O1_2_S_1
          coordinate file            : C1N1O1_2_S_1.xyz
          number of atoms            :                     3
          number of electrons        :                    15
          charge                     :                     0
          spin                       :                   0.5
          first test random number   :      0.20440737273214

   ID    Z sym.   atoms
    1    8 O      1
    2    7 N      2
    3    6 C      3

           -------------------------------------------------
          |                 G F N 2 - x T B                 |
           -------------------------------------------------

        Reference                      10.1021/acs.jctc.8b01176
      * Hamiltonian:
        H0-scaling (s, p, d)           1.850000    2.230000    2.230000
        zeta-weighting                 0.500000
      * Dispersion:
        s8                             2.700000
        a1                             0.520000
        a2                             5.000000
        s9                             5.000000
      * Repulsion:
        kExp                           1.500000    1.000000
        rExp                           1.000000
      * Coulomb:
        alpha                          2.000000
        third order                    shell-resolved
        anisotropic                    true
        a3                             3.000000
        a5                             4.000000
        cn-shift                       1.200000
        cn-exp                         4.000000
        max-rad                        5.000000


          ...................................................
          :                      SETUP                      :
          :.................................................:
          :  # basis functions                  12          :
          :  # atomic orbitals                  12          :
          :  # shells                            6          :
          :  # electrons                        15          :
          :  max. iterations                   250          :
          :  Hamiltonian                  GFN2-xTB          :
          :  restarted?                      false          :
          :  GBSA solvation                  false          :
          :  PC potential                    false          :
          :  electronic temp.          300.0000000     K    :
          :  accuracy                    1.0000000          :
          :  -> integral cutoff          0.2500000E+02      :
          :  -> integral neglect         0.1000000E-07      :
          :  -> SCF convergence          0.1000000E-05 Eh   :
          :  -> wf. convergence          0.1000000E-03 e    :
          :  Broyden damping             0.4000000          :
          ...................................................

 iter      E             dE          RMSdq      gap      omega  full diag
   1     -8.5561927 -0.855619E+01  0.945E+00    0.96       0.0  T
   2     -7.2084809  0.134771E+01  0.178E+01    2.99       1.0  T
   3     -8.7035825 -0.149510E+01  0.743E+00    1.35       1.0  T
   4     -8.7535226 -0.499401E-01  0.541E+00    1.19       1.0  T
   5     -8.7641862 -0.106636E-01  0.464E+00    1.02       1.0  T
   6     -8.6337737  0.130412E+00  0.615E+00    0.94       1.0  T
   7     -8.7783055 -0.144532E+00  0.847E-01    1.03       1.0  T
   8     -8.7741777  0.412781E-02  0.110E+00    1.11       1.0  T
   9     -8.7773770 -0.319936E-02  0.669E-01    1.04       1.0  T
  10     -8.7784357 -0.105870E-02  0.348E-01    1.07       1.0  T
  11     -8.7787082 -0.272417E-03  0.229E-01    1.05       1.0  T
  12     -8.7788855 -0.177292E-03  0.747E-02    1.06       1.0  T
  13     -8.7789055 -0.200222E-04  0.204E-02    1.06       2.8  T
  14     -8.7789070 -0.151062E-05  0.551E-03    1.06      10.5  T
  15     -8.7789071 -0.877877E-07  0.300E-03    1.06      19.3  T
  16     -8.7789071 -0.283549E-07  0.580E-04    1.06      99.5  T
  17     -8.7789071 -0.458410E-09  0.469E-04    1.06     123.0  T

   *** convergence criteria satisfied after 17 iterations ***

         #    Occupation            Energy/Eh            Energy/eV
      -------------------------------------------------------------
         1        2.0000           -0.8197795             -22.3073
         2        2.0000           -0.7418918             -20.1879
         3        2.0000           -0.6862730             -18.6744
         4        2.0000           -0.6416359             -17.4598
         5        2.0000           -0.5533453             -15.0573
         6        2.0000           -0.5373968             -14.6233
         7        1.5076           -0.4441498             -12.0859
         8        1.4924           -0.4440920             -12.0844 (HOMO)
         9                         -0.4050573             -11.0222 (LUMO)
        10                         -0.3748821             -10.2011
        11                         -0.0429370              -1.1684
        12                          0.0323537               0.8804
      -------------------------------------------------------------
                  HL-Gap            0.0390347 Eh            1.0622 eV
             Fermi-level           -0.4341902 Eh          -11.8149 eV

 SCC (total)                   0 d,  0 h,  0 min,  0.002 sec
 SCC setup                      ...        0 min,  0.000 sec (  3.684%)
 Dispersion                     ...        0 min,  0.000 sec (  0.446%)
 integral evaluation            ...        0 min,  0.001 sec ( 25.393%)
 zeroth order Hamiltonian       ...        0 min,  0.000 sec (  0.488%)
 iterations                     ...        0 min,  0.001 sec ( 45.287%)
 molecular gradient             ...        0 min,  0.000 sec ( 22.028%)
 printout                       ...        0 min,  0.000 sec (  2.176%)

         :::::::::::::::::::::::::::::::::::::::::::::::::::::
         ::                     SUMMARY                     ::
         :::::::::::::::::::::::::::::::::::::::::::::::::::::
         :: total energy              -8.765802190145 Eh    ::
         :: gradient norm              0.153938415847 Eh/a0 ::
         :: HOMO-LUMO gap              1.062187548605 eV    ::
         ::.................................................::
         :: SCC energy                -8.778907103460 Eh    ::
         :: -> isotropic ES           -0.010544752184 Eh    ::
         :: -> anisotropic ES          0.003666677333 Eh    ::
         :: -> anisotropic XC          0.003334968136 Eh    ::
         :: -> dispersion             -0.000771677160 Eh    ::
         :: repulsion energy           0.013104911986 Eh    ::
         :: add. restraining           0.000000000000 Eh    ::
         :::::::::::::::::::::::::::::::::::::::::::::::::::::

      ----------------------------------------------------------- 
     |                   =====================                   |
     |                        A N C O P T                        |
     |                   =====================                   |
     |               Approximate Normal Coordinate               |
     |                Rational Function Optimizer                |
      ----------------------------------------------------------- 

          ...................................................
          :                      SETUP                      :
          :.................................................:
          :   optimization level            normal          :
          :   max. optcycles                   200          :
          :   ANC micro-cycles                  20          :
          :   degrees of freedom                 3          :
          :.................................................:
          :   RF solver                   davidson          :
          :   write xtbopt.log                true          :
          :   linear?                        false          :
          :   energy convergence         0.5000000E-05 Eh   :
          :   grad. convergence          0.1000000E-02 Eh/α :
          :   maximium RF displ.         1.0000000          :
          :   Hlow (freq-cutoff)         0.1000000E-01      :
          :   Hmax (freq-cutoff)         5.0000000          :
          :   S6 in model hess.         20.0000000          :
          ...................................................

generating ANC from model Hessian ...
Using Lindh-Hessian (1995)
 Shifting diagonal of input Hessian by    0.0000000000000000     
 Lowest  eigenvalues of input Hessian
   -0.000000   -0.000000   -0.000000    0.000000    0.000000    0.000000
    0.202621    1.127315    1.392869
 Highest eigenvalues
    0.000000    0.000000    0.000000    0.202621    1.127315    1.392869


........................................................................
.............................. CYCLE    1 ..............................
........................................................................
   1     -8.7789071 -0.877891E+01  0.793E-05    1.06       0.0  T
   2     -8.7789071  0.804940E-09  0.437E-04    1.06     132.2  T
   3     -8.7789071 -0.827129E-09  0.341E-05    1.06    1690.7  T
     SCC iter.                  ...        0 min,  0.000 sec
     gradient                   ...        0 min,  0.000 sec
 * total energy  :    -8.7658022 Eh     change       -0.1271257E-08 Eh
   gradient norm :     0.1539385 Eh/α   predicted     0.0000000E+00 (-100.00%)
   displ. norm   :     0.2441994 α      lambda       -0.2857061E-01
   maximum displ.:     0.2089223 α      in ANC's #1, #2, #3, ...

........................................................................
.............................. CYCLE    2 ..............................
........................................................................
   1     -8.8105373 -0.881054E+01  0.365E+00    1.69       0.0  T
   2     -8.7858313  0.247060E-01  0.282E+00    2.09       1.0  T
   3     -8.6999989  0.858324E-01  0.577E+00    1.72       1.0  T
   4     -8.8148365 -0.114838E+00  0.738E-01    1.90       1.0  T
   5     -8.8147069  0.129647E-03  0.624E-01    1.92       1.0  T
   6     -8.8149186 -0.211740E-03  0.124E-01    1.91       1.0  T
   7     -8.8149366 -0.179954E-04  0.153E-01    1.91       1.0  T
   8     -8.8149454 -0.879542E-05  0.452E-02    1.91       1.3  T
   9     -8.8149463 -0.879957E-06  0.808E-03    1.91       7.1  T
  10     -8.8149465 -0.209318E-06  0.162E-03    1.91      35.7  T
  11     -8.8149465 -0.377161E-08  0.517E-04    1.91     111.6  T
  12     -8.8149465 -0.214410E-09  0.652E-04    1.91      88.6  T
     SCC iter.                  ...        0 min,  0.001 sec
     gradient                   ...        0 min,  0.000 sec
 * total energy  :    -8.7910601 Eh     change       -0.2525790E-01 Eh
   gradient norm :     0.0927359 Eh/α   predicted    -0.1513719E-01 ( -40.07%)
   displ. norm   :     0.8495476 α      lambda       -0.7498032E-01
   maximum displ.:     0.7961740 α      in ANC's #1, #2, #3, ...

........................................................................
.............................. CYCLE    3 ..............................
........................................................................
   1     -8.9210881 -0.892109E+01  0.830E+00    2.40       0.0  T
   2     -8.9226277 -0.153956E-02  0.469E+00    2.51       1.0  T
   3     -8.9231057 -0.477990E-03  0.452E-01    2.21       1.0  T
   4     -8.9232729 -0.167213E-03  0.233E-01    2.31       1.0  T
   5     -8.9232808 -0.792407E-05  0.792E-02    2.31       1.0  T
   6     -8.9232817 -0.856560E-06  0.229E-02    2.31       2.5  T
   7     -8.9232817 -0.294689E-07  0.229E-03    2.31      25.2  T
   8     -8.9232817 -0.417571E-08  0.107E-03    2.31      54.0  T
   9     -8.9232817 -0.125925E-08  0.579E-05    2.31     996.3  T
  10     -8.9232817  0.792255E-12  0.324E-05    2.31    1782.5  T
     SCC iter.                  ...        0 min,  0.000 sec
     gradient                   ...        0 min,  0.000 sec
 * total energy  :    -8.8358584 Eh     change       -0.4479829E-01 Eh
   gradient norm :     0.3710847 Eh/α   predicted    -0.6454801E-01 (  44.09%)
   displ. norm   :     0.1109233 α      lambda       -0.4030016E-01
   maximum displ.:     0.1036379 α      in ANC's #2, #1, #3, ...

........................................................................
.............................. CYCLE    4 ..............................
........................................................................
   1     -8.9176610 -0.891766E+01  0.202E+00    2.06       0.0  T
   2     -8.9201451 -0.248409E-02  0.717E-01    2.12       1.0  T
   3     -8.9202098 -0.647411E-04  0.397E-01    2.08       1.0  T
   4     -8.9202224 -0.125286E-04  0.748E-02    2.11       1.0  T
   5     -8.9202261 -0.377461E-05  0.401E-02    2.09       1.4  T
   6     -8.9202263 -0.149692E-06  0.559E-03    2.09      10.3  T
   7     -8.9202263 -0.239526E-07  0.209E-03    2.09      27.6  T
   8     -8.9202263 -0.649990E-08  0.370E-04    2.09     155.9  T
   9     -8.9202263 -0.485141E-10  0.577E-05    2.09    1000.3  T
     SCC iter.                  ...        0 min,  0.001 sec
     gradient                   ...        0 min,  0.000 sec
 * total energy  :    -8.8642387 Eh     change       -0.2838036E-01 Eh
   gradient norm :     0.1681681 Eh/α   predicted    -0.2039800E-01 ( -28.13%)
   displ. norm   :     0.5371234 α      lambda       -0.4985491E-01
   maximum displ.:     0.5322898 α      in ANC's #1, #2, #3, ...

........................................................................
.............................. CYCLE    5 ..............................
........................................................................
   1     -8.9187361 -0.891874E+01  0.111E+01    5.16       0.0  T
   2     -8.9818936 -0.631575E-01  0.458E+00    4.98       1.0  T
   3     -8.9808648  0.102877E-02  0.332E+00    4.94       1.0  T
   4     -8.8815333  0.993315E-01  0.663E+00    4.75       1.0  T
   5     -8.9834170 -0.101884E+00  0.135E+00    4.87       1.0  T
   6     -8.9835724 -0.155416E-03  0.121E+00    4.88       1.0  T
   7     -8.9845598 -0.987458E-03  0.916E-01    4.87       1.0  T
   8     -8.9844579  0.101891E-03  0.961E-01    4.87       1.0  T
   9     -8.9855049 -0.104692E-02  0.428E-01    4.87       1.0  T
  10     -8.9857062 -0.201382E-03  0.230E-01    4.87       1.0  T
  11     -8.9857827 -0.764607E-04  0.695E-02    4.87       1.0  T
  12     -8.9857901 -0.738007E-05  0.139E-02    4.87       4.1  T
  13     -8.9857904 -0.321518E-06  0.339E-03    4.87      17.0  T
  14     -8.9857904 -0.188802E-07  0.836E-04    4.87      69.0  T
  15     -8.9857904 -0.780890E-09  0.459E-04    4.87     125.7  T
     SCC iter.                  ...        0 min,  0.001 sec
     gradient                   ...        0 min,  0.000 sec
 * total energy  :    -8.8305427 Eh     change        0.3369600E-01 Eh
   gradient norm :     0.4672698 Eh/α   predicted    -0.3211906E-01 (-195.32%)
   displ. norm   :     0.3114405 α      lambda       -0.1318129E+00
   maximum displ.:     0.2963654 α      in ANC's #1, #2, #3, ...

........................................................................
.............................. CYCLE    6 ..............................
........................................................................
   1     -8.8483261 -0.884833E+01  0.763E+00    2.40       0.0  T
   2     -8.7734122  0.749139E-01  0.663E+00    3.56       1.0  T
   3     -8.8722094 -0.987972E-01  0.527E+00    2.68       1.0  T
   4     -8.9076574 -0.354480E-01  0.362E+00    2.94       1.0  T
   5     -8.9144346 -0.677716E-02  0.222E+00    3.09       1.0  T
   6     -8.9192762 -0.484167E-02  0.105E+00    3.29       1.0  T
   7     -8.9205808 -0.130454E-02  0.778E-02    3.46       1.0  T
   8     -8.9205745  0.632737E-05  0.860E-02    3.44       1.0  T
   9     -8.9205879 -0.134672E-04  0.979E-03    3.45       5.9  T
  10     -8.9205879  0.397050E-07  0.714E-03    3.45       8.1  T
  11     -8.9205880 -0.730179E-07  0.129E-03    3.45      44.6  T
  12     -8.9205880  0.930420E-09  0.936E-04    3.45      61.7  T
  13     -8.9205880 -0.132560E-08  0.319E-05    3.45    1811.5  T
     SCC iter.                  ...        0 min,  0.001 sec
     gradient                   ...        0 min,  0.000 sec
 * total energy  :    -8.8772473 Eh     change       -0.4670460E-01 Eh
   gradient norm :     0.0530960 Eh/α   predicted    -0.7229901E-01 (  54.80%)
   displ. norm   :     0.0832989 α      lambda       -0.4026901E-02
   maximum displ.:     0.0660286 α      in ANC's #1, #3, #2, ...

........................................................................
.............................. CYCLE    7 ..............................
........................................................................
   1     -8.9217504 -0.892175E+01  0.113E+00    2.99       0.0  T
   2     -8.9222674 -0.517027E-03  0.519E-01    2.96       1.0  T
   3     -8.9223226 -0.552557E-04  0.303E-01    3.01       1.0  T
   4     -8.9223488 -0.261211E-04  0.566E-02    2.97       1.0  T
   5     -8.9223560 -0.722135E-05  0.214E-02    2.99       2.7  T
   6     -8.9223560 -0.676416E-07  0.354E-03    2.99      16.3  T
   7     -8.9223561 -0.222792E-08  0.129E-03    2.99      44.8  T
   8     -8.9223561 -0.498680E-09  0.202E-04    2.99     286.2  T
   9     -8.9223561 -0.114486E-10  0.271E-05    2.99    2128.8  T
     SCC iter.                  ...        0 min,  0.000 sec
     gradient                   ...        0 min,  0.001 sec
 * total energy  :    -8.8795188 Eh     change       -0.2271446E-02 Eh
   gradient norm :     0.0186262 Eh/α   predicted    -0.2027422E-02 ( -10.74%)
   displ. norm   :     0.0128469 α      lambda       -0.2288246E-03
   maximum displ.:     0.0126757 α      in ANC's #3, #1, #2, ...

........................................................................
.............................. CYCLE    8 ..............................
........................................................................
   1     -8.9230260 -0.892303E+01  0.131E-01    2.95       0.0  T
   2     -8.9230293 -0.337541E-05  0.711E-02    2.96       1.0  T
   3     -8.9230293  0.629485E-07  0.347E-02    2.95       1.7  T
   4     -8.9230307 -0.144890E-05  0.547E-03    2.96      10.6  T
   5     -8.9230307 -0.128733E-07  0.304E-03    2.96      19.0  T
   6     -8.9230307 -0.254310E-08  0.710E-04    2.96      81.3  T
   7     -8.9230307 -0.798508E-10  0.902E-05    2.96     639.9  T
     SCC iter.                  ...        0 min,  0.001 sec
     gradient                   ...        0 min,  0.000 sec
 * total energy  :    -8.8797115 Eh     change       -0.1926956E-03 Eh
   gradient norm :     0.0135805 Eh/α   predicted    -0.1144298E-03 ( -40.62%)
   displ. norm   :     0.0373630 α      lambda       -0.5048913E-03
   maximum displ.:     0.0326208 α      in ANC's #3, #1, #2, ...

........................................................................
.............................. CYCLE    9 ..............................
........................................................................
   1     -8.9243887 -0.892439E+01  0.513E-01    2.92       0.0  T
   2     -8.9244888 -0.100138E-03  0.251E-01    2.97       1.0  T
   3     -8.9245091 -0.202617E-04  0.145E-01    2.93       1.0  T
   4     -8.9245223 -0.131872E-04  0.241E-02    2.95       2.4  T
   5     -8.9245233 -0.977057E-06  0.850E-03    2.95       6.8  T
   6     -8.9245233 -0.996223E-08  0.132E-03    2.95      43.7  T
   7     -8.9245233 -0.294939E-09  0.466E-04    2.95     124.0  T
   8     -8.9245233 -0.578080E-10  0.109E-04    2.95     527.6  T
     SCC iter.                  ...        0 min,  0.000 sec
     gradient                   ...        0 min,  0.000 sec
 * total energy  :    -8.8799790 Eh     change       -0.2675344E-03 Eh
   gradient norm :     0.0049555 Eh/α   predicted    -0.2527984E-03 (  -5.51%)
   displ. norm   :     0.0045268 α      lambda       -0.1606472E-04
   maximum displ.:     0.0032523 α      in ANC's #2, #3, #1, ...

........................................................................
.............................. CYCLE   10 ..............................
........................................................................
   1     -8.9242111 -0.892421E+01  0.621E-02    2.94       0.0  T
   2     -8.9242129 -0.179623E-05  0.280E-02    2.94       2.1  T
   3     -8.9242131 -0.184508E-06  0.161E-02    2.94       3.6  T
   4     -8.9242132 -0.720231E-07  0.434E-03    2.94      13.3  T
   5     -8.9242132 -0.321101E-07  0.169E-03    2.94      34.1  T
   6     -8.9242132 -0.258863E-09  0.132E-04    2.94     438.8  T
   7     -8.9242132 -0.307310E-11  0.246E-05    2.94    2346.3  T
     SCC iter.                  ...        0 min,  0.000 sec
     gradient                   ...        0 min,  0.000 sec
 * total energy  :    -8.8799900 Eh     change       -0.1098278E-04 Eh
   gradient norm :     0.0022019 Eh/α   predicted    -0.8032075E-05 ( -26.87%)
   displ. norm   :     0.0023495 α      lambda       -0.4288752E-05
   maximum displ.:     0.0019745 α      in ANC's #2, #3, #1, ...

........................................................................
.............................. CYCLE   11 ..............................
........................................................................
   1     -8.9239091 -0.892391E+01  0.253E-02    2.93       0.0  T
   2     -8.9239094 -0.287440E-06  0.125E-02    2.93       4.6  T
   3     -8.9239094 -0.210547E-07  0.647E-03    2.93       8.9  T
   4     -8.9239094 -0.722536E-08  0.125E-03    2.93      46.1  T
   5     -8.9239094  0.122444E-10  0.241E-04    2.93     239.6  T
   6     -8.9239094 -0.152111E-09  0.858E-05    2.93     673.2  T
     SCC iter.                  ...        0 min,  0.000 sec
     gradient                   ...        0 min,  0.000 sec
 * total energy  :    -8.8799922 Eh     change       -0.2198273E-05 Eh
   gradient norm :     0.0000774 Eh/α   predicted    -0.2145646E-05 (  -2.39%)
   displ. norm   :     0.0001109 α      lambda       -0.6067429E-08
   maximum displ.:     0.0000968 α      in ANC's #1, #2, #3, ...

   *** GEOMETRY OPTIMIZATION CONVERGED AFTER 11 ITERATIONS ***

------------------------------------------------------------------------
 total energy gain   :        -0.1141900 Eh      -71.6553 kcal/mol
 total RMSD          :         0.7213845 a0        0.3817 Å
 total power (kW/mol):       -27.2550760 (step)********** (real)
------------------------------------------------------------------------

 ANCopt (total)                0 d,  0 h,  0 min,  0.019 sec
 optimizer setup                ...        0 min,  0.000 sec (  0.339%)
 model hessian                  ...        0 min,  0.000 sec (  0.205%)
 ANC generation                 ...        0 min,  0.000 sec (  0.174%)
 coordinate transformation      ...        0 min,  0.000 sec (  0.149%)
 single point calculation       ...        0 min,  0.018 sec ( 94.406%)
 optimization log               ...        0 min,  0.000 sec (  1.079%)
 hessian update                 ...        0 min,  0.000 sec (  0.222%)
 rational function              ...        0 min,  0.000 sec (  1.191%)

================
 final structure:
================
3
 xtb: 6.2.2 (9d81278992624c895f80dd42a50cac0aa55982e2)
O        -0.00301576279843    0.79140877102420    0.00000000000000
N        -0.66259349775467   -0.41580688151737    0.00000000000000
C         0.66560826055310   -0.37560088950683    0.00000000000000

 Bond Distances (Angstroems)
 ---------------------------
O1-N2=1.3756         O1-C3=1.3450         N2-O1=1.3756         N2-C3=1.3288         C3-O1=1.3450         C3-N2=1.3288         
 N  C  Rav=1.3288 sigma=0.0000  Rmin=1.3288  Rmax=1.3288     1
 O  C  Rav=1.3450 sigma=0.0000  Rmin=1.3450  Rmax=1.3450     1
 O  N  Rav=1.3756 sigma=0.0000  Rmin=1.3756  Rmax=1.3756     1

 selected bond angles (degree)
 --------------------
C3-O1-N2= 58.46                C3-N2-O1= 59.62                N2-C3-O1= 61.92                

 selected dihedral angles (degree)
 ---------------------------------

           -------------------------------------------------
          |                Final Singlepoint                |
           -------------------------------------------------

          ...................................................
          :                      SETUP                      :
          :.................................................:
          :  # basis functions                  12          :
          :  # atomic orbitals                  12          :
          :  # shells                            6          :
          :  # electrons                        15          :
          :  max. iterations                   250          :
          :  Hamiltonian                  GFN2-xTB          :
          :  restarted?                      false          :
          :  GBSA solvation                  false          :
          :  PC potential                    false          :
          :  electronic temp.          300.0000000     K    :
          :  accuracy                    1.0000000          :
          :  -> integral cutoff          0.2500000E+02      :
          :  -> integral neglect         0.1000000E-07      :
          :  -> SCF convergence          0.1000000E-05 Eh   :
          :  -> wf. convergence          0.1000000E-03 e    :
          :  Broyden damping             0.4000000          :
          ...................................................

 iter      E             dE          RMSdq      gap      omega  full diag
   1     -8.9239094 -0.892391E+01  0.137E-05    2.93       0.0  T
   2     -8.9239094 -0.888178E-14  0.895E-06    2.93    6451.1  T
   3     -8.9239094 -0.142109E-13  0.159E-06    2.93   36385.2  T

   *** convergence criteria satisfied after 3 iterations ***

         #    Occupation            Energy/Eh            Energy/eV
      -------------------------------------------------------------
         1        2.0000           -0.8341946             -22.6996
         2        2.0000           -0.7142089             -19.4346
         3        2.0000           -0.6870491             -18.6956
         4        2.0000           -0.6516827             -17.7332
         5        2.0000           -0.5790664             -15.7572
         6        2.0000           -0.5197045             -14.1419
         7        2.0000           -0.4724840             -12.8569
         8        1.0000           -0.4475093             -12.1773 (HOMO)
         9                         -0.3397280              -9.2445 (LUMO)
        10                         -0.1513310              -4.1179
        11                          0.0020709               0.0564
        12                          0.3150348               8.5725
      -------------------------------------------------------------
                  HL-Gap            0.1077813 Eh            2.9329 eV
             Fermi-level           -0.4268077 Eh          -11.6140 eV

 SCC (total)                   0 d,  0 h,  0 min,  0.001 sec
 SCC setup                      ...        0 min,  0.000 sec (  3.475%)
 Dispersion                     ...        0 min,  0.000 sec (  0.390%)
 integral evaluation            ...        0 min,  0.001 sec ( 40.897%)
 zeroth order Hamiltonian       ...        0 min,  0.000 sec (  0.425%)
 iterations                     ...        0 min,  0.000 sec ( 12.781%)
 molecular gradient             ...        0 min,  0.000 sec ( 36.377%)
 printout                       ...        0 min,  0.000 sec (  5.141%)

         :::::::::::::::::::::::::::::::::::::::::::::::::::::
         ::                     SUMMARY                     ::
         :::::::::::::::::::::::::::::::::::::::::::::::::::::
         :: total energy              -8.879992202535 Eh    ::
         :: gradient norm              0.000078011779 Eh/a0 ::
         :: HOMO-LUMO gap              2.932879323016 eV    ::
         ::.................................................::
         :: SCC energy                -8.923909387560 Eh    ::
         :: -> isotropic ES           -0.002118214310 Eh    ::
         :: -> anisotropic ES          0.007224323117 Eh    ::
         :: -> anisotropic XC          0.007814525114 Eh    ::
         :: -> dispersion             -0.000754174921 Eh    ::
         :: repulsion energy           0.043917184277 Eh    ::
         :: add. restraining           0.000000000000 Eh    ::
         :::::::::::::::::::::::::::::::::::::::::::::::::::::

           ------------------------------------------------- 
          |                Numerical Hessian                |
           ------------------------------------------------- 
step length          :   0.00500
SCC accuracy         :   0.30000
Hessian scale factor :   1.00000
frozen atoms in %    :   0.00000    0
RMS gradient         :   0.00008
estimated CPU  time      0.00 min
estimated wall time      0.00 min

writing file <hessian>.

 projected vibrational frequencies (cm-1)
eigval :       -0.00    -0.00    -0.00     0.00     0.00     0.00
eigval :      804.20  1113.87  1606.43
           -------------------------------------------------
          |                Property Printout                |
           -------------------------------------------------

    * Orbital Energies and Occupations

         #    Occupation            Energy/Eh            Energy/eV
      -------------------------------------------------------------
         1        2.0000           -0.8341946             -22.6996
         2        2.0000           -0.7142089             -19.4346
         3        2.0000           -0.6870491             -18.6956
         4        2.0000           -0.6516827             -17.7332
         5        2.0000           -0.5790664             -15.7572
         6        2.0000           -0.5197045             -14.1419
         7        2.0000           -0.4724840             -12.8569
         8        1.0000           -0.4475093             -12.1773 (HOMO)
Molecule has the following symmetry elements: (sigma) 
It seems to be the Cs point group
         9                         -0.3397280              -9.2445 (LUMO)
        10                         -0.1513310              -4.1179
        11                          0.0020709               0.0564
        12                          0.3150348               8.5725
      -------------------------------------------------------------
                  HL-Gap            0.1077814 Eh            2.9329 eV
             Fermi-level           -0.4268077 Eh          -11.6140 eV

     #   Z        covCN         q      C6AA      α(0)
     1   8 O      1.770    -0.047    15.094     5.246
     2   7 N      1.827     0.011    21.743     6.909
     3   6 C      1.764     0.036    30.328     8.904

 Mol. C6AA /au·bohr⁶  :        196.491542
 Mol. C8AA /au·bohr⁸  :       4731.590453
 Mol. α(0) /au        :         21.059961


Wiberg/Mayer (AO) data.
largest (>0.10) Wiberg bond orders for each atom
          total WBO             WBO to atom ...
     1  O   2.103        C    3 1.102    N    2 1.001
     2  N   2.348        C    3 1.347    O    1 1.001
     3  C   2.449        N    2 1.347    O    1 1.102

MOs/occ written to file <molden.input>


molecular dipole:
                 x           y           z       tot (Debye)
 q only:        0.032      -0.105       0.000
   full:       -0.142       0.243      -0.000       0.715
molecular quadrupole (traceless):
                xx          xy          yy          xz          yz          zz
 q only:        0.115      -0.031      -0.118      -0.000       0.000       0.003
  q+dip:       -0.820       0.253      -0.774       0.000       0.000       1.594
   full:       -1.893       0.462      -0.780       0.000       0.000       2.673

           -------------------------------------------------
          |                Geometry Summary                 |
           -------------------------------------------------

      molecular mass/u    :       42.0168440
   center of mass at/Å    :       -0.0317621       0.0553766       0.0000000
  moments of inertia/u·Å² :        0.1114992E+02   0.1428652E+02   0.2543644E+02
rotational constants/cm⁻¹ :        0.1511907E+01   0.1179968E+01   0.6627356E+00

           -------------------------------------------------
          |               Frequency Printout                |
           -------------------------------------------------
 projected vibrational frequencies (cm-1)
eigval :       -0.00    -0.00    -0.00     0.00     0.00     0.00
eigval :      804.20  1113.87  1606.43
 reduced masses (amu)
   1: 12.01   2: 14.68   3: 16.00   4: 14.10   5: 14.02   6: 13.65   7: 13.77   8: 14.54
   9: 13.29
 IR intensities (amu)
   1:  0.11   2:  0.08   3:  0.11   4:  0.01   5:  0.01   6:  0.13   7:  0.73   8:  0.68
   9:  0.40
 Raman intensities (amu)
   1:  0.00   2:  0.00   3:  0.00   4:  0.00   5:  0.00   6:  0.00   7:  0.00   8:  0.00
   9:  0.00
 output can be read by thermo (or use thermo option).
 writing <g98.out> molden fake output.
 recommended (thermochemical) frequency scaling factor: 1.0
           -------------------------------------------------
          |             Thermodynamic Functions             |
           -------------------------------------------------

cs  symmetry found (for desy threshold:  0.10E+00) used in thermo

          ...................................................
          :                      SETUP                      :
          :.................................................:
          :  # frequencies                           3      :
          :  # imaginary freq.                       0      :
          :  linear?                             false      :
          :  only rotor calc.                    false      :
          :  symmetry                               cs      :
          :  rotational number                       1      :
          :  scaling factor                  1.0000000      :
          :  rotor cutoff                   50.0000000 cm⁻¹ :
          :  imag. cutoff                  -20.0000000 cm⁻¹ :
          :.................................................:

    mode    ω/cm⁻¹     T·S(HO)/kcal·mol⁻¹    T·S(FR)/kcal·mol⁻¹   T·S(vib)
   ------------------------------------------------------------------------
   ------------------------------------------------------------------------

   temp. (K)  partition function   enthalpy   heat capacity  entropy
                                   cal/mol     cal/K/mol   cal/K/mol   J/K/mol
 298.15  VIB   1.03                   65.234      0.964      0.270
         ROT  0.486E+04              888.752      2.981     19.851
         INT  0.499E+04              953.986      3.944     20.122
         TR   0.264E+27             1481.254      4.968     37.117
         TOT                        2435.2401     8.9126    57.2382   239.4847

   temp. (K)  partition function   enthalpy   heat capacity  entropy
                                   cal/mol     cal/K/mol   cal/K/mol   J/K/mol
 120.00  VIB   1.00                    0.154      0.013      0.001
         ROT  0.124E+04              357.707      2.981     17.138
         INT  0.124E+04              357.861      2.993     17.140
         TR   0.673E+26              596.178      4.968     32.597
         TOT                         954.0392     7.9616    49.7371   208.0999

   temp. (K)  partition function   enthalpy   heat capacity  entropy
                                   cal/mol     cal/K/mol   cal/K/mol   J/K/mol
 100.00  VIB   1.00                    0.022      0.003      0.000
         ROT   945.                  298.089      2.981     16.595
         INT   945.                  298.111      2.983     16.595
         TR   0.512E+26              496.815      4.968     31.692
         TOT                         794.9261     7.9516    48.2871   202.0330

   temp. (K)  partition function   enthalpy   heat capacity  entropy
                                   cal/mol     cal/K/mol   cal/K/mol   J/K/mol
  80.00  VIB   1.00                    0.001      0.000      0.000
         ROT   676.                  238.471      2.981     15.930
         INT   676.                  238.472      2.981     15.930
         TR   0.366E+26              397.452      4.968     30.584
         TOT                         635.9244     7.9493    46.5136   194.6129

   temp. (K)  partition function   enthalpy   heat capacity  entropy
                                   cal/mol     cal/K/mol   cal/K/mol   J/K/mol
  60.00  VIB   1.00                    0.000      0.000     -0.000
         ROT   439.                  178.853      2.981     15.072
         INT   439.                  178.853      2.981     15.072
         TR   0.238E+26              298.089      4.968     29.155
         TOT                         476.9424     7.9490    44.2275   185.0477

   temp. (K)  partition function   enthalpy   heat capacity  entropy
                                   cal/mol     cal/K/mol   cal/K/mol   J/K/mol
  40.00  VIB   1.00                    0.000      0.000     -0.000
         ROT   239.                  119.236      2.981     13.864
         INT   239.                  119.236      2.981     13.864
         TR   0.129E+26              198.726      4.968     27.142
         TOT                         317.9616     7.9490    41.0054   171.5665

   temp. (K)  partition function   enthalpy   heat capacity  entropy
                                   cal/mol     cal/K/mol   cal/K/mol   J/K/mol
  20.00  VIB   1.00                    0.000      0.000     -0.000
         ROT   84.5                   59.618      2.981     11.797
         INT   84.5                   59.618      2.981     11.797
         TR   0.458E+25               99.363      4.968     23.700
         TOT                         158.9808     7.9490    35.4972   148.5203

   temp. (K)  partition function   enthalpy   heat capacity  entropy
                                   cal/mol     cal/K/mol   cal/K/mol   J/K/mol
  10.00  VIB   1.00                    0.000      0.000     -0.000
         ROT   29.9                   29.809      2.981      9.731
         INT   29.9                   29.809      2.981      9.731
         TR   0.162E+25               49.681      4.968     20.258
         TOT                          79.4904     7.9490    29.9890   125.4740

       T/K    H(0)-H(T)+PV         H(T)/Eh          T*S/Eh         G(T)/Eh
   ------------------------------------------------------------------------
    298.15    0.388080E-02    0.119102E-01    0.271957E-01   -0.152855E-01
    120.00    0.152036E-02    0.954978E-02    0.951133E-02    0.384481E-04
    100.00    0.126680E-02    0.929621E-02    0.769503E-02    0.160118E-02
     80.00    0.101341E-02    0.904283E-02    0.592993E-02    0.311290E-02
     60.00    0.760056E-03    0.878947E-02    0.422886E-02    0.456062E-02
     40.00    0.506704E-03    0.853612E-02    0.261385E-02    0.592227E-02
     20.00    0.253352E-03    0.828277E-02    0.113137E-02    0.715140E-02
     10.00    0.126676E-03    0.815609E-02    0.477905E-03    0.767819E-02 (used)
   ------------------------------------------------------------------------

         :::::::::::::::::::::::::::::::::::::::::::::::::::::
         ::                  THERMODYNAMIC                  ::
         :::::::::::::::::::::::::::::::::::::::::::::::::::::
         :: total free energy          -8.872314013266 Eh   ::
         ::.................................................::
         :: total energy               -8.879992202534 Eh   ::
         :: zero point energy           0.008029418618 Eh   ::
         :: G(RRHO) w/o ZPVE           -0.000351229350 Eh   ::
         :: G(RRHO) contrib.            0.007678189268 Eh   ::
         :::::::::::::::::::::::::::::::::::::::::::::::::::::

optimized geometry written to: xtbopt.xyz


           -------------------------------------------------
          | TOTAL ENERGY               -8.879992202534 Eh   |
          | TOTAL ENTHALPY             -8.871836107900 Eh   |
          | TOTAL FREE ENERGY          -8.872314013266 Eh   |
          | GRADIENT NORM               0.000078056239 Eh/α |
          | HOMO-LUMO GAP               2.932880153800 eV   |
           -------------------------------------------------

------------------------------------------------------------------------
 * finished run on 2020/05/12 at 11:44:41.309     
------------------------------------------------------------------------
 total:
 * wall-time:     0 d,  0 h,  0 min,  0.063 sec
 *  cpu-time:     0 d,  0 h,  0 min,  0.063 sec
 * ratio c/w:     0.999 speedup
 SCF:
 * wall-time:     0 d,  0 h,  0 min,  0.002 sec
 *  cpu-time:     0 d,  0 h,  0 min,  0.002 sec
 * ratio c/w:     1.000 speedup
 ANC optimizer:
 * wall-time:     0 d,  0 h,  0 min,  0.021 sec
 *  cpu-time:     0 d,  0 h,  0 min,  0.021 sec
 * ratio c/w:     0.998 speedup
 numerical hessian:
 * wall-time:     0 d,  0 h,  0 min,  0.025 sec
 *  cpu-time:     0 d,  0 h,  0 min,  0.025 sec
 * ratio c/w:     1.000 speedup

