[Molden Format]
[Title]
[Atoms] AU
O      1     8 -0.56911345671922E-02  0.14955457209228E+01 -0.25903265009649E-05
N      2     7 -0.12521242407483E+01 -0.78575449780211E+00  0.57421355205053E-05
C      3     6  0.12578134855994E+01 -0.70978933338484E+00 -0.31518057210036E-05
[GTO]
           1 0
 s           4   1.0000000000000000     
   69.137961906196551      -0.20478756370077797     
   11.906129132707308      -0.24997023136827334     
  0.95670827744340703       0.40025880240639616     
  0.36462520496073686       0.15952206667693555     
 p           4   1.0000000000000000     
   8.2124193257781641        1.1321556799186829     
   2.1293576997098116        1.0476840782254817     
  0.75066448202360914       0.54956508217158984     
  0.29885246543283073        8.2908486592766617E-002

           2 0
 s           4   1.0000000000000000     
   63.594024466941008      -0.19234388414721629     
   10.951417231523665      -0.23478107924953728     
  0.87999310257376984       0.37593753901700888     
  0.33538715296521110       0.14982889271862770     
 p           4   1.0000000000000000     
   7.2965040481495080       0.97658666315667420     
   1.8918745450712575       0.90372226730345739     
  0.66694432110824120       0.47404958461536373     
  0.26552202674130870        7.1516067715011844E-002

           3 0
 s           4   1.0000000000000000     
   51.049363095579913      -0.16312063210127389     
   8.7911227406887544      -0.19911024581000730     
  0.70640422258929825       0.31882047753655751     
  0.26922813413411617       0.12706504184240380     
 p           4   1.0000000000000000     
   5.8263656140800002       0.73716451545209605     
   1.5106896018720002       0.68216371614850257     
  0.53256483288000001       0.35783053929253711     
  0.21202323690600003        5.3983030275847881E-002

[MO]
Sym=     1a
Ene=  -0.83419464474248484     
Spin= Alpha
Occup=     2.00000000
           1  0.56348717109291080     
           2  -2.9641181571213602E-003
           3 -0.24064877469262674     
           4   4.4883603861655059E-007
           5  0.24150696560981449     
           6  0.15769765161228316     
           7  0.16888649182844095     
           8  -8.3997658341186106E-007
           9  0.24046280365648223     
          10 -0.11621120035357821     
          11  0.11282223826525870     
          12   2.1498177828306306E-007
Sym=     2a
Ene=  -0.71420887279294387     
Spin= Alpha
Occup=     2.00000000
           1  0.68298424536602409     
           2   5.0235518991752520E-002
           3  0.42488905710195607     
           4  -8.8788456047976487E-007
           5 -0.34139567225637457     
           6 -0.15544199334500111     
           7   8.0056236876328485E-002
           8   4.1330831473514769E-007
           9 -0.23370411390274570     
          10  0.13492390851700375     
          11  0.12954122335490151     
          12  -6.9441714724461318E-007
Sym=     3a
Ene=  -0.68704907511073399     
Spin= Alpha
Occup=     2.00000000
           1   4.6092578870374011E-002
           2 -0.67708051393277702     
           3   3.9652736945764766E-002
           4   2.2764811670051979E-006
           5  0.28678399490402928     
           6 -0.14018695536382927     
           7  0.25150821748788188     
           8   2.5860790950922195E-008
           9 -0.35734339934665599     
          10 -0.10083964927337384     
          11 -0.14949788978270451     
          12   6.0657120358538202E-007
Sym=     4a
Ene=  -0.65168266585606460     
Spin= Alpha
Occup=     2.00000000
           1  -2.7856907481187476E-008
           2   2.4351509264658508E-006
           3   1.2283296313866614E-006
           4  0.70623947317392421     
           5  -3.1972758715682918E-009
           6   1.5086365055998023E-006
           7   7.4486657054368972E-007
           8  0.42683158457042125     
           9  -1.2054690672865023E-008
          10   1.1497246311650078E-006
          11   5.6084400748202026E-007
          12  0.33379335110635955     
Sym=     5a
Ene=  -0.57906635780701876     
Spin= Alpha
Occup=     2.00000000
           1 -0.25125896712845036     
           2  -1.8375124007969670E-002
           3 -0.53039317417406573     
           4   9.8606355756539790E-007
           5 -0.39446657109961092     
           6  -6.9824156125156425E-002
           7  0.49385510731413634     
           8  -6.0163307942228628E-007
           9 -0.15166657334198791     
          10  0.14292852764687192     
          11  0.33671089043797947     
          12  -1.0893776242357486E-006
Sym=     6a
Ene=  -0.51970453771541680     
Spin= Alpha
Occup=     2.00000000
           1  -4.4567372880779582E-002
           2  0.39801677142976571     
           3  -9.3817898882560632E-002
           4  -1.1646597413969023E-006
           5  0.54677039702768027     
           6 -0.45377270596155633     
           7 -0.16548519092968331     
           8   1.8177094817552186E-006
           9 -0.41219644156551150     
          10 -0.13129180346978062     
          11  0.37264116793612423     
          12  -1.8070369195397426E-007
Sym=     7a
Ene=  -0.47248400145949537     
Spin= Alpha
Occup=     1.99999804
           1  -7.8993463285746551E-003
           2  -9.0443585204455917E-002
           3   2.3873371830951982E-002
           4   4.1997437359451120E-007
           5  0.28996408368780408     
           6 -0.49787340487507697     
           7  0.12498607700401664     
           8   1.3893650998830754E-006
           9  0.55552743688585193     
          10  0.60727204084972120     
          11  -8.3690811903740836E-002
          12  -2.0141299004282823E-006
Sym=     8a
Ene=  -0.44750934520148489     
Spin= Alpha
Occup=     1.00000196
           1   6.1502425569166544E-009
           2  -2.4265328324881261E-006
           3  -1.2065082827035263E-006
           4 -0.69634728036361360     
           5   9.8390749216954691E-008
           6   2.5398243387149028E-006
           7   1.3412286040334152E-006
           8  0.76362797758138101     
           9   7.3722105845952160E-008
          10   9.2854923445708795E-007
          11   4.2294378996497872E-007
          12  0.23730275267306677     
Sym=     9a
Ene=  -0.33972798278971295     
Spin= Alpha
Occup=     0.00000000
           1   1.7769367973207267E-009
           2  -8.1238338303332208E-007
           3  -4.0514486767519412E-007
           4 -0.23351327346602321     
           5  -1.4725057789081166E-008
           6  -1.8420451778579984E-006
           7  -9.1090821395272220E-007
           8 -0.53017427117841975     
           9   8.4611894660590834E-009
          10   3.3000530767082047E-006
          11   1.6364752722086621E-006
          12  0.94304458691438564     
Sym=    10a
Ene=  -0.15133100140766303     
Spin= Alpha
Occup=     0.00000000
           1 -0.15978630673542793     
           2  0.65238274171859933     
           3  0.30080582313311821     
           4  -2.8008133168878819E-006
           5  0.14986690774260686     
           6  -9.7255173938415193E-002
           7  0.83412534046903708     
           8  -1.1107010545047861E-006
           9  -1.7562319259956539E-003
          10 -0.27305877324176786     
          11 -0.54910118990461931     
          12   1.9032468846697382E-006
Sym=    11a
Ene=    2.0709284552210593E-003
Spin= Alpha
Occup=     0.00000000
           1 -0.58876002886585621     
           2 -0.12062316854513135     
           3  0.75167160993633642     
           4  -8.8826545584833587E-007
           5  0.48157233237337438     
           6  0.55191053136489399     
           7  0.32718527931074770     
           8  -2.4975795465315421E-006
           9  0.10601340558022733     
          10  0.19811646414892556     
          11  0.71628603327394169     
          12  -1.9418681786850675E-006
Sym=    12a
Ene=   0.31503476087235294     
Spin= Alpha
Occup=     0.00000000
           1  0.30806021343937579     
           2  0.30800182420548033     
           3 -0.32650379780506295     
           4  -5.0653445786598498E-007
           5  0.56299649391875550     
           6  0.71487217361331390     
           7  -9.1973596387360176E-003
           8  -2.4768857497198588E-006
           9 -0.81531947137973948     
          10  0.93073600452334515     
          11 -0.37415161466468794     
          12  -2.5984774902887981E-006
