$hessian                                                                        
        0.1318511818   0.0308406911  -0.0000005141  -0.0079120305  -0.1316145911
        0.0000002573  -0.1239391514   0.1007739000   0.0000002567
        0.0308406911   0.5659163167  -0.0000010954  -0.2039662652  -0.3181538173
        0.0000012673   0.1731255741  -0.2477624994  -0.0000001719
       -0.0000005141  -0.0000010954   0.0000000000   0.0000003836   0.0000010147
       -0.0000000000   0.0000001305   0.0000000807  -0.0000000000
       -0.0079120305  -0.2039662652   0.0000003836   0.5071834663   0.1249789063
       -0.0000019885  -0.4992714358   0.0789873589   0.0000016049
       -0.1316145911  -0.3181538173   0.0000010147   0.1249789063   0.2795834834
       -0.0000009242   0.0066356848   0.0385703339  -0.0000000905
        0.0000002573   0.0000012673  -0.0000000000  -0.0000019885  -0.0000009242
        0.0000000000   0.0000017312  -0.0000003430  -0.0000000000
       -0.1239391514   0.1731255741   0.0000001305  -0.4992714358   0.0066356848
        0.0000017312   0.6232105872  -0.1797612589  -0.0000018617
        0.1007739000  -0.2477624994   0.0000000807   0.0789873589   0.0385703339
       -0.0000003430  -0.1797612589   0.2091921655   0.0000002624
        0.0000002567  -0.0000001719  -0.0000000000   0.0000016049  -0.0000000905
       -0.0000000000  -0.0000018617   0.0000002624   0.0000000000
