3
 energy: -8.879992202535 gnorm: 0.000078011779 xtb: 6.2.2 (9d81278992624c895f80dd42a50cac0aa55982e2)
O        -0.00301161899656    0.79140878680264   -0.00000137074188
N        -0.66259567489876   -0.41580341217959    0.00000303860754
C         0.66560629390055   -0.37560437461781   -0.00000166786392
