 Entering Gaussian System, Link 0=g16
 Input=C6N_2X.com
 Output=C6N_2X.log
 Initial command:
 /home/spantaleone/g16/l1.exe "/scratch/cnt0027/pag0797/spantaleone/GAUSSIAN/gauss_scratch/Gau-50491.inp" -scrdir="/scratch/cnt0027/pag0797/spantaleone/GAUSSIAN/gauss_scratch/"
 Entering Link 1 = /home/spantaleone/g16/l1.exe PID=     50492.
  
 Copyright (c) 1988-2017, Gaussian, Inc.  All Rights Reserved.
  
 This is part of the Gaussian(R) 16 program.  It is based on
 the Gaussian(R) 09 system (copyright 2009, Gaussian, Inc.),
 the Gaussian(R) 03 system (copyright 2003, Gaussian, Inc.),
 the Gaussian(R) 98 system (copyright 1998, Gaussian, Inc.),
 the Gaussian(R) 94 system (copyright 1995, Gaussian, Inc.),
 the Gaussian 92(TM) system (copyright 1992, Gaussian, Inc.),
 the Gaussian 90(TM) system (copyright 1990, Gaussian, Inc.),
 the Gaussian 88(TM) system (copyright 1988, Gaussian, Inc.),
 the Gaussian 86(TM) system (copyright 1986, Carnegie Mellon
 University), and the Gaussian 82(TM) system (copyright 1983,
 Carnegie Mellon University). Gaussian is a federally registered
 trademark of Gaussian, Inc.
  
 This software contains proprietary and confidential information,
 including trade secrets, belonging to Gaussian, Inc.
  
 This software is provided under written license and may be
 used, copied, transmitted, or stored only in accord with that
 written license.
  
 The following legend is applicable only to US Government
 contracts under FAR:
  
                    RESTRICTED RIGHTS LEGEND
  
 Use, reproduction and disclosure by the US Government is
 subject to restrictions as set forth in subparagraphs (a)
 and (c) of the Commercial Computer Software - Restricted
 Rights clause in FAR 52.227-19.
  
 Gaussian, Inc.
 340 Quinnipiac St., Bldg. 40, Wallingford CT 06492
  
  
 ---------------------------------------------------------------
 Warning -- This program may not be used in any manner that
 competes with the business of Gaussian, Inc. or will provide
 assistance to any competitor of Gaussian, Inc.  The licensee
 of this program is prohibited from giving any competitor of
 Gaussian, Inc. access to this program.  By using this program,
 the user acknowledges that Gaussian, Inc. is engaged in the
 business of creating and licensing software in the field of
 computational chemistry and represents and warrants to the
 licensee that it is not a competitor of Gaussian, Inc. and that
 it will not use this program in any manner prohibited above.
 ---------------------------------------------------------------
  

 Cite this work as:
 Gaussian 16, Revision B.01,
 M. J. Frisch, G. W. Trucks, H. B. Schlegel, G. E. Scuseria, 
 M. A. Robb, J. R. Cheeseman, G. Scalmani, V. Barone, 
 G. A. Petersson, H. Nakatsuji, X. Li, M. Caricato, A. V. Marenich, 
 J. Bloino, B. G. Janesko, R. Gomperts, B. Mennucci, H. P. Hratchian, 
 J. V. Ortiz, A. F. Izmaylov, J. L. Sonnenberg, D. Williams-Young, 
 F. Ding, F. Lipparini, F. Egidi, J. Goings, B. Peng, A. Petrone, 
 T. Henderson, D. Ranasinghe, V. G. Zakrzewski, J. Gao, N. Rega, 
 G. Zheng, W. Liang, M. Hada, M. Ehara, K. Toyota, R. Fukuda, 
 J. Hasegawa, M. Ishida, T. Nakajima, Y. Honda, O. Kitao, H. Nakai, 
 T. Vreven, K. Throssell, J. A. Montgomery, Jr., J. E. Peralta, 
 F. Ogliaro, M. J. Bearpark, J. J. Heyd, E. N. Brothers, K. N. Kudin, 
 V. N. Staroverov, T. A. Keith, R. Kobayashi, J. Normand, 
 K. Raghavachari, A. P. Rendell, J. C. Burant, S. S. Iyengar, 
 J. Tomasi, M. Cossi, J. M. Millam, M. Klene, C. Adamo, R. Cammi, 
 J. W. Ochterski, R. L. Martin, K. Morokuma, O. Farkas, 
 J. B. Foresman, and D. J. Fox, Gaussian, Inc., Wallingford CT, 2016.
 
 ******************************************
 Gaussian 16:  ES64L-G16RevB.01 20-Dec-2017
                12-Oct-2020 
 ******************************************
 %nosave
 %nproc=24
 Will use up to   24 processors via shared memory.
 %mem=8gb
 %chk=input
 ----------------------------------------------------------------
 #P M062X/cc-pvtz nosymm opt(noeigentest) optcyc=120 freq scf=xqc
 ----------------------------------------------------------------
 1/6=120,11=1,18=20,19=15,26=3,38=1/1,3;
 2/9=110,12=2,15=1,17=6,18=5,40=1/2;
 3/5=16,6=1,11=2,25=1,30=1,71=1,74=-55/1,2,3;
 4//1;
 5/5=2,8=3,13=1,38=5/2,8;
 6/7=2,8=2,9=2,10=2,28=1/1;
 7/30=1/1,2,3,16;
 1/6=120,11=1,18=20,19=15,26=3/3(2);
 2/9=110,15=1/2;
 99//99;
 2/9=110,15=1/2;
 3/5=16,6=1,11=2,25=1,30=1,71=1,74=-55/1,2,3;
 4/5=5,16=3,69=1/1;
 5/5=2,8=3,13=1,38=5/2,8;
 7/30=1/1,2,3,16;
 1/6=120,11=1,18=20,19=15,26=3/3(-5);
 2/9=110,15=1/2;
 6/7=2,8=2,9=2,10=2,19=2,28=1/1;
 99/9=1/99;
 Leave Link    1 at Mon Oct 12 17:20:56 2020, MaxMem=  1073741824 cpu:               2.2 elap:               0.1
 (Enter /home/spantaleone/g16/l101.exe)
 -----
 Title
 -----
 Symbolic Z-matrix:
 Charge =  0 Multiplicity = 2
 C
 C                    1    B1
 C                    2    B2       1    A2
 C                    3    B3       2    A3       1    D3       0
 C                    4    B4       3    A4       2    D4       0
 N                    5    B5       4    A5       3    D5       0
 C                    1    B6       2    A6       3    D6       0
       Variables:
  B1                    1.2816                   
  B2                    1.28155                  
  A2                  179.97438                  
  B3                    1.28162                  
  A3                  179.97438                  
  D3                    0.                       
  B4                    1.22206                  
  A4                  175.6096                   
  D4                    0.                       
  B5                    1.15865                  
  A5                  179.10915                  
  D5                  180.                       
  B6                    1.30518                  
  A6                  179.97438                  
  D6                    0.                       
 
 ITRead=  0  0  0  0  0  0  0
 MicOpt= -1 -1 -1 -1 -1 -1 -1
 NAtoms=      7 NQM=        7 NQMF=       0 NMMI=      0 NMMIF=      0
                NMic=       0 NMicF=      0.
                    Isotopes and Nuclear Properties:
 (Nuclear quadrupole moments (NQMom) in fm**2, nuclear magnetic moments (NMagM)
  in nuclear magnetons)

  Atom         1           2           3           4           5           6           7
 IAtWgt=          12          12          12          12          12          14          12
 AtmWgt=  12.0000000  12.0000000  12.0000000  12.0000000  12.0000000  14.0030740  12.0000000
 NucSpn=           0           0           0           0           0           2           0
 AtZEff=  -0.0000000  -0.0000000  -0.0000000  -0.0000000  -0.0000000  -0.0000000  -0.0000000
 NQMom=    0.0000000   0.0000000   0.0000000   0.0000000   0.0000000   2.0440000   0.0000000
 NMagM=    0.0000000   0.0000000   0.0000000   0.0000000   0.0000000   0.4037610   0.0000000
 AtZNuc=   6.0000000   6.0000000   6.0000000   6.0000000   6.0000000   7.0000000   6.0000000
 Leave Link  101 at Mon Oct 12 17:20:57 2020, MaxMem=  1073741824 cpu:               9.7 elap:               0.4
 (Enter /home/spantaleone/g16/l103.exe)

 GradGradGradGradGradGradGradGradGradGradGradGradGradGradGradGradGradGrad
 Berny optimization.
 Initialization pass.
                           ----------------------------
                           !    Initial Parameters    !
                           ! (Angstroms and Degrees)  !
 --------------------------                            --------------------------
 ! Name  Definition              Value          Derivative Info.                !
 --------------------------------------------------------------------------------
 ! R1    R(1,2)                  1.2816         estimate D2E/DX2                !
 ! R2    R(1,7)                  1.3052         estimate D2E/DX2                !
 ! R3    R(2,3)                  1.2816         estimate D2E/DX2                !
 ! R4    R(3,4)                  1.2816         estimate D2E/DX2                !
 ! R5    R(4,5)                  1.2221         estimate D2E/DX2                !
 ! R6    R(5,6)                  1.1587         estimate D2E/DX2                !
 ! A1    L(2,1,7,-2,-1)        180.0256         estimate D2E/DX2                !
 ! A2    L(1,2,3,-2,-1)        179.9744         estimate D2E/DX2                !
 ! A3    L(2,3,4,-2,-1)        179.9744         estimate D2E/DX2                !
 ! A4    L(3,4,5,-2,-1)        175.6096         estimate D2E/DX2                !
 ! A5    L(4,5,6,-2,-1)        180.8909         estimate D2E/DX2                !
 ! A6    L(2,1,7,-1,-2)        180.0            estimate D2E/DX2                !
 ! A7    L(1,2,3,-1,-2)        180.0            estimate D2E/DX2                !
 ! A8    L(2,3,4,-1,-2)        180.0            estimate D2E/DX2                !
 ! A9    L(3,4,5,-1,-2)        180.0            estimate D2E/DX2                !
 ! A10   L(4,5,6,-1,-2)        180.0            estimate D2E/DX2                !
 --------------------------------------------------------------------------------
 Trust Radius=3.00D-01 FncErr=1.00D-07 GrdErr=1.00D-06 EigMax=2.50D+02 EigMin=1.00D-04
 Number of steps in this run=    100 maximum allowed number of steps=    100.
 GradGradGradGradGradGradGradGradGradGradGradGradGradGradGradGradGradGrad

 Leave Link  103 at Mon Oct 12 17:20:57 2020, MaxMem=  1073741824 cpu:               0.3 elap:               0.0
 (Enter /home/spantaleone/g16/l202.exe)
                          Input orientation:                          
 ---------------------------------------------------------------------
 Center     Atomic      Atomic             Coordinates (Angstroms)
 Number     Number       Type             X           Y           Z
 ---------------------------------------------------------------------
      1          6           0        0.000000    0.000000    0.000000
      2          6           0        0.000000    0.000000    1.281600
      3          6           0        0.000573    0.000000    2.563150
      4          6           0        0.001719    0.000000    3.844769
      5          6           0        0.096360    0.000000    5.063159
      6          7           0        0.168119    0.000000    6.219585
      7          6           0        0.000584    0.000000   -1.305180
 ---------------------------------------------------------------------
                    Distance matrix (angstroms):
                    1          2          3          4          5
     1  C    0.000000
     2  C    1.281600   0.000000
     3  C    2.563150   1.281550   0.000000
     4  C    3.844770   2.563170   1.281620   0.000000
     5  C    5.064076   3.782787   2.501844   1.222060   0.000000
     6  N    6.221857   4.940846   3.660272   2.380638   1.158650
     7  C    1.305180   2.586780   3.868330   5.149949   6.369059
                    6          7
     6  N    0.000000
     7  C    7.526630   0.000000
 Symmetry turned off by external request.
 Stoichiometry    C6N(2)
 Framework group  CS[SG(C6N)]
 Deg. of freedom    11
 Full point group                 CS      NOp   2
 Rotational constants (GHZ):        3837.6056421           0.9023343           0.9021222
 Leave Link  202 at Mon Oct 12 17:20:57 2020, MaxMem=  1073741824 cpu:               0.3 elap:               0.0
 (Enter /home/spantaleone/g16/l301.exe)
 Standard basis: CC-pVTZ (5D, 7F)
 Ernie: Thresh=  0.10000D-02 Tol=  0.10000D-05 Strict=F.
 Ernie:  21 primitive shells out of 182 were deleted.
   210 basis functions,   364 primitive gaussians,   245 cartesian basis functions
    22 alpha electrons       21 beta electrons
       nuclear repulsion energy       175.6037642455 Hartrees.
 IExCor= 4336 DFT=T Ex+Corr=M062X ExCW=0 ScaHFX=  0.540000
 ScaDFX=  1.000000  1.000000  1.000000  1.000000 ScalE2=  1.000000  1.000000
 IRadAn=      5 IRanWt=     -1 IRanGd=            0 ICorTp=0 IEmpDi=  4
 NAtoms=    7 NActive=    7 NUniq=    7 SFac= 1.00D+00 NAtFMM=   60 NAOKFM=F Big=F
 Integral buffers will be    131072 words long.
 Raffenetti 2 integral format.
 Two-electron integral symmetry is turned off.
 Leave Link  301 at Mon Oct 12 17:20:57 2020, MaxMem=  1073741824 cpu:               1.3 elap:               0.1
 (Enter /home/spantaleone/g16/l302.exe)
 NPDir=0 NMtPBC=     1 NCelOv=     1 NCel=       1 NClECP=     1 NCelD=      1
         NCelK=      1 NCelE2=     1 NClLst=     1 CellRange=     0.0.
 One-electron integrals computed using PRISM.
 NBasis=   210 RedAO= T EigKep=  1.34D-05  NBF=   210
 NBsUse=   210 1.00D-06 EigRej= -1.00D+00 NBFU=   210
 Precomputing XC quadrature grid using
 IXCGrd= 4 IRadAn=           5 IRanWt=          -1 IRanGd=           0 AccXCQ= 0.00D+00.
 Generated NRdTot=       0 NPtTot=           0 NUsed=           0 NTot=          32
 NSgBfM=   244   244   244   244   244 MxSgAt=     7 MxSgA2=     7.
 Leave Link  302 at Mon Oct 12 17:20:57 2020, MaxMem=  1073741824 cpu:               5.7 elap:               0.3
 (Enter /home/spantaleone/g16/l303.exe)
 DipDrv:  MaxL=1.
 Leave Link  303 at Mon Oct 12 17:20:57 2020, MaxMem=  1073741824 cpu:               1.2 elap:               0.1
 (Enter /home/spantaleone/g16/l401.exe)
 ExpMin= 1.21D-01 ExpMax= 1.14D+04 ExpMxC= 3.89D+02 IAcc=3 IRadAn=         5 AccDes= 0.00D+00
 Harris functional with IExCor= 1009 and IRadAn=       5 diagonalized for initial guess.
 HarFok:  IExCor= 1009 AccDes= 0.00D+00 IRadAn=         5 IDoV= 1 UseB2=F ITyADJ=14
 ICtDFT=  3500011 ScaDFX=  1.000000  1.000000  1.000000  1.000000
 FoFCou: FMM=F IPFlag=           0 FMFlag=      100000 FMFlg1=           0
         NFxFlg=           0 DoJE=T BraDBF=F KetDBF=T FulRan=T
         wScrn=  0.000000 ICntrl=       500 IOpCl=  0 I1Cent=   200000004 NGrid=           0
         NMat0=    1 NMatS0=      1 NMatT0=    0 NMatD0=    1 NMtDS0=    0 NMtDT0=    0
 Symmetry not used in FoFCou.
 Harris En= -282.896549336331    
 JPrj=0 DoOrth=F DoCkMO=F.
 Initial guess <Sx>= 0.0000 <Sy>= 0.0000 <Sz>= 0.5000 <S**2>= 0.7500 S= 0.5000
 Leave Link  401 at Mon Oct 12 17:20:58 2020, MaxMem=  1073741824 cpu:              12.9 elap:               0.6
 (Enter /home/spantaleone/g16/l502.exe)
 Keep R1 and R2 ints in memory in canonical form, NReq=516702736.
 FoFCou: FMM=F IPFlag=           0 FMFlag=           0 FMFlg1=           0
         NFxFlg=           0 DoJE=F BraDBF=F KetDBF=F FulRan=T
         wScrn=  0.000000 ICntrl=       600 IOpCl=  0 I1Cent=           0 NGrid=           0
         NMat0=    1 NMatS0=  22155 NMatT0=    0 NMatD0=    1 NMtDS0=    0 NMtDT0=    0
 Symmetry not used in FoFCou.
 Two-electron integral symmetry not used.
 UHF open shell SCF:
 Using DIIS extrapolation, IDIIS=  1040.
 NGot=  1073741824 LenX=   582748134 LenY=   582687668
 Requested convergence on RMS density matrix=1.00D-08 within  32 cycles.
 Requested convergence on MAX density matrix=1.00D-06.
 Requested convergence on             energy=1.00D-06.
 No special actions if energy rises.
 Integral accuracy reduced to 1.0D-05 until final iterations.

 Cycle   1  Pass 0  IDiag  1:
 E= -282.942493739514    
 DIIS: error= 3.52D-02 at cycle   1 NSaved=   1.
 NSaved= 1 IEnMin= 1 EnMin= -282.942493739514     IErMin= 1 ErrMin= 3.52D-02
 ErrMax= 3.52D-02  0.00D+00 EMaxC= 1.00D-01 BMatC= 5.42D-01 BMatP= 5.42D-01
 IDIUse=3 WtCom= 6.48D-01 WtEn= 3.52D-01
 Coeff-Com:  0.100D+01
 Coeff-En:   0.100D+01
 Coeff:      0.100D+01
 Gap=     0.115 Goal=   None    Shift=    0.000
 Gap=     0.235 Goal=   None    Shift=    0.000
 GapD=    0.115 DampG=1.000 DampE=0.500 DampFc=0.5000 IDamp=-1.
 Damping current iteration by 5.00D-01
 RMSDP=7.51D-03 MaxDP=4.36D-01              OVMax= 1.13D-01

 Cycle   2  Pass 0  IDiag  1:
 E= -282.995759328957     Delta-E=       -0.053265589444 Rises=F Damp=T
 DIIS: error= 1.07D-02 at cycle   2 NSaved=   2.
 NSaved= 2 IEnMin= 2 EnMin= -282.995759328957     IErMin= 2 ErrMin= 1.07D-02
 ErrMax= 1.07D-02  0.00D+00 EMaxC= 1.00D-01 BMatC= 7.44D-02 BMatP= 5.42D-01
 IDIUse=3 WtCom= 8.93D-01 WtEn= 1.07D-01
 Coeff-Com: -0.377D+00 0.138D+01
 Coeff-En:   0.000D+00 0.100D+01
 Coeff:     -0.337D+00 0.134D+01
 Gap=     0.119 Goal=   None    Shift=    0.000
 Gap=     0.199 Goal=   None    Shift=    0.000
 RMSDP=1.95D-03 MaxDP=7.39D-02 DE=-5.33D-02 OVMax= 8.15D-02

 Cycle   3  Pass 0  IDiag  1:
 E= -283.034478344918     Delta-E=       -0.038719015960 Rises=F Damp=F
 DIIS: error= 1.24D-02 at cycle   3 NSaved=   3.
 NSaved= 3 IEnMin= 3 EnMin= -283.034478344918     IErMin= 2 ErrMin= 1.07D-02
 ErrMax= 1.24D-02  0.00D+00 EMaxC= 1.00D-01 BMatC= 3.97D-02 BMatP= 7.44D-02
 IDIUse=3 WtCom= 8.76D-01 WtEn= 1.24D-01
 Coeff-Com: -0.256D+00 0.748D+00 0.508D+00
 Coeff-En:   0.000D+00 0.000D+00 0.100D+01
 Coeff:     -0.224D+00 0.655D+00 0.569D+00
 Gap=     0.120 Goal=   None    Shift=    0.000
 Gap=     0.199 Goal=   None    Shift=    0.000
 RMSDP=6.63D-04 MaxDP=3.52D-02 DE=-3.87D-02 OVMax= 5.12D-02

 Cycle   4  Pass 0  IDiag  1:
 E= -283.041315425113     Delta-E=       -0.006837080196 Rises=F Damp=F
 DIIS: error= 8.69D-03 at cycle   4 NSaved=   4.
 NSaved= 4 IEnMin= 4 EnMin= -283.041315425113     IErMin= 4 ErrMin= 8.69D-03
 ErrMax= 8.69D-03  0.00D+00 EMaxC= 1.00D-01 BMatC= 1.36D-02 BMatP= 3.97D-02
 IDIUse=3 WtCom= 9.13D-01 WtEn= 8.69D-02
 Coeff-Com: -0.731D-01 0.180D+00 0.380D+00 0.513D+00
 Coeff-En:   0.000D+00 0.000D+00 0.290D+00 0.710D+00
 Coeff:     -0.668D-01 0.164D+00 0.372D+00 0.530D+00
 Gap=     0.121 Goal=   None    Shift=    0.000
 Gap=     0.199 Goal=   None    Shift=    0.000
 RMSDP=5.24D-04 MaxDP=2.24D-02 DE=-6.84D-03 OVMax= 2.85D-02

 Cycle   5  Pass 0  IDiag  1:
 E= -283.044926653268     Delta-E=       -0.003611228155 Rises=F Damp=F
 DIIS: error= 2.17D-03 at cycle   5 NSaved=   5.
 NSaved= 5 IEnMin= 5 EnMin= -283.044926653268     IErMin= 5 ErrMin= 2.17D-03
 ErrMax= 2.17D-03  0.00D+00 EMaxC= 1.00D-01 BMatC= 1.11D-03 BMatP= 1.36D-02
 IDIUse=3 WtCom= 9.78D-01 WtEn= 2.17D-02
 Coeff-Com: -0.809D-02 0.928D-02 0.153D+00 0.313D+00 0.533D+00
 Coeff-En:   0.000D+00 0.000D+00 0.000D+00 0.000D+00 0.100D+01
 Coeff:     -0.792D-02 0.907D-02 0.150D+00 0.306D+00 0.543D+00
 Gap=     0.122 Goal=   None    Shift=    0.000
 Gap=     0.201 Goal=   None    Shift=    0.000
 RMSDP=1.51D-04 MaxDP=8.42D-03 DE=-3.61D-03 OVMax= 9.39D-03

 Cycle   6  Pass 0  IDiag  1:
 E= -283.045278368901     Delta-E=       -0.000351715633 Rises=F Damp=F
 DIIS: error= 8.12D-04 at cycle   6 NSaved=   6.
 NSaved= 6 IEnMin= 6 EnMin= -283.045278368901     IErMin= 6 ErrMin= 8.12D-04
 ErrMax= 8.12D-04  0.00D+00 EMaxC= 1.00D-01 BMatC= 9.13D-05 BMatP= 1.11D-03
 IDIUse=3 WtCom= 9.92D-01 WtEn= 8.12D-03
 Coeff-Com:  0.146D-01-0.362D-01-0.684D-01-0.856D-01 0.277D-01 0.115D+01
 Coeff-En:   0.000D+00 0.000D+00 0.000D+00 0.000D+00 0.000D+00 0.100D+01
 Coeff:      0.144D-01-0.359D-01-0.678D-01-0.849D-01 0.275D-01 0.115D+01
 Gap=     0.123 Goal=   None    Shift=    0.000
 Gap=     0.202 Goal=   None    Shift=    0.000
 RMSDP=9.43D-05 MaxDP=3.29D-03 DE=-3.52D-04 OVMax= 7.89D-03

 Cycle   7  Pass 0  IDiag  1:
 E= -283.045402668349     Delta-E=       -0.000124299448 Rises=F Damp=F
 DIIS: error= 4.34D-04 at cycle   7 NSaved=   7.
 NSaved= 7 IEnMin= 7 EnMin= -283.045402668349     IErMin= 7 ErrMin= 4.34D-04
 ErrMax= 4.34D-04  0.00D+00 EMaxC= 1.00D-01 BMatC= 5.57D-05 BMatP= 9.13D-05
 IDIUse=3 WtCom= 9.96D-01 WtEn= 4.34D-03
 Coeff-Com:  0.108D-01-0.239D-01-0.854D-01-0.147D+00-0.149D+00 0.661D+00
 Coeff-Com:  0.733D+00
 Coeff-En:   0.000D+00 0.000D+00 0.000D+00 0.000D+00 0.000D+00 0.000D+00
 Coeff-En:   0.100D+01
 Coeff:      0.107D-01-0.238D-01-0.850D-01-0.146D+00-0.148D+00 0.658D+00
 Coeff:      0.734D+00
 Gap=     0.124 Goal=   None    Shift=    0.000
 Gap=     0.203 Goal=   None    Shift=    0.000
 RMSDP=5.24D-05 MaxDP=2.29D-03 DE=-1.24D-04 OVMax= 6.70D-03

 Cycle   8  Pass 0  IDiag  1:
 E= -283.045457813210     Delta-E=       -0.000055144861 Rises=F Damp=F
 DIIS: error= 3.52D-04 at cycle   8 NSaved=   8.
 NSaved= 8 IEnMin= 8 EnMin= -283.045457813210     IErMin= 8 ErrMin= 3.52D-04
 ErrMax= 3.52D-04  0.00D+00 EMaxC= 1.00D-01 BMatC= 1.85D-05 BMatP= 5.57D-05
 IDIUse=3 WtCom= 9.96D-01 WtEn= 3.52D-03
 Coeff-Com:  0.709D-03-0.846D-03-0.153D-01-0.380D-01-0.655D-01-0.678D-01
 Coeff-Com:  0.378D+00 0.809D+00
 Coeff-En:   0.000D+00 0.000D+00 0.000D+00 0.000D+00 0.000D+00 0.000D+00
 Coeff-En:   0.000D+00 0.100D+01
 Coeff:      0.706D-03-0.844D-03-0.153D-01-0.379D-01-0.653D-01-0.676D-01
 Coeff:      0.376D+00 0.810D+00
 Gap=     0.124 Goal=   None    Shift=    0.000
 Gap=     0.203 Goal=   None    Shift=    0.000
 RMSDP=5.08D-05 MaxDP=2.38D-03 DE=-5.51D-05 OVMax= 5.71D-03

 Cycle   9  Pass 0  IDiag  1:
 E= -283.045484831908     Delta-E=       -0.000027018698 Rises=F Damp=F
 DIIS: error= 3.96D-04 at cycle   9 NSaved=   9.
 NSaved= 9 IEnMin= 9 EnMin= -283.045484831908     IErMin= 8 ErrMin= 3.52D-04
 ErrMax= 3.96D-04  0.00D+00 EMaxC= 1.00D-01 BMatC= 9.18D-06 BMatP= 1.85D-05
 IDIUse=3 WtCom= 9.96D-01 WtEn= 3.52D-03
 Coeff-Com: -0.424D-02 0.999D-02 0.273D-01 0.371D-01 0.176D-01-0.347D+00
 Coeff-Com: -0.439D-01 0.529D+00 0.774D+00
 Coeff-En:   0.000D+00 0.000D+00 0.000D+00 0.000D+00 0.000D+00 0.000D+00
 Coeff-En:   0.000D+00 0.000D+00 0.100D+01
 Coeff:     -0.422D-02 0.995D-02 0.272D-01 0.370D-01 0.175D-01-0.346D+00
 Coeff:     -0.437D-01 0.527D+00 0.775D+00
 Gap=     0.124 Goal=   None    Shift=    0.000
 Gap=     0.204 Goal=   None    Shift=    0.000
 RMSDP=4.00D-05 MaxDP=2.07D-03 DE=-2.70D-05 OVMax= 6.39D-03

 Failed to achieve initial convergence to 1.0D-08 in 10 cycles.
 Switch to full accuracy anyway.
 Cycle  10  Pass 1  IDiag  1:
 E= -283.045491751871     Delta-E=       -0.000006919963 Rises=F Damp=F
 DIIS: error= 2.82D-04 at cycle   1 NSaved=   1.
 NSaved= 1 IEnMin= 1 EnMin= -283.045491751871     IErMin= 1 ErrMin= 2.82D-04
 ErrMax= 2.82D-04  0.00D+00 EMaxC= 1.00D-01 BMatC= 3.93D-06 BMatP= 3.93D-06
 IDIUse=3 WtCom= 9.97D-01 WtEn= 2.82D-03
 Coeff-Com:  0.100D+01
 Coeff-En:   0.100D+01
 Coeff:      0.100D+01
 Gap=     0.124 Goal=   None    Shift=    0.000
 Gap=     0.204 Goal=   None    Shift=    0.000
 RMSDP=4.00D-05 MaxDP=2.07D-03 DE=-6.92D-06 OVMax= 3.67D-03

 Cycle  11  Pass 1  IDiag  1:
 E= -283.045503351513     Delta-E=       -0.000011599642 Rises=F Damp=F
 DIIS: error= 3.14D-04 at cycle   2 NSaved=   2.
 NSaved= 2 IEnMin= 2 EnMin= -283.045503351513     IErMin= 1 ErrMin= 2.82D-04
 ErrMax= 3.14D-04  0.00D+00 EMaxC= 1.00D-01 BMatC= 3.53D-06 BMatP= 3.93D-06
 IDIUse=3 WtCom= 9.97D-01 WtEn= 3.14D-03
 Coeff-Com:  0.359D+00 0.641D+00
 Coeff-En:   0.000D+00 0.100D+01
 Coeff:      0.358D+00 0.642D+00
 Gap=     0.124 Goal=   None    Shift=    0.000
 Gap=     0.204 Goal=   None    Shift=    0.000
 RMSDP=1.28D-05 MaxDP=6.03D-04 DE=-1.16D-05 OVMax= 2.61D-03

 Cycle  12  Pass 1  IDiag  1:
 E= -283.045509821785     Delta-E=       -0.000006470272 Rises=F Damp=F
 DIIS: error= 2.30D-04 at cycle   3 NSaved=   3.
 NSaved= 3 IEnMin= 3 EnMin= -283.045509821785     IErMin= 3 ErrMin= 2.30D-04
 ErrMax= 2.30D-04  0.00D+00 EMaxC= 1.00D-01 BMatC= 3.08D-06 BMatP= 3.53D-06
 IDIUse=3 WtCom= 9.98D-01 WtEn= 2.30D-03
 Coeff-Com: -0.125D+01 0.499D+00 0.175D+01
 Coeff-En:   0.000D+00 0.000D+00 0.100D+01
 Coeff:     -0.124D+01 0.498D+00 0.175D+01
 Gap=     0.124 Goal=   None    Shift=    0.000
 Gap=     0.204 Goal=   None    Shift=    0.000
 RMSDP=5.40D-05 MaxDP=2.99D-03 DE=-6.47D-06 OVMax= 9.03D-03

 Cycle  13  Pass 1  IDiag  1:
 E= -283.045532736806     Delta-E=       -0.000022915022 Rises=F Damp=F
 DIIS: error= 2.36D-04 at cycle   4 NSaved=   4.
 NSaved= 4 IEnMin= 4 EnMin= -283.045532736806     IErMin= 3 ErrMin= 2.30D-04
 ErrMax= 2.36D-04  0.00D+00 EMaxC= 1.00D-01 BMatC= 2.19D-06 BMatP= 3.08D-06
 IDIUse=3 WtCom= 9.98D-01 WtEn= 2.36D-03
 Coeff-Com: -0.133D+01-0.335D+00 0.142D+01 0.124D+01
 Coeff-En:   0.000D+00 0.000D+00 0.000D+00 0.100D+01
 Coeff:     -0.132D+01-0.334D+00 0.141D+01 0.124D+01
 Gap=     0.125 Goal=   None    Shift=    0.000
 Gap=     0.204 Goal=   None    Shift=    0.000
 RMSDP=7.27D-05 MaxDP=3.63D-03 DE=-2.29D-05 OVMax= 1.31D-02

 Cycle  14  Pass 1  IDiag  1:
 E= -283.045555498452     Delta-E=       -0.000022761645 Rises=F Damp=F
 DIIS: error= 1.07D-04 at cycle   5 NSaved=   5.
 NSaved= 5 IEnMin= 5 EnMin= -283.045555498452     IErMin= 5 ErrMin= 1.07D-04
 ErrMax= 1.07D-04  0.00D+00 EMaxC= 1.00D-01 BMatC= 1.10D-06 BMatP= 2.19D-06
 IDIUse=3 WtCom= 9.99D-01 WtEn= 1.07D-03
 Coeff-Com:  0.555D+00-0.770D+00-0.101D+01 0.816D+00 0.140D+01
 Coeff-En:   0.000D+00 0.000D+00 0.000D+00 0.000D+00 0.100D+01
 Coeff:      0.554D+00-0.770D+00-0.100D+01 0.816D+00 0.140D+01
 Gap=     0.125 Goal=   None    Shift=    0.000
 Gap=     0.204 Goal=   None    Shift=    0.000
 RMSDP=8.78D-05 MaxDP=4.46D-03 DE=-2.28D-05 OVMax= 1.52D-02

 Cycle  15  Pass 1  IDiag  1:
 E= -283.045569079994     Delta-E=       -0.000013581542 Rises=F Damp=F
 DIIS: error= 5.33D-05 at cycle   6 NSaved=   6.
 NSaved= 6 IEnMin= 6 EnMin= -283.045569079994     IErMin= 6 ErrMin= 5.33D-05
 ErrMax= 5.33D-05  0.00D+00 EMaxC= 1.00D-01 BMatC= 3.25D-07 BMatP= 1.10D-06
 IDIUse=1 WtCom= 1.00D+00 WtEn= 0.00D+00
 Coeff-Com:  0.544D+00-0.277D+00-0.789D+00 0.166D+00 0.614D+00 0.742D+00
 Coeff:      0.544D+00-0.277D+00-0.789D+00 0.166D+00 0.614D+00 0.742D+00
 Gap=     0.125 Goal=   None    Shift=    0.000
 Gap=     0.204 Goal=   None    Shift=    0.000
 RMSDP=1.73D-05 MaxDP=8.03D-04 DE=-1.36D-05 OVMax= 2.87D-03

 Cycle  16  Pass 1  IDiag  1:
 E= -283.045570079524     Delta-E=       -0.000000999530 Rises=F Damp=F
 DIIS: error= 5.47D-05 at cycle   7 NSaved=   7.
 NSaved= 7 IEnMin= 7 EnMin= -283.045570079524     IErMin= 6 ErrMin= 5.33D-05
 ErrMax= 5.47D-05  0.00D+00 EMaxC= 1.00D-01 BMatC= 1.54D-07 BMatP= 3.25D-07
 IDIUse=1 WtCom= 1.00D+00 WtEn= 0.00D+00
 Coeff-Com:  0.103D+00 0.235D+00-0.185D-01-0.330D+00-0.366D+00 0.470D+00
 Coeff-Com:  0.907D+00
 Coeff:      0.103D+00 0.235D+00-0.185D-01-0.330D+00-0.366D+00 0.470D+00
 Coeff:      0.907D+00
 Gap=     0.125 Goal=   None    Shift=    0.000
 Gap=     0.204 Goal=   None    Shift=    0.000
 RMSDP=1.04D-05 MaxDP=6.04D-04 DE=-1.00D-06 OVMax= 1.55D-03

 Cycle  17  Pass 1  IDiag  1:
 E= -283.045570420392     Delta-E=       -0.000000340868 Rises=F Damp=F
 DIIS: error= 2.70D-05 at cycle   8 NSaved=   8.
 NSaved= 8 IEnMin= 8 EnMin= -283.045570420392     IErMin= 8 ErrMin= 2.70D-05
 ErrMax= 2.70D-05  0.00D+00 EMaxC= 1.00D-01 BMatC= 7.00D-08 BMatP= 1.54D-07
 IDIUse=1 WtCom= 1.00D+00 WtEn= 0.00D+00
 Coeff-Com: -0.838D-01 0.202D+00 0.209D+00-0.247D+00-0.381D+00 0.106D+00
 Coeff-Com:  0.592D+00 0.604D+00
 Coeff:     -0.838D-01 0.202D+00 0.209D+00-0.247D+00-0.381D+00 0.106D+00
 Coeff:      0.592D+00 0.604D+00
 Gap=     0.125 Goal=   None    Shift=    0.000
 Gap=     0.204 Goal=   None    Shift=    0.000
 RMSDP=4.07D-06 MaxDP=2.30D-04 DE=-3.41D-07 OVMax= 5.97D-04

 Cycle  18  Pass 1  IDiag  1:
 E= -283.045570497527     Delta-E=       -0.000000077135 Rises=F Damp=F
 DIIS: error= 1.32D-05 at cycle   9 NSaved=   9.
 NSaved= 9 IEnMin= 9 EnMin= -283.045570497527     IErMin= 9 ErrMin= 1.32D-05
 ErrMax= 1.32D-05  0.00D+00 EMaxC= 1.00D-01 BMatC= 1.02D-08 BMatP= 7.00D-08
 IDIUse=1 WtCom= 1.00D+00 WtEn= 0.00D+00
 Coeff-Com: -0.470D-01 0.298D-01 0.825D-01-0.436D-01-0.668D-01-0.384D-01
 Coeff-Com:  0.197D-01 0.221D+00 0.843D+00
 Coeff:     -0.470D-01 0.298D-01 0.825D-01-0.436D-01-0.668D-01-0.384D-01
 Coeff:      0.197D-01 0.221D+00 0.843D+00
 Gap=     0.125 Goal=   None    Shift=    0.000
 Gap=     0.204 Goal=   None    Shift=    0.000
 RMSDP=2.25D-06 MaxDP=1.35D-04 DE=-7.71D-08 OVMax= 3.40D-04

 Cycle  19  Pass 1  IDiag  1:
 E= -283.045570519565     Delta-E=       -0.000000022038 Rises=F Damp=F
 DIIS: error= 5.57D-06 at cycle  10 NSaved=  10.
 NSaved=10 IEnMin=10 EnMin= -283.045570519565     IErMin=10 ErrMin= 5.57D-06
 ErrMax= 5.57D-06  0.00D+00 EMaxC= 1.00D-01 BMatC= 2.70D-09 BMatP= 1.02D-08
 IDIUse=1 WtCom= 1.00D+00 WtEn= 0.00D+00
 Coeff-Com:  0.300D-01-0.676D-01-0.789D-01 0.859D-01 0.130D+00-0.372D-01
 Coeff-Com: -0.209D+00-0.223D+00 0.440D-01 0.132D+01
 Coeff:      0.300D-01-0.676D-01-0.789D-01 0.859D-01 0.130D+00-0.372D-01
 Coeff:     -0.209D+00-0.223D+00 0.440D-01 0.132D+01
 Gap=     0.125 Goal=   None    Shift=    0.000
 Gap=     0.204 Goal=   None    Shift=    0.000
 RMSDP=2.24D-06 MaxDP=1.37D-04 DE=-2.20D-08 OVMax= 3.17D-04

 Cycle  20  Pass 1  IDiag  1:
 E= -283.045570529969     Delta-E=       -0.000000010403 Rises=F Damp=F
 DIIS: error= 2.95D-06 at cycle  11 NSaved=  11.
 NSaved=11 IEnMin=11 EnMin= -283.045570529969     IErMin=11 ErrMin= 2.95D-06
 ErrMax= 2.95D-06  0.00D+00 EMaxC= 1.00D-01 BMatC= 1.59D-09 BMatP= 2.70D-09
 IDIUse=1 WtCom= 1.00D+00 WtEn= 0.00D+00
 Coeff-Com:  0.134D-01-0.293D-01-0.426D-01 0.488D-01 0.584D-01-0.183D-01
 Coeff-Com: -0.964D-01-0.139D+00-0.146D+00 0.766D+00 0.586D+00
 Coeff:      0.134D-01-0.293D-01-0.426D-01 0.488D-01 0.584D-01-0.183D-01
 Coeff:     -0.964D-01-0.139D+00-0.146D+00 0.766D+00 0.586D+00
 Gap=     0.125 Goal=   None    Shift=    0.000
 Gap=     0.204 Goal=   None    Shift=    0.000
 RMSDP=5.33D-07 MaxDP=3.45D-05 DE=-1.04D-08 OVMax= 5.66D-05

 Cycle  21  Pass 1  IDiag  1:
 E= -283.045570531178     Delta-E=       -0.000000001210 Rises=F Damp=F
 DIIS: error= 1.49D-06 at cycle  12 NSaved=  12.
 NSaved=12 IEnMin=12 EnMin= -283.045570531178     IErMin=12 ErrMin= 1.49D-06
 ErrMax= 1.49D-06  0.00D+00 EMaxC= 1.00D-01 BMatC= 4.22D-10 BMatP= 1.59D-09
 IDIUse=1 WtCom= 1.00D+00 WtEn= 0.00D+00
 Coeff-Com: -0.426D-02 0.568D-02 0.393D-03 0.511D-02-0.100D-01-0.323D-02
 Coeff-Com:  0.573D-02-0.404D-02-0.946D-01 0.346D-01 0.305D+00 0.759D+00
 Coeff:     -0.426D-02 0.568D-02 0.393D-03 0.511D-02-0.100D-01-0.323D-02
 Coeff:      0.573D-02-0.404D-02-0.946D-01 0.346D-01 0.305D+00 0.759D+00
 Gap=     0.125 Goal=   None    Shift=    0.000
 Gap=     0.204 Goal=   None    Shift=    0.000
 RMSDP=2.38D-07 MaxDP=1.24D-05 DE=-1.21D-09 OVMax= 2.60D-05

 Cycle  22  Pass 1  IDiag  1:
 E= -283.045570531592     Delta-E=       -0.000000000414 Rises=F Damp=F
 DIIS: error= 6.27D-07 at cycle  13 NSaved=  13.
 NSaved=13 IEnMin=13 EnMin= -283.045570531592     IErMin=13 ErrMin= 6.27D-07
 ErrMax= 6.27D-07  0.00D+00 EMaxC= 1.00D-01 BMatC= 9.12D-11 BMatP= 4.22D-10
 IDIUse=1 WtCom= 1.00D+00 WtEn= 0.00D+00
 Coeff-Com: -0.859D-03 0.300D-02 0.196D-02-0.331D-02-0.687D-02 0.529D-02
 Coeff-Com:  0.136D-01 0.317D-01 0.265D-01-0.250D+00-0.104D+00 0.268D+00
 Coeff-Com:  0.102D+01
 Coeff:     -0.859D-03 0.300D-02 0.196D-02-0.331D-02-0.687D-02 0.529D-02
 Coeff:      0.136D-01 0.317D-01 0.265D-01-0.250D+00-0.104D+00 0.268D+00
 Coeff:      0.102D+01
 Gap=     0.125 Goal=   None    Shift=    0.000
 Gap=     0.204 Goal=   None    Shift=    0.000
 RMSDP=3.01D-07 MaxDP=1.64D-05 DE=-4.14D-10 OVMax= 4.84D-05

 Cycle  23  Pass 1  IDiag  1:
 E= -283.045570531785     Delta-E=       -0.000000000193 Rises=F Damp=F
 DIIS: error= 2.02D-07 at cycle  14 NSaved=  14.
 NSaved=14 IEnMin=14 EnMin= -283.045570531785     IErMin=14 ErrMin= 2.02D-07
 ErrMax= 2.02D-07  0.00D+00 EMaxC= 1.00D-01 BMatC= 8.92D-12 BMatP= 9.12D-11
 IDIUse=1 WtCom= 1.00D+00 WtEn= 0.00D+00
 Coeff-Com:  0.336D-04 0.901D-03 0.148D-02-0.263D-02-0.220D-02 0.244D-02
 Coeff-Com:  0.506D-02 0.643D-02 0.138D-01-0.572D-01-0.539D-01-0.509D-01
 Coeff-Com:  0.210D+00 0.926D+00
 Coeff:      0.336D-04 0.901D-03 0.148D-02-0.263D-02-0.220D-02 0.244D-02
 Coeff:      0.506D-02 0.643D-02 0.138D-01-0.572D-01-0.539D-01-0.509D-01
 Coeff:      0.210D+00 0.926D+00
 Gap=     0.125 Goal=   None    Shift=    0.000
 Gap=     0.204 Goal=   None    Shift=    0.000
 RMSDP=4.94D-08 MaxDP=2.99D-06 DE=-1.93D-10 OVMax= 6.62D-06

 Cycle  24  Pass 1  IDiag  1:
 E= -283.045570531792     Delta-E=       -0.000000000008 Rises=F Damp=F
 DIIS: error= 7.59D-08 at cycle  15 NSaved=  15.
 NSaved=15 IEnMin=15 EnMin= -283.045570531792     IErMin=15 ErrMin= 7.59D-08
 ErrMax= 7.59D-08  0.00D+00 EMaxC= 1.00D-01 BMatC= 8.73D-13 BMatP= 8.92D-12
 IDIUse=1 WtCom= 1.00D+00 WtEn= 0.00D+00
 Coeff-Com:  0.784D-04-0.131D-03-0.343D-03 0.537D-03 0.506D-03-0.526D-03
 Coeff-Com: -0.154D-02-0.499D-02-0.740D-02 0.393D-01 0.254D-01-0.357D-01
 Coeff-Com: -0.156D+00-0.134D+00 0.127D+01
 Coeff:      0.784D-04-0.131D-03-0.343D-03 0.537D-03 0.506D-03-0.526D-03
 Coeff:     -0.154D-02-0.499D-02-0.740D-02 0.393D-01 0.254D-01-0.357D-01
 Coeff:     -0.156D+00-0.134D+00 0.127D+01
 Gap=     0.125 Goal=   None    Shift=    0.000
 Gap=     0.204 Goal=   None    Shift=    0.000
 RMSDP=1.42D-08 MaxDP=7.16D-07 DE=-7.62D-12 OVMax= 1.68D-06

 Cycle  25  Pass 1  IDiag  1:
 E= -283.045570531795     Delta-E=       -0.000000000003 Rises=F Damp=F
 DIIS: error= 4.28D-08 at cycle  16 NSaved=  16.
 NSaved=16 IEnMin=16 EnMin= -283.045570531795     IErMin=16 ErrMin= 4.28D-08
 ErrMax= 4.28D-08  0.00D+00 EMaxC= 1.00D-01 BMatC= 8.40D-14 BMatP= 8.73D-13
 IDIUse=1 WtCom= 1.00D+00 WtEn= 0.00D+00
 Coeff-Com: -0.639D-05 0.169D-04 0.215D-04-0.772D-05-0.538D-04-0.131D-04
 Coeff-Com:  0.239D-04 0.379D-03-0.201D-03-0.177D-02 0.148D-02 0.774D-02
 Coeff-Com:  0.482D-03-0.531D-01-0.150D+00 0.119D+01
 Coeff:     -0.639D-05 0.169D-04 0.215D-04-0.772D-05-0.538D-04-0.131D-04
 Coeff:      0.239D-04 0.379D-03-0.201D-03-0.177D-02 0.148D-02 0.774D-02
 Coeff:      0.482D-03-0.531D-01-0.150D+00 0.119D+01
 Gap=     0.125 Goal=   None    Shift=    0.000
 Gap=     0.204 Goal=   None    Shift=    0.000
 RMSDP=3.21D-09 MaxDP=1.04D-07 DE=-2.84D-12 OVMax= 7.32D-07

 SCF Done:  E(UM062X) =  -283.045570532     A.U. after   25 cycles
            NFock= 25  Conv=0.32D-08     -V/T= 2.0043
 <Sx>= 0.0000 <Sy>= 0.0000 <Sz>= 0.5000 <S**2>= 0.8232 S= 0.5360
 <L.S>= 0.000000000000E+00
 KE= 2.818434826588D+02 PE=-1.007877342928D+03 EE= 2.673845254918D+02
 Annihilation of the first spin contaminant:
 S**2 before annihilation     0.8232,   after     0.7538
 Leave Link  502 at Mon Oct 12 17:21:35 2020, MaxMem=  1073741824 cpu:             467.2 elap:              37.4
 (Enter /home/spantaleone/g16/l508.exe)
 QCSCF skips out because SCF is already converged.
 Leave Link  508 at Mon Oct 12 17:21:36 2020, MaxMem=  1073741824 cpu:               0.1 elap:               0.0
 (Enter /home/spantaleone/g16/l601.exe)
 Copying SCF densities to generalized density rwf, IOpCl= 1 IROHF=0.

 **********************************************************************

            Population analysis using the SCF Density.

 **********************************************************************

 Alpha  occ. eigenvalues --  -14.82052 -10.66876 -10.65305 -10.64605 -10.63731
 Alpha  occ. eigenvalues --  -10.62098 -10.59506  -1.08707  -0.99207  -0.94208
 Alpha  occ. eigenvalues --   -0.87650  -0.78981  -0.71715  -0.54811  -0.53945
 Alpha  occ. eigenvalues --   -0.50910  -0.49029  -0.47574  -0.39954  -0.39904
 Alpha  occ. eigenvalues --   -0.37398  -0.30156
 Alpha virt. eigenvalues --   -0.17639  -0.04571  -0.02755   0.11178   0.11659
 Alpha virt. eigenvalues --    0.12541   0.14800   0.17406   0.21784   0.23385
 Alpha virt. eigenvalues --    0.24688   0.25117   0.26446   0.26752   0.28543
 Alpha virt. eigenvalues --    0.29757   0.30107   0.35489   0.35714   0.36471
 Alpha virt. eigenvalues --    0.38365   0.42280   0.42578   0.47105   0.48540
 Alpha virt. eigenvalues --    0.48587   0.51826   0.52037   0.54363   0.54422
 Alpha virt. eigenvalues --    0.61899   0.62029   0.62194   0.63283   0.63290
 Alpha virt. eigenvalues --    0.63810   0.68436   0.71421   0.71630   0.74290
 Alpha virt. eigenvalues --    0.75339   0.75425   0.81208   0.83103   0.83269
 Alpha virt. eigenvalues --    0.87698   0.91522   0.91560   0.94778   0.97277
 Alpha virt. eigenvalues --    1.04187   1.05932   1.06817   1.11291   1.11306
 Alpha virt. eigenvalues --    1.14359   1.21780   1.22039   1.26159   1.31063
 Alpha virt. eigenvalues --    1.31072   1.31499   1.39430   1.39534   1.51861
 Alpha virt. eigenvalues --    1.51870   1.62749   1.63081   1.63923   1.68791
 Alpha virt. eigenvalues --    1.68833   1.76143   1.92631   1.93380   1.94756
 Alpha virt. eigenvalues --    2.10558   2.19480   2.20322   2.21815   2.27596
 Alpha virt. eigenvalues --    2.30642   2.31695   2.31874   2.32599   2.33587
 Alpha virt. eigenvalues --    2.35149   2.35391   2.35568   2.35758   2.37088
 Alpha virt. eigenvalues --    2.41867   2.42739   2.43352   2.43521   2.46840
 Alpha virt. eigenvalues --    2.52516   2.52538   2.54475   2.54696   2.55708
 Alpha virt. eigenvalues --    2.56019   2.63436   2.63960   2.67491   2.68021
 Alpha virt. eigenvalues --    2.68391   2.71104   2.71410   2.72889   2.73246
 Alpha virt. eigenvalues --    2.75962   2.76418   2.84151   2.84305   2.86682
 Alpha virt. eigenvalues --    2.87044   2.87777   2.87809   2.88008   2.88920
 Alpha virt. eigenvalues --    2.90657   2.90724   2.99710   3.00238   3.00394
 Alpha virt. eigenvalues --    3.01179   3.02208   3.04027   3.11671   3.11928
 Alpha virt. eigenvalues --    3.13478   3.13701   3.17742   3.18037   3.19906
 Alpha virt. eigenvalues --    3.20395   3.35826   3.36149   3.43125   3.44407
 Alpha virt. eigenvalues --    3.44991   3.51456   3.51842   3.53175   3.60577
 Alpha virt. eigenvalues --    3.60838   3.71501   3.75929   3.76111   3.91159
 Alpha virt. eigenvalues --    3.92336   3.92344   4.05993   4.07020   4.21854
 Alpha virt. eigenvalues --    4.22117   4.26772   4.45292   4.46659   4.50834
 Alpha virt. eigenvalues --    4.50993   4.51389   4.67194   4.75420   4.75990
 Alpha virt. eigenvalues --    4.79473   4.79829   4.92217   5.11730   5.15921
 Alpha virt. eigenvalues --    5.16940   5.51015   5.55182   5.59062   5.59647
 Alpha virt. eigenvalues --    5.75046   5.91028   5.91975   6.05046   6.22338
 Alpha virt. eigenvalues --    6.22736   6.27731  11.60984  12.87780  14.46834
 Alpha virt. eigenvalues --   15.06937  15.38474  16.49197
  Beta  occ. eigenvalues --  -14.81624 -10.66576 -10.64964 -10.64771 -10.63477
  Beta  occ. eigenvalues --  -10.62247 -10.59631  -1.07442  -0.98441  -0.93121
  Beta  occ. eigenvalues --   -0.86755  -0.78222  -0.71137  -0.53134  -0.52574
  Beta  occ. eigenvalues --   -0.49437  -0.47083  -0.46457  -0.38631  -0.37114
  Beta  occ. eigenvalues --   -0.36461
  Beta virt. eigenvalues --   -0.16015  -0.14925  -0.02381  -0.01592   0.11148
  Beta virt. eigenvalues --    0.12917   0.13547   0.14572   0.17298   0.22123
  Beta virt. eigenvalues --    0.24261   0.25519   0.26070   0.26112   0.26477
  Beta virt. eigenvalues --    0.28871   0.29778   0.30006   0.35519   0.35570
  Beta virt. eigenvalues --    0.36547   0.38342   0.42315   0.42393   0.47199
  Beta virt. eigenvalues --    0.48901   0.48903   0.51798   0.51819   0.54789
  Beta virt. eigenvalues --    0.54804   0.61914   0.61955   0.62071   0.63601
  Beta virt. eigenvalues --    0.63643   0.64223   0.68324   0.71516   0.71743
  Beta virt. eigenvalues --    0.74532   0.75921   0.75929   0.81046   0.83566
  Beta virt. eigenvalues --    0.83754   0.88108   0.91996   0.91997   0.94897
  Beta virt. eigenvalues --    0.97382   1.04190   1.06280   1.07119   1.11723
  Beta virt. eigenvalues --    1.11727   1.14582   1.22038   1.22530   1.26836
  Beta virt. eigenvalues --    1.31675   1.31684   1.32030   1.39697   1.40358
  Beta virt. eigenvalues --    1.51755   1.52203   1.63170   1.63598   1.64558
  Beta virt. eigenvalues --    1.69218   1.69690   1.76347   1.93181   1.93356
  Beta virt. eigenvalues --    1.95113   2.11132   2.20465   2.21813   2.22226
  Beta virt. eigenvalues --    2.27722   2.31048   2.32410   2.32479   2.34040
  Beta virt. eigenvalues --    2.34161   2.35429   2.36226   2.36232   2.36262
  Beta virt. eigenvalues --    2.37606   2.43445   2.43504   2.44177   2.44182
  Beta virt. eigenvalues --    2.47186   2.53216   2.53559   2.55443   2.55939
  Beta virt. eigenvalues --    2.56191   2.56300   2.64091   2.64420   2.68862
  Beta virt. eigenvalues --    2.68979   2.69006   2.72035   2.72039   2.73784
  Beta virt. eigenvalues --    2.73801   2.77297   2.77306   2.84123   2.84520
  Beta virt. eigenvalues --    2.86767   2.87825   2.88171   2.88575   2.88612
  Beta virt. eigenvalues --    2.89727   2.90391   2.90494   3.00879   3.00880
  Beta virt. eigenvalues --    3.02427   3.03320   3.03546   3.04223   3.12520
  Beta virt. eigenvalues --    3.12571   3.13744   3.14491   3.18176   3.18914
  Beta virt. eigenvalues --    3.21151   3.21190   3.37147   3.37196   3.44185
  Beta virt. eigenvalues --    3.44458   3.46065   3.52153   3.52562   3.53348
  Beta virt. eigenvalues --    3.61224   3.61837   3.71831   3.76963   3.76979
  Beta virt. eigenvalues --    3.91969   3.94091   3.94091   4.07244   4.08235
  Beta virt. eigenvalues --    4.22993   4.22998   4.28227   4.47512   4.48408
  Beta virt. eigenvalues --    4.51720   4.55685   4.55686   4.68810   4.76566
  Beta virt. eigenvalues --    4.77235   4.80762   4.81103   4.93158   5.13052
  Beta virt. eigenvalues --    5.16319   5.18866   5.51186   5.55989   5.59521
  Beta virt. eigenvalues --    5.60845   5.75383   5.91099   5.93647   6.06169
  Beta virt. eigenvalues --    6.23101   6.24908   6.27822  11.61384  12.88678
  Beta virt. eigenvalues --   14.47081  15.07408  15.38038  16.50168
          Condensed to atoms (all electrons):
               1          2          3          4          5          6
     1  C    6.135404  -0.299364  -0.445676   0.028428   0.001702   0.000017
     2  C   -0.299364   5.938043   0.298860  -0.290089   0.041137   0.002754
     3  C   -0.445676   0.298860   6.191936   0.094795  -0.434883   0.026889
     4  C    0.028428  -0.290089   0.094795   6.172423  -0.044886  -0.146951
     5  C    0.001702   0.041137  -0.434883  -0.044886   5.862901   0.936096
     6  N    0.000017   0.002754   0.026889  -0.146951   0.936096   6.286418
     7  C    0.906367  -0.126034  -0.003162   0.000696  -0.000018   0.000000
               7
     1  C    0.906367
     2  C   -0.126034
     3  C   -0.003162
     4  C    0.000696
     5  C   -0.000018
     6  N    0.000000
     7  C    5.319517
          Atomic-Atomic Spin Densities.
               1          2          3          4          5          6
     1  C   -0.272495   0.053175   0.015425  -0.008631  -0.000833  -0.000001
     2  C    0.053175   0.426825   0.014439  -0.020131  -0.003873  -0.000027
     3  C    0.015425   0.014439  -0.352743  -0.034781   0.018596   0.001735
     4  C   -0.008631  -0.020131  -0.034781   0.570692   0.052230  -0.009407
     5  C   -0.000833  -0.003873   0.018596   0.052230  -0.265383  -0.022493
     6  N   -0.000001  -0.000027   0.001735  -0.009407  -0.022493   0.403446
     7  C    0.012095   0.000356   0.004560   0.000120  -0.000004  -0.000000
               7
     1  C    0.012095
     2  C    0.000356
     3  C    0.004560
     4  C    0.000120
     5  C   -0.000004
     6  N   -0.000000
     7  C    0.344562
 Mulliken charges and spin densities:
               1          2
     1  C   -0.326878  -0.201265
     2  C    0.434692   0.470762
     3  C    0.271241  -0.332769
     4  C    0.185584   0.550092
     5  C   -0.362049  -0.221760
     6  N   -0.105222   0.373252
     7  C   -0.097367   0.361689
 Sum of Mulliken charges =  -0.00000   1.00000
 Mulliken charges and spin densities with hydrogens summed into heavy atoms:
               1          2
     1  C   -0.326878  -0.201265
     2  C    0.434692   0.470762
     3  C    0.271241  -0.332769
     4  C    0.185584   0.550092
     5  C   -0.362049  -0.221760
     6  N   -0.105222   0.373252
     7  C   -0.097367   0.361689
 Electronic spatial extent (au):  <R**2>=           2146.3306
 Charge=             -0.0000 electrons
 Dipole moment (field-independent basis, Debye):
    X=             -0.1013    Y=              0.0000    Z=              0.7165  Tot=              0.7236
 Quadrupole moment (field-independent basis, Debye-Ang):
   XX=            -38.8042   YY=            -37.1890   ZZ=            -58.4781
   XY=             -0.0000   XZ=             -0.8297   YZ=              0.0000
 Traceless Quadrupole moment (field-independent basis, Debye-Ang):
   XX=              6.0195   YY=              7.6348   ZZ=            -13.6543
   XY=             -0.0000   XZ=             -0.8297   YZ=              0.0000
 Octapole moment (field-independent basis, Debye-Ang**2):
  XXX=             -4.3042  YYY=              0.0000  ZZZ=           -429.9548  XYY=             -1.4012
  XXY=             -0.0000  XXZ=            -93.9521  XZZ=             -7.7264  YZZ=              0.0000
  YYZ=            -91.7180  XYZ=             -0.0000
 Hexadecapole moment (field-independent basis, Debye-Ang**3):
 XXXX=            -43.4344 YYYY=            -39.3236 ZZZZ=          -4215.5158 XXXY=             -0.0000
 XXXZ=            -25.2336 YYYX=             -0.0000 YYYZ=              0.0000 ZZZX=            -70.5836
 ZZZY=              0.0000 XXYY=            -13.7877 XXZZ=           -499.3031 YYZZ=           -482.9625
 XXYZ=             -0.0000 YYXZ=             -8.1984 ZZXY=             -0.0000
 N-N= 1.756037642455D+02 E-N=-1.007877342474D+03  KE= 2.818434826588D+02
                          Isotropic Fermi Contact Couplings
        Atom                 a.u.       MegaHertz       Gauss      10(-4) cm-1
     1  C(13)             -0.04041     -45.43346     -16.21179     -15.15497
     2  C(13)              0.06070      68.23615      24.34835      22.76113
     3  C(13)             -0.06179     -69.46710     -24.78759     -23.17173
     4  C(13)              0.07145      80.32741      28.66282      26.79434
     5  C(13)             -0.04307     -48.41357     -17.27517     -16.14903
     6  N(14)              0.07766      25.09244       8.95361       8.36994
     7  C(13)              0.04510      50.70111      18.09142      16.91207
 --------------------------------------------------------
       Center         ----  Spin Dipole Couplings  ----
                      3XX-RR        3YY-RR        3ZZ-RR
 --------------------------------------------------------
     1   Atom       -0.042432     -0.062322      0.104754
     2   Atom        0.385699     -0.152658     -0.233041
     3   Atom       -0.109624     -0.050671      0.160294
     4   Atom        0.407844     -0.120488     -0.287356
     5   Atom       -0.098318     -0.040254      0.138571
     6   Atom        0.565546     -0.153119     -0.412427
     7   Atom        0.489840     -0.285102     -0.204738
 --------------------------------------------------------
                        XY            XZ            YZ
 --------------------------------------------------------
     1   Atom       -0.000000      0.000225      0.000000
     2   Atom        0.000000      0.002540      0.000000
     3   Atom       -0.000000     -0.003234     -0.000000
     4   Atom        0.000000     -0.028725     -0.000000
     5   Atom       -0.000000      0.014405      0.000000
     6   Atom        0.000000     -0.065162     -0.000000
     7   Atom        0.000000     -0.000064     -0.000000
 --------------------------------------------------------


 ---------------------------------------------------------------------------------
              Anisotropic Spin Dipole Couplings in Principal Axis System
 ---------------------------------------------------------------------------------

       Atom             a.u.   MegaHertz   Gauss  10(-4) cm-1        Axes

              Baa    -0.0623    -8.363    -2.984    -2.790  0.0000  1.0000 -0.0000
     1 C(13)  Bbb    -0.0424    -5.694    -2.032    -1.899  1.0000 -0.0000 -0.0015
              Bcc     0.1048    14.057     5.016     4.689  0.0015  0.0000  1.0000
 
              Baa    -0.2331   -31.273   -11.159   -10.432 -0.0041 -0.0000  1.0000
     2 C(13)  Bbb    -0.1527   -20.485    -7.310    -6.833 -0.0000  1.0000 -0.0000
              Bcc     0.3857    51.759    18.469    17.265  1.0000  0.0000  0.0041
 
              Baa    -0.1097   -14.716    -5.251    -4.909  0.9999  0.0000  0.0120
     3 C(13)  Bbb    -0.0507    -6.800    -2.426    -2.268 -0.0000  1.0000 -0.0000
              Bcc     0.1603    21.515     7.677     7.177 -0.0120 -0.0000  0.9999
 
              Baa    -0.2885   -38.719   -13.816   -12.915  0.0412  0.0000  0.9992
     4 C(13)  Bbb    -0.1205   -16.168    -5.769    -5.393 -0.0000  1.0000  0.0000
              Bcc     0.4090    54.888    19.585    18.309  0.9992  0.0000 -0.0412
 
              Baa    -0.0992   -13.310    -4.749    -4.440  0.9982  0.0000 -0.0605
     5 C(13)  Bbb    -0.0403    -5.402    -1.927    -1.802 -0.0000  1.0000  0.0000
              Bcc     0.1394    18.712     6.677     6.242  0.0605 -0.0000  0.9982
 
              Baa    -0.4167   -16.073    -5.735    -5.361  0.0662  0.0000  0.9978
     6 N(14)  Bbb    -0.1531    -5.905    -2.107    -1.970 -0.0000  1.0000  0.0000
              Bcc     0.5699    21.979     7.843     7.331  0.9978  0.0000 -0.0662
 
              Baa    -0.2851   -38.258   -13.651   -12.761 -0.0000  1.0000  0.0000
     7 C(13)  Bbb    -0.2047   -27.474    -9.803    -9.164  0.0001 -0.0000  1.0000
              Bcc     0.4898    65.732    23.455    21.926  1.0000  0.0000 -0.0001
 

 ---------------------------------------------------------------------------------

 No NMR shielding tensors so no spin-rotation constants.
 Leave Link  601 at Mon Oct 12 17:21:36 2020, MaxMem=  1073741824 cpu:               9.3 elap:               0.4
 (Enter /home/spantaleone/g16/l701.exe)
 ... and contract with generalized density number  0.
 Compute integral first derivatives.
 Leave Link  701 at Mon Oct 12 17:21:37 2020, MaxMem=  1073741824 cpu:               6.3 elap:               0.3
 (Enter /home/spantaleone/g16/l702.exe)
 L702 exits ... SP integral derivatives will be done elsewhere.
 Leave Link  702 at Mon Oct 12 17:21:37 2020, MaxMem=  1073741824 cpu:               0.7 elap:               0.0
 (Enter /home/spantaleone/g16/l703.exe)
 Integral derivatives from FoFJK, PRISM(SPDF).
 Compute integral first derivatives, UseDBF=F ICtDFT=           0.
 Calling FoFJK, ICntrl=      2127 FMM=F ISym2X=0 I1Cent= 0 IOpClX= 1 NMat=1 NMatS=1 NMatT=0.
 FoFJK:  IHMeth= 1 ICntrl=    2127 DoSepK=F KAlg= 0 I1Cent=           0 FoldK=F
 IRaf=         0 NMat=       1 IRICut=       1 DoRegI=T DoRafI=F ISym2E= 0 IDoP0=0 IntGTp=1.
 FoFCou: FMM=F IPFlag=           0 FMFlag=      100000 FMFlg1=         800
         NFxFlg=           0 DoJE=F BraDBF=F KetDBF=F FulRan=T
         wScrn=  0.000000 ICntrl=      2127 IOpCl=  1 I1Cent=           0 NGrid=           0
         NMat0=    1 NMatS0=      1 NMatT0=    0 NMatD0=    1 NMtDS0=    0 NMtDT0=    0
 Symmetry not used in FoFCou.
 Leave Link  703 at Mon Oct 12 17:21:40 2020, MaxMem=  1073741824 cpu:              70.6 elap:               3.0
 (Enter /home/spantaleone/g16/l716.exe)
 Dipole        =-3.98721342D-02 9.36162081D-13 2.81887914D-01
 -------------------------------------------------------------------
 Center     Atomic                   Forces (Hartrees/Bohr)
 Number     Number              X              Y              Z
 -------------------------------------------------------------------
      1        6           0.000019612    0.000000000   -0.002090018
      2        6          -0.000588096   -0.000000000   -0.027249457
      3        6          -0.000311540    0.000000000    0.072047053
      4        6          -0.010791925   -0.000000000   -0.231864768
      5        6           0.009743743    0.000000000    0.153018773
      6        7           0.001931094   -0.000000000    0.023227228
      7        6          -0.000002888    0.000000000    0.012911189
 -------------------------------------------------------------------
 Cartesian Forces:  Max     0.231864768 RMS     0.063258907
 Leave Link  716 at Mon Oct 12 17:21:40 2020, MaxMem=  1073741824 cpu:               0.8 elap:               0.0
 (Enter /home/spantaleone/g16/l103.exe)

 GradGradGradGradGradGradGradGradGradGradGradGradGradGradGradGradGradGrad
 Berny optimization.
 FormGI is forming the generalized inverse of G from B-inverse, IUseBI=4.
 Internal  Forces:  Max     0.176609009 RMS     0.047033204
 Search for a local minimum.
 Step number   1 out of a maximum of  100
 All quantities printed in internal units (Hartrees-Bohrs-Radians)
 RMS Force = .47033D-01 SwitMx=.10000D-02 MixMth= 1
 Mixed Optimization -- RFO/linear search
 Second derivative matrix not updated -- first step.
 The second derivative matrix:
                          R1        R2        R3        R4        R5
           R1           0.72574
           R2           0.00000   0.65775
           R3           0.00000   0.00000   0.72589
           R4           0.00000   0.00000   0.00000   0.72567
           R5           0.00000   0.00000   0.00000   0.00000   0.94476
           R6           0.00000   0.00000   0.00000   0.00000   0.00000
           A1           0.00000   0.00000   0.00000   0.00000   0.00000
           A2           0.00000   0.00000   0.00000   0.00000   0.00000
           A3           0.00000   0.00000   0.00000   0.00000   0.00000
           A4           0.00000   0.00000   0.00000   0.00000   0.00000
           A5           0.00000   0.00000   0.00000   0.00000   0.00000
           A6           0.00000   0.00000   0.00000   0.00000   0.00000
           A7           0.00000   0.00000   0.00000   0.00000   0.00000
           A8           0.00000   0.00000   0.00000   0.00000   0.00000
           A9           0.00000   0.00000   0.00000   0.00000   0.00000
           A10          0.00000   0.00000   0.00000   0.00000   0.00000
                          R6        A1        A2        A3        A4
           R6           1.28681
           A1           0.00000   0.03343
           A2           0.00000   0.00000   0.03656
           A3           0.00000   0.00000   0.00000   0.03655
           A4           0.00000   0.00000   0.00000   0.00000   0.04443
           A5           0.00000   0.00000   0.00000   0.00000   0.00000
           A6           0.00000   0.00000   0.00000   0.00000   0.00000
           A7           0.00000   0.00000   0.00000   0.00000   0.00000
           A8           0.00000   0.00000   0.00000   0.00000   0.00000
           A9           0.00000   0.00000   0.00000   0.00000   0.00000
           A10          0.00000   0.00000   0.00000   0.00000   0.00000
                          A5        A6        A7        A8        A9
           A5           0.04884
           A6           0.00000   0.03343
           A7           0.00000   0.00000   0.03656
           A8           0.00000   0.00000   0.00000   0.03655
           A9           0.00000   0.00000   0.00000   0.00000   0.04443
           A10          0.00000   0.00000   0.00000   0.00000   0.00000
                          A10
           A10          0.04884
 ITU=  0
     Eigenvalues ---    0.03343   0.03369   0.03655   0.03655   0.03656
     Eigenvalues ---    0.04231   0.04443   0.04842   0.04884   0.65774
     Eigenvalues ---    0.72555   0.72573   0.72586   0.94474   1.28680
 RFO step:  Lambda=-3.71116992D-02 EMin= 3.34304263D-02
 Linear search not attempted -- first point.
 Iteration  1 RMS(Cart)=  0.04557275 RMS(Int)=  0.00045437
 Iteration  2 RMS(Cart)=  0.00073726 RMS(Int)=  0.00000037
 Iteration  3 RMS(Cart)=  0.00000052 RMS(Int)=  0.00000000
 ITry= 1 IFail=0 DXMaxC= 1.06D-01 DCOld= 1.00D+10 DXMaxT= 3.00D-01 DXLimC= 3.00D+00 Rises=F
 Variable       Old X    -DE/DX   Delta X   Delta X   Delta X     New X
                                 (Linear)    (Quad)   (Total)
    R1        2.42187  -0.01084   0.00000  -0.01420  -0.01420   2.40767
    R2        2.46643  -0.01292   0.00000  -0.01859  -0.01859   2.44784
    R3        2.42178   0.01641   0.00000   0.02151   0.02151   2.44328
    R4        2.42191  -0.05565   0.00000  -0.07295  -0.07295   2.34896
    R5        2.30936   0.17661   0.00000   0.17987   0.17987   2.48923
    R6        2.18953   0.02329   0.00000   0.01760   0.01760   2.20713
    A1        3.14204   0.00067   0.00000   0.00814   0.00814   3.15018
    A2        3.14115  -0.00138   0.00000  -0.01627  -0.01627   3.12487
    A3        3.14115  -0.00027   0.00000  -0.00069  -0.00069   3.14046
    A4        3.06497   0.00232   0.00000   0.03055   0.03055   3.09552
    A5        3.15714  -0.00164   0.00000  -0.01819  -0.01819   3.13895
    A6        3.14159  -0.00000   0.00000  -0.00000   0.00000   3.14159
    A7        3.14159   0.00000   0.00000   0.00000   0.00000   3.14159
    A8        3.14159   0.00000   0.00000   0.00000   0.00000   3.14159
    A9        3.14159   0.00000   0.00000   0.00000   0.00000   3.14159
   A10        3.14159   0.00000   0.00000   0.00000   0.00000   3.14159
         Item               Value     Threshold  Converged?
 Maximum Force            0.176609     0.000450     NO 
 RMS     Force            0.047033     0.000300     NO 
 Maximum Displacement     0.106027     0.001800     NO 
 RMS     Displacement     0.045480     0.001200     NO 
 Predicted change in Energy=-1.930903D-02
 Lowest energy point so far.  Saving SCF results.
 GradGradGradGradGradGradGradGradGradGradGradGradGradGradGradGradGradGrad

 Leave Link  103 at Mon Oct 12 17:21:40 2020, MaxMem=  1073741824 cpu:               0.7 elap:               0.0
 (Enter /home/spantaleone/g16/l202.exe)
                          Input orientation:                          
 ---------------------------------------------------------------------
 Center     Atomic      Atomic             Coordinates (Angstroms)
 Number     Number       Type             X           Y           Z
 ---------------------------------------------------------------------
      1          6           0       -0.007866   -0.000000   -0.014827
      2          6           0       -0.014160   -0.000000    1.259242
      3          6           0        0.001072   -0.000000    2.552082
      4          6           0        0.017128    0.000000    3.794996
      5          6           0        0.094791   -0.000000    5.109948
      6          7           0        0.166730    0.000000    6.275692
      7          6           0        0.009660    0.000000   -1.310050
 ---------------------------------------------------------------------
                    Distance matrix (angstroms):
                    1          2          3          4          5
     1  C    0.000000
     2  C    1.274084   0.000000
     3  C    2.566924   1.292930   0.000000
     4  C    3.809905   2.535948   1.243018   0.000000
     5  C    5.125803   3.852248   2.559583   1.317244   0.000000
     6  N    6.292941   5.019710   3.727293   2.485202   1.167961
     7  C    1.295342   2.569402   3.862142   5.105052   6.420563
                    6          7
     6  N    0.000000
     7  C    7.587368   0.000000
 Symmetry turned off by external request.
 Stoichiometry    C6N(2)
 Framework group  C1[X(C6N)]
 Deg. of freedom    15
 Full point group                 C1      NOp   1
 Rotational constants (GHZ):        4215.4943601           0.8877779           0.8875910
 Leave Link  202 at Mon Oct 12 17:21:40 2020, MaxMem=  1073741824 cpu:               0.0 elap:               0.0
 (Enter /home/spantaleone/g16/l301.exe)
 Standard basis: CC-pVTZ (5D, 7F)
 Ernie: Thresh=  0.10000D-02 Tol=  0.10000D-05 Strict=F.
 Ernie:  21 primitive shells out of 182 were deleted.
   210 basis functions,   364 primitive gaussians,   245 cartesian basis functions
    22 alpha electrons       21 beta electrons
       nuclear repulsion energy       174.0896281434 Hartrees.
 IExCor= 4336 DFT=T Ex+Corr=M062X ExCW=0 ScaHFX=  0.540000
 ScaDFX=  1.000000  1.000000  1.000000  1.000000 ScalE2=  1.000000  1.000000
 IRadAn=      5 IRanWt=     -1 IRanGd=            0 ICorTp=0 IEmpDi=  4
 NAtoms=    7 NActive=    7 NUniq=    7 SFac= 1.00D+00 NAtFMM=   60 NAOKFM=F Big=F
 Integral buffers will be    131072 words long.
 Raffenetti 2 integral format.
 Two-electron integral symmetry is turned off.
 Leave Link  301 at Mon Oct 12 17:21:40 2020, MaxMem=  1073741824 cpu:               0.9 elap:               0.0
 (Enter /home/spantaleone/g16/l302.exe)
 NPDir=0 NMtPBC=     1 NCelOv=     1 NCel=       1 NClECP=     1 NCelD=      1
         NCelK=      1 NCelE2=     1 NClLst=     1 CellRange=     0.0.
 One-electron integrals computed using PRISM.
 NBasis=   210 RedAO= T EigKep=  1.37D-05  NBF=   210
 NBsUse=   210 1.00D-06 EigRej= -1.00D+00 NBFU=   210
 Precomputing XC quadrature grid using
 IXCGrd= 4 IRadAn=           5 IRanWt=          -1 IRanGd=           0 AccXCQ= 0.00D+00.
 Generated NRdTot=       0 NPtTot=           0 NUsed=           0 NTot=          32
 NSgBfM=   244   244   244   244   244 MxSgAt=     7 MxSgA2=     7.
 Leave Link  302 at Mon Oct 12 17:21:40 2020, MaxMem=  1073741824 cpu:               6.3 elap:               0.3
 (Enter /home/spantaleone/g16/l303.exe)
 DipDrv:  MaxL=1.
 Leave Link  303 at Mon Oct 12 17:21:40 2020, MaxMem=  1073741824 cpu:               1.0 elap:               0.0
 (Enter /home/spantaleone/g16/l401.exe)
 Initial guess from the checkpoint file:  "input.chk"
 B after Tr=     0.000140   -0.000000    0.002463
         Rot=    1.000000    0.000000    0.000020    0.000000 Ang=   0.00 deg.
 Guess basis will be translated and rotated to current coordinates.
 JPrj=2 DoOrth=T DoCkMO=T.
 Initial guess <Sx>= 0.0000 <Sy>= 0.0000 <Sz>= 0.5000 <S**2>= 0.8223 S= 0.5355
 Generating alternative initial guess.
 ExpMin= 1.21D-01 ExpMax= 1.14D+04 ExpMxC= 3.89D+02 IAcc=3 IRadAn=         5 AccDes= 0.00D+00
 Harris functional with IExCor= 1009 and IRadAn=       5 diagonalized for initial guess.
 HarFok:  IExCor= 1009 AccDes= 0.00D+00 IRadAn=         5 IDoV= 1 UseB2=F ITyADJ=14
 ICtDFT=  3500011 ScaDFX=  1.000000  1.000000  1.000000  1.000000
 FoFCou: FMM=F IPFlag=           0 FMFlag=      100000 FMFlg1=           0
         NFxFlg=           0 DoJE=T BraDBF=F KetDBF=T FulRan=T
         wScrn=  0.000000 ICntrl=       500 IOpCl=  0 I1Cent=   200000004 NGrid=           0
         NMat0=    1 NMatS0=      1 NMatT0=    0 NMatD0=    1 NMtDS0=    0 NMtDT0=    0
 Symmetry not used in FoFCou.
 Harris En= -282.911804860727    
 Leave Link  401 at Mon Oct 12 17:21:41 2020, MaxMem=  1073741824 cpu:              17.5 elap:               0.7
 (Enter /home/spantaleone/g16/l502.exe)
 Keep R1 and R2 ints in memory in canonical form, NReq=516702736.
 FoFCou: FMM=F IPFlag=           0 FMFlag=           0 FMFlg1=           0
         NFxFlg=           0 DoJE=F BraDBF=F KetDBF=F FulRan=T
         wScrn=  0.000000 ICntrl=       600 IOpCl=  0 I1Cent=           0 NGrid=           0
         NMat0=    1 NMatS0=  22155 NMatT0=    0 NMatD0=    1 NMtDS0=    0 NMtDT0=    0
 Symmetry not used in FoFCou.
 Two-electron integral symmetry not used.
 UHF open shell SCF:
 Using DIIS extrapolation, IDIIS=  1040.
 NGot=  1073741824 LenX=   582748134 LenY=   582687668
 Requested convergence on RMS density matrix=1.00D-08 within  32 cycles.
 Requested convergence on MAX density matrix=1.00D-06.
 Requested convergence on             energy=1.00D-06.
 No special actions if energy rises.
 Integral accuracy reduced to 1.0D-05 until final iterations.

 Cycle   1  Pass 0  IDiag  1:
 E= -283.056658481618    
 DIIS: error= 1.40D-02 at cycle   1 NSaved=   1.
 NSaved= 1 IEnMin= 1 EnMin= -283.056658481618     IErMin= 1 ErrMin= 1.40D-02
 ErrMax= 1.40D-02  0.00D+00 EMaxC= 1.00D-01 BMatC= 6.26D-02 BMatP= 6.26D-02
 IDIUse=3 WtCom= 8.60D-01 WtEn= 1.40D-01
 Coeff-Com:  0.100D+01
 Coeff-En:   0.100D+01
 Coeff:      0.100D+01
 Recover alternate guess density for next cycle.
 RMSDP=5.91D-03 MaxDP=2.63D-01              OVMax= 0.00D+00

 Cycle   2  Pass 0  IDiag  1:
 E= -282.962452949148     Delta-E=        0.094205532470 Rises=F Damp=F
 Switch densities from cycles 1 and 2 for lowest energy.
 DIIS: error= 3.28D-02 at cycle   2 NSaved=   2.
 NSaved= 2 IEnMin= 1 EnMin= -283.056658481618     IErMin= 1 ErrMin= 1.40D-02
 ErrMax= 3.28D-02  0.00D+00 EMaxC= 1.00D+00 BMatC= 5.51D-01 BMatP= 6.26D-02
 IDIUse=1 WtCom= 1.00D+00 WtEn= 0.00D+00
 Coeff-Com:  0.894D+00 0.106D+00
 Coeff:      0.894D+00 0.106D+00
 Gap=     0.124 Goal=   None    Shift=    0.000
 Gap=     0.245 Goal=   None    Shift=    0.000
 RMSDP=3.57D-03 MaxDP=1.86D-01 DE= 9.42D-02 OVMax= 1.24D-01

 Cycle   3  Pass 0  IDiag  1:
 E= -283.065427860943     Delta-E=       -0.102974911795 Rises=F Damp=F
 DIIS: error= 4.10D-03 at cycle   3 NSaved=   3.
 NSaved= 3 IEnMin= 3 EnMin= -283.065427860943     IErMin= 3 ErrMin= 4.10D-03
 ErrMax= 4.10D-03  0.00D+00 EMaxC= 1.00D+00 BMatC= 7.45D-03 BMatP= 6.26D-02
 IDIUse=1 WtCom= 1.00D+00 WtEn= 0.00D+00
 Coeff-Com:  0.158D+00 0.182D-01 0.824D+00
 Coeff:      0.158D+00 0.182D-01 0.824D+00
 Gap=     0.126 Goal=   None    Shift=    0.000
 Gap=     0.216 Goal=   None    Shift=    0.000
 RMSDP=4.75D-04 MaxDP=1.95D-02 DE=-1.03D-01 OVMax= 2.00D-02

 Cycle   4  Pass 0  IDiag  1:
 E= -283.065479444400     Delta-E=       -0.000051583457 Rises=F Damp=F
 DIIS: error= 4.51D-03 at cycle   4 NSaved=   4.
 NSaved= 4 IEnMin= 4 EnMin= -283.065479444400     IErMin= 3 ErrMin= 4.10D-03
 ErrMax= 4.51D-03  0.00D+00 EMaxC= 1.00D+00 BMatC= 8.12D-03 BMatP= 7.45D-03
 IDIUse=1 WtCom= 1.00D+00 WtEn= 0.00D+00
 Coeff-Com:  0.955D-02 0.125D-01 0.504D+00 0.474D+00
 Coeff:      0.955D-02 0.125D-01 0.504D+00 0.474D+00
 Gap=     0.126 Goal=   None    Shift=    0.000
 Gap=     0.216 Goal=   None    Shift=    0.000
 RMSDP=2.18D-04 MaxDP=1.01D-02 DE=-5.16D-05 OVMax= 1.40D-02

 Cycle   5  Pass 0  IDiag  1:
 E= -283.067250045808     Delta-E=       -0.001770601407 Rises=F Damp=F
 DIIS: error= 1.11D-03 at cycle   5 NSaved=   5.
 NSaved= 5 IEnMin= 5 EnMin= -283.067250045808     IErMin= 5 ErrMin= 1.11D-03
 ErrMax= 1.11D-03  0.00D+00 EMaxC= 1.00D+00 BMatC= 3.75D-04 BMatP= 7.45D-03
 IDIUse=1 WtCom= 1.00D+00 WtEn= 0.00D+00
 Coeff-Com: -0.608D-02 0.931D-03 0.133D+00 0.212D+00 0.660D+00
 Coeff:     -0.608D-02 0.931D-03 0.133D+00 0.212D+00 0.660D+00
 Gap=     0.127 Goal=   None    Shift=    0.000
 Gap=     0.217 Goal=   None    Shift=    0.000
 RMSDP=5.99D-05 MaxDP=2.23D-03 DE=-1.77D-03 OVMax= 7.56D-03

 Cycle   6  Pass 0  IDiag  1:
 E= -283.067377233877     Delta-E=       -0.000127188069 Rises=F Damp=F
 DIIS: error= 6.18D-04 at cycle   6 NSaved=   6.
 NSaved= 6 IEnMin= 6 EnMin= -283.067377233877     IErMin= 6 ErrMin= 6.18D-04
 ErrMax= 6.18D-04  0.00D+00 EMaxC= 1.00D+00 BMatC= 6.92D-05 BMatP= 3.75D-04
 IDIUse=1 WtCom= 1.00D+00 WtEn= 0.00D+00
 Coeff-Com: -0.250D-02-0.164D-02-0.249D-01 0.180D-01 0.302D+00 0.709D+00
 Coeff:     -0.250D-02-0.164D-02-0.249D-01 0.180D-01 0.302D+00 0.709D+00
 Gap=     0.127 Goal=   None    Shift=    0.000
 Gap=     0.218 Goal=   None    Shift=    0.000
 RMSDP=6.45D-05 MaxDP=3.94D-03 DE=-1.27D-04 OVMax= 6.01D-03

 Cycle   7  Pass 0  IDiag  1:
 E= -283.067429453643     Delta-E=       -0.000052219766 Rises=F Damp=F
 DIIS: error= 4.10D-04 at cycle   7 NSaved=   7.
 NSaved= 7 IEnMin= 7 EnMin= -283.067429453643     IErMin= 7 ErrMin= 4.10D-04
 ErrMax= 4.10D-04  0.00D+00 EMaxC= 1.00D+00 BMatC= 1.69D-05 BMatP= 6.92D-05
 IDIUse=1 WtCom= 1.00D+00 WtEn= 0.00D+00
 Coeff-Com:  0.170D-02-0.718D-03-0.465D-01-0.553D-01-0.121D+00 0.132D+00
 Coeff-Com:  0.109D+01
 Coeff:      0.170D-02-0.718D-03-0.465D-01-0.553D-01-0.121D+00 0.132D+00
 Coeff:      0.109D+01
 Gap=     0.127 Goal=   None    Shift=    0.000
 Gap=     0.218 Goal=   None    Shift=    0.000
 RMSDP=5.06D-05 MaxDP=3.06D-03 DE=-5.22D-05 OVMax= 6.68D-03

 Cycle   8  Pass 0  IDiag  1:
 E= -283.067463195514     Delta-E=       -0.000033741871 Rises=F Damp=F
 DIIS: error= 2.47D-04 at cycle   8 NSaved=   8.
 NSaved= 8 IEnMin= 8 EnMin= -283.067463195514     IErMin= 8 ErrMin= 2.47D-04
 ErrMax= 2.47D-04  0.00D+00 EMaxC= 1.00D+00 BMatC= 7.30D-06 BMatP= 1.69D-05
 IDIUse=1 WtCom= 1.00D+00 WtEn= 0.00D+00
 Coeff-Com:  0.144D-02 0.794D-03-0.131D-01-0.344D-01-0.175D+00-0.210D+00
 Coeff-Com:  0.464D+00 0.967D+00
 Coeff:      0.144D-02 0.794D-03-0.131D-01-0.344D-01-0.175D+00-0.210D+00
 Coeff:      0.464D+00 0.967D+00
 Gap=     0.127 Goal=   None    Shift=    0.000
 Gap=     0.218 Goal=   None    Shift=    0.000
 RMSDP=5.16D-05 MaxDP=3.30D-03 DE=-3.37D-05 OVMax= 4.97D-03

 Cycle   9  Pass 0  IDiag  1:
 E= -283.067479825007     Delta-E=       -0.000016629493 Rises=F Damp=F
 DIIS: error= 1.40D-04 at cycle   9 NSaved=   9.
 NSaved= 9 IEnMin= 9 EnMin= -283.067479825007     IErMin= 9 ErrMin= 1.40D-04
 ErrMax= 1.40D-04  0.00D+00 EMaxC= 1.00D+00 BMatC= 2.16D-06 BMatP= 7.30D-06
 IDIUse=1 WtCom= 1.00D+00 WtEn= 0.00D+00
 Coeff-Com: -0.568D-03 0.438D-04 0.189D-01 0.234D-01 0.638D-01-0.178D-01
 Coeff-Com: -0.409D+00-0.221D-01 0.134D+01
 Coeff:     -0.568D-03 0.438D-04 0.189D-01 0.234D-01 0.638D-01-0.178D-01
 Coeff:     -0.409D+00-0.221D-01 0.134D+01
 Gap=     0.127 Goal=   None    Shift=    0.000
 Gap=     0.218 Goal=   None    Shift=    0.000
 RMSDP=3.40D-05 MaxDP=2.28D-03 DE=-1.66D-05 OVMax= 2.99D-03

 Failed to achieve initial convergence to 1.0D-08 in 10 cycles.
 Switch to full accuracy anyway.
 Cycle  10  Pass 1  IDiag  1:
 E= -283.067486729957     Delta-E=       -0.000006904949 Rises=F Damp=F
 DIIS: error= 1.12D-04 at cycle   1 NSaved=   1.
 NSaved= 1 IEnMin= 1 EnMin= -283.067486729957     IErMin= 1 ErrMin= 1.12D-04
 ErrMax= 1.12D-04  0.00D+00 EMaxC= 1.00D+00 BMatC= 1.20D-06 BMatP= 1.20D-06
 IDIUse=1 WtCom= 1.00D+00 WtEn= 0.00D+00
 Coeff-Com:  0.100D+01
 Coeff:      0.100D+01
 Gap=     0.127 Goal=   None    Shift=    0.000
 Gap=     0.218 Goal=   None    Shift=    0.000
 RMSDP=3.40D-05 MaxDP=2.28D-03 DE=-6.90D-06 OVMax= 1.62D-03

 Cycle  11  Pass 1  IDiag  1:
 E= -283.067488804935     Delta-E=       -0.000002074979 Rises=F Damp=F
 DIIS: error= 1.06D-04 at cycle   2 NSaved=   2.
 NSaved= 2 IEnMin= 2 EnMin= -283.067488804935     IErMin= 2 ErrMin= 1.06D-04
 ErrMax= 1.06D-04  0.00D+00 EMaxC= 1.00D+00 BMatC= 1.35D-06 BMatP= 1.20D-06
 IDIUse=1 WtCom= 1.00D+00 WtEn= 0.00D+00
 Coeff-Com:  0.541D+00 0.459D+00
 Coeff:      0.541D+00 0.459D+00
 Gap=     0.127 Goal=   None    Shift=    0.000
 Gap=     0.218 Goal=   None    Shift=    0.000
 RMSDP=6.94D-06 MaxDP=4.93D-04 DE=-2.07D-06 OVMax= 5.72D-04

 Cycle  12  Pass 1  IDiag  1:
 E= -283.067489760340     Delta-E=       -0.000000955405 Rises=F Damp=F
 DIIS: error= 9.50D-05 at cycle   3 NSaved=   3.
 NSaved= 3 IEnMin= 3 EnMin= -283.067489760340     IErMin= 3 ErrMin= 9.50D-05
 ErrMax= 9.50D-05  0.00D+00 EMaxC= 1.00D+00 BMatC= 6.53D-07 BMatP= 1.20D-06
 IDIUse=1 WtCom= 1.00D+00 WtEn= 0.00D+00
 Coeff-Com: -0.535D+00 0.182D+00 0.135D+01
 Coeff:     -0.535D+00 0.182D+00 0.135D+01
 Gap=     0.127 Goal=   None    Shift=    0.000
 Gap=     0.218 Goal=   None    Shift=    0.000
 RMSDP=1.40D-05 MaxDP=7.32D-04 DE=-9.55D-07 OVMax= 2.25D-03

 Cycle  13  Pass 1  IDiag  1:
 E= -283.067492211521     Delta-E=       -0.000002451181 Rises=F Damp=F
 DIIS: error= 7.28D-05 at cycle   4 NSaved=   4.
 NSaved= 4 IEnMin= 4 EnMin= -283.067492211521     IErMin= 4 ErrMin= 7.28D-05
 ErrMax= 7.28D-05  0.00D+00 EMaxC= 1.00D+00 BMatC= 4.09D-07 BMatP= 6.53D-07
 IDIUse=1 WtCom= 1.00D+00 WtEn= 0.00D+00
 Coeff-Com: -0.707D+00-0.289D+00 0.705D+00 0.129D+01
 Coeff:     -0.707D+00-0.289D+00 0.705D+00 0.129D+01
 Gap=     0.127 Goal=   None    Shift=    0.000
 Gap=     0.218 Goal=   None    Shift=    0.000
 RMSDP=2.04D-05 MaxDP=1.20D-03 DE=-2.45D-06 OVMax= 3.07D-03

 Cycle  14  Pass 1  IDiag  1:
 E= -283.067494689120     Delta-E=       -0.000002477599 Rises=F Damp=F
 DIIS: error= 4.82D-05 at cycle   5 NSaved=   5.
 NSaved= 5 IEnMin= 5 EnMin= -283.067494689120     IErMin= 5 ErrMin= 4.82D-05
 ErrMax= 4.82D-05  0.00D+00 EMaxC= 1.00D+00 BMatC= 1.98D-07 BMatP= 4.09D-07
 IDIUse=1 WtCom= 1.00D+00 WtEn= 0.00D+00
 Coeff-Com: -0.748D-01-0.329D+00-0.589D+00 0.811D+00 0.118D+01
 Coeff:     -0.748D-01-0.329D+00-0.589D+00 0.811D+00 0.118D+01
 Gap=     0.127 Goal=   None    Shift=    0.000
 Gap=     0.218 Goal=   None    Shift=    0.000
 RMSDP=2.22D-05 MaxDP=1.22D-03 DE=-2.48D-06 OVMax= 3.39D-03

 Cycle  15  Pass 1  IDiag  1:
 E= -283.067496163874     Delta-E=       -0.000001474754 Rises=F Damp=F
 DIIS: error= 2.34D-05 at cycle   6 NSaved=   6.
 NSaved= 6 IEnMin= 6 EnMin= -283.067496163874     IErMin= 6 ErrMin= 2.34D-05
 ErrMax= 2.34D-05  0.00D+00 EMaxC= 1.00D+00 BMatC= 1.05D-07 BMatP= 1.98D-07
 IDIUse=1 WtCom= 1.00D+00 WtEn= 0.00D+00
 Coeff-Com:  0.141D+00-0.142D+00-0.612D+00 0.187D+00 0.845D+00 0.581D+00
 Coeff:      0.141D+00-0.142D+00-0.612D+00 0.187D+00 0.845D+00 0.581D+00
 Gap=     0.127 Goal=   None    Shift=    0.000
 Gap=     0.218 Goal=   None    Shift=    0.000
 RMSDP=7.53D-06 MaxDP=3.62D-04 DE=-1.47D-06 OVMax= 1.16D-03

 Cycle  16  Pass 1  IDiag  1:
 E= -283.067496398376     Delta-E=       -0.000000234502 Rises=F Damp=F
 DIIS: error= 1.38D-05 at cycle   7 NSaved=   7.
 NSaved= 7 IEnMin= 7 EnMin= -283.067496398376     IErMin= 7 ErrMin= 1.38D-05
 ErrMax= 1.38D-05  0.00D+00 EMaxC= 1.00D+00 BMatC= 1.51D-08 BMatP= 1.05D-07
 IDIUse=1 WtCom= 1.00D+00 WtEn= 0.00D+00
 Coeff-Com:  0.292D-01 0.845D-01 0.971D-01-0.252D+00-0.202D+00 0.126D+00
 Coeff-Com:  0.112D+01
 Coeff:      0.292D-01 0.845D-01 0.971D-01-0.252D+00-0.202D+00 0.126D+00
 Coeff:      0.112D+01
 Gap=     0.127 Goal=   None    Shift=    0.000
 Gap=     0.218 Goal=   None    Shift=    0.000
 RMSDP=4.26D-06 MaxDP=2.69D-04 DE=-2.35D-07 OVMax= 5.69D-04

 Cycle  17  Pass 1  IDiag  1:
 E= -283.067496464348     Delta-E=       -0.000000065972 Rises=F Damp=F
 DIIS: error= 8.42D-06 at cycle   8 NSaved=   8.
 NSaved= 8 IEnMin= 8 EnMin= -283.067496464348     IErMin= 8 ErrMin= 8.42D-06
 ErrMax= 8.42D-06  0.00D+00 EMaxC= 1.00D+00 BMatC= 6.61D-09 BMatP= 1.51D-08
 IDIUse=1 WtCom= 1.00D+00 WtEn= 0.00D+00
 Coeff-Com: -0.408D-01 0.119D+00 0.328D+00-0.243D+00-0.504D+00-0.194D+00
 Coeff-Com:  0.599D+00 0.935D+00
 Coeff:     -0.408D-01 0.119D+00 0.328D+00-0.243D+00-0.504D+00-0.194D+00
 Coeff:      0.599D+00 0.935D+00
 Gap=     0.127 Goal=   None    Shift=    0.000
 Gap=     0.218 Goal=   None    Shift=    0.000
 RMSDP=2.90D-06 MaxDP=1.81D-04 DE=-6.60D-08 OVMax= 3.54D-04

 Cycle  18  Pass 1  IDiag  1:
 E= -283.067496486481     Delta-E=       -0.000000022133 Rises=F Damp=F
 DIIS: error= 3.33D-06 at cycle   9 NSaved=   9.
 NSaved= 9 IEnMin= 9 EnMin= -283.067496486481     IErMin= 9 ErrMin= 3.33D-06
 ErrMax= 3.33D-06  0.00D+00 EMaxC= 1.00D+00 BMatC= 1.26D-09 BMatP= 6.61D-09
 IDIUse=1 WtCom= 1.00D+00 WtEn= 0.00D+00
 Coeff-Com: -0.212D-01 0.211D-01 0.927D-01-0.229D-01-0.132D+00-0.973D-01
 Coeff-Com: -0.689D-01 0.307D+00 0.922D+00
 Coeff:     -0.212D-01 0.211D-01 0.927D-01-0.229D-01-0.132D+00-0.973D-01
 Coeff:     -0.689D-01 0.307D+00 0.922D+00
 Gap=     0.127 Goal=   None    Shift=    0.000
 Gap=     0.218 Goal=   None    Shift=    0.000
 RMSDP=9.52D-07 MaxDP=5.32D-05 DE=-2.21D-08 OVMax= 1.25D-04

 Cycle  19  Pass 1  IDiag  1:
 E= -283.067496489535     Delta-E=       -0.000000003054 Rises=F Damp=F
 DIIS: error= 2.10D-06 at cycle  10 NSaved=  10.
 NSaved=10 IEnMin=10 EnMin= -283.067496489535     IErMin=10 ErrMin= 2.10D-06
 ErrMax= 2.10D-06  0.00D+00 EMaxC= 1.00D+00 BMatC= 5.37D-10 BMatP= 1.26D-09
 IDIUse=1 WtCom= 1.00D+00 WtEn= 0.00D+00
 Coeff-Com:  0.284D-02-0.304D-01-0.601D-01 0.738D-01 0.940D-01 0.780D-02
 Coeff-Com: -0.229D+00-0.106D+00 0.457D+00 0.790D+00
 Coeff:      0.284D-02-0.304D-01-0.601D-01 0.738D-01 0.940D-01 0.780D-02
 Coeff:     -0.229D+00-0.106D+00 0.457D+00 0.790D+00
 Gap=     0.127 Goal=   None    Shift=    0.000
 Gap=     0.218 Goal=   None    Shift=    0.000
 RMSDP=3.31D-07 MaxDP=2.39D-05 DE=-3.05D-09 OVMax= 3.58D-05

 Cycle  20  Pass 1  IDiag  1:
 E= -283.067496490113     Delta-E=       -0.000000000578 Rises=F Damp=F
 DIIS: error= 1.27D-06 at cycle  11 NSaved=  11.
 NSaved=11 IEnMin=11 EnMin= -283.067496490113     IErMin=11 ErrMin= 1.27D-06
 ErrMax= 1.27D-06  0.00D+00 EMaxC= 1.00D+00 BMatC= 1.60D-10 BMatP= 5.37D-10
 IDIUse=1 WtCom= 1.00D+00 WtEn= 0.00D+00
 Coeff-Com:  0.760D-02-0.209D-01-0.576D-01 0.438D-01 0.857D-01 0.362D-01
 Coeff-Com: -0.857D-01-0.147D+00-0.121D+00 0.415D+00 0.844D+00
 Coeff:      0.760D-02-0.209D-01-0.576D-01 0.438D-01 0.857D-01 0.362D-01
 Coeff:     -0.857D-01-0.147D+00-0.121D+00 0.415D+00 0.844D+00
 Gap=     0.127 Goal=   None    Shift=    0.000
 Gap=     0.218 Goal=   None    Shift=    0.000
 RMSDP=1.64D-07 MaxDP=8.66D-06 DE=-5.78D-10 OVMax= 1.60D-05

 Cycle  21  Pass 1  IDiag  1:
 E= -283.067496490294     Delta-E=       -0.000000000181 Rises=F Damp=F
 DIIS: error= 7.23D-07 at cycle  12 NSaved=  12.
 NSaved=12 IEnMin=12 EnMin= -283.067496490294     IErMin=12 ErrMin= 7.23D-07
 ErrMax= 7.23D-07  0.00D+00 EMaxC= 1.00D+00 BMatC= 4.81D-11 BMatP= 1.60D-10
 IDIUse=1 WtCom= 1.00D+00 WtEn= 0.00D+00
 Coeff-Com:  0.388D-02-0.622D-02-0.218D-01 0.120D-01 0.299D-01 0.178D-01
 Coeff-Com: -0.287D-02-0.541D-01-0.167D+00 0.499D-01 0.453D+00 0.685D+00
 Coeff:      0.388D-02-0.622D-02-0.218D-01 0.120D-01 0.299D-01 0.178D-01
 Coeff:     -0.287D-02-0.541D-01-0.167D+00 0.499D-01 0.453D+00 0.685D+00
 Gap=     0.127 Goal=   None    Shift=    0.000
 Gap=     0.218 Goal=   None    Shift=    0.000
 RMSDP=4.71D-08 MaxDP=1.79D-06 DE=-1.81D-10 OVMax= 6.70D-06

 Cycle  22  Pass 1  IDiag  1:
 E= -283.067496490333     Delta-E=       -0.000000000039 Rises=F Damp=F
 DIIS: error= 2.35D-07 at cycle  13 NSaved=  13.
 NSaved=13 IEnMin=13 EnMin= -283.067496490333     IErMin=13 ErrMin= 2.35D-07
 ErrMax= 2.35D-07  0.00D+00 EMaxC= 1.00D+00 BMatC= 6.36D-12 BMatP= 4.81D-11
 IDIUse=1 WtCom= 1.00D+00 WtEn= 0.00D+00
 Coeff-Com: -0.196D-02 0.559D-02 0.163D-01-0.114D-01-0.252D-01-0.126D-01
 Coeff-Com:  0.252D-01 0.435D-01 0.362D-01-0.128D+00-0.235D+00 0.373D-01
 Coeff-Com:  0.125D+01
 Coeff:     -0.196D-02 0.559D-02 0.163D-01-0.114D-01-0.252D-01-0.126D-01
 Coeff:      0.252D-01 0.435D-01 0.362D-01-0.128D+00-0.235D+00 0.373D-01
 Coeff:      0.125D+01
 Gap=     0.127 Goal=   None    Shift=    0.000
 Gap=     0.218 Goal=   None    Shift=    0.000
 RMSDP=4.54D-08 MaxDP=2.51D-06 DE=-3.91D-11 OVMax= 4.89D-06

 Cycle  23  Pass 1  IDiag  1:
 E= -283.067496490347     Delta-E=       -0.000000000013 Rises=F Damp=F
 DIIS: error= 1.20D-07 at cycle  14 NSaved=  14.
 NSaved=14 IEnMin=14 EnMin= -283.067496490347     IErMin=14 ErrMin= 1.20D-07
 ErrMax= 1.20D-07  0.00D+00 EMaxC= 1.00D+00 BMatC= 1.29D-12 BMatP= 6.36D-12
 IDIUse=1 WtCom= 1.00D+00 WtEn= 0.00D+00
 Coeff-Com: -0.351D-03-0.366D-03 0.102D-02 0.961D-03-0.154D-02-0.247D-02
 Coeff-Com: -0.357D-02 0.285D-02 0.338D-01-0.312D-02-0.503D-01-0.149D+00
 Coeff-Com: -0.559D-01 0.123D+01
 Coeff:     -0.351D-03-0.366D-03 0.102D-02 0.961D-03-0.154D-02-0.247D-02
 Coeff:     -0.357D-02 0.285D-02 0.338D-01-0.312D-02-0.503D-01-0.149D+00
 Coeff:     -0.559D-01 0.123D+01
 Gap=     0.127 Goal=   None    Shift=    0.000
 Gap=     0.218 Goal=   None    Shift=    0.000
 RMSDP=2.18D-08 MaxDP=1.31D-06 DE=-1.32D-11 OVMax= 2.50D-06

 Cycle  24  Pass 1  IDiag  1:
 E= -283.067496490346     Delta-E=        0.000000000001 Rises=F Damp=F
 DIIS: error= 2.89D-08 at cycle  15 NSaved=  15.
 NSaved=15 IEnMin=14 EnMin= -283.067496490347     IErMin=15 ErrMin= 2.89D-08
 ErrMax= 2.89D-08  0.00D+00 EMaxC= 1.00D+00 BMatC= 1.54D-13 BMatP= 1.29D-12
 IDIUse=1 WtCom= 1.00D+00 WtEn= 0.00D+00
 Coeff-Com:  0.287D-03-0.112D-02-0.276D-02 0.229D-02 0.418D-02 0.224D-02
 Coeff-Com: -0.534D-02-0.695D-02-0.341D-02 0.220D-01 0.407D-01-0.241D-01
 Coeff-Com: -0.218D+00 0.208D-02 0.119D+01
 Coeff:      0.287D-03-0.112D-02-0.276D-02 0.229D-02 0.418D-02 0.224D-02
 Coeff:     -0.534D-02-0.695D-02-0.341D-02 0.220D-01 0.407D-01-0.241D-01
 Coeff:     -0.218D+00 0.208D-02 0.119D+01
 Gap=     0.127 Goal=   None    Shift=    0.000
 Gap=     0.218 Goal=   None    Shift=    0.000
 RMSDP=7.70D-09 MaxDP=3.68D-07 DE= 6.82D-13 OVMax= 1.03D-06

 SCF Done:  E(UM062X) =  -283.067496490     A.U. after   24 cycles
            NFock= 24  Conv=0.77D-08     -V/T= 2.0052
 <Sx>= 0.0000 <Sy>= 0.0000 <Sz>= 0.5000 <S**2>= 0.7947 S= 0.5221
 <L.S>= 0.000000000000E+00
 KE= 2.816015317466D+02 PE=-1.004693428567D+03 EE= 2.659347721867D+02
 Annihilation of the first spin contaminant:
 S**2 before annihilation     0.7947,   after     0.7512
 Leave Link  502 at Mon Oct 12 17:22:15 2020, MaxMem=  1073741824 cpu:             432.7 elap:              34.3
 (Enter /home/spantaleone/g16/l508.exe)
 QCSCF skips out because SCF is already converged.
 Leave Link  508 at Mon Oct 12 17:22:16 2020, MaxMem=  1073741824 cpu:               0.0 elap:               0.0
 (Enter /home/spantaleone/g16/l701.exe)
[...]
 DD1Dir:  Pass   3 NRAB=    28 NRAA=     0 NRBB=     0 NR=    56.
 DD1Dir:  Pass   4 NRAB=    28 NRAA=     0 NRBB=     0 NR=    56.
 DD1Dir:  Pass   5 NRAB=    28 NRAA=     0 NRBB=     0 NR=    56.
 DD1Dir:  Pass   6 NRAB=    28 NRAA=     0 NRBB=     0 NR=    56.
 DD1Dir:  Pass   7 NRAB=    28 NRAA=     0 NRBB=     0 NR=    56.
 DD1Dir:  Pass   8 NRAB=    14 NRAA=    28 NRBB=     0 NR=    56.
 DD1Dir:  Pass   9 NRAB=     0 NRAA=    56 NRBB=     0 NR=    56.
 DD1Dir:  Pass  10 NRAB=     0 NRAA=    21 NRBB=    35 NR=    56.
 DD1Dir:  Pass  11 NRAB=     0 NRAA=     0 NRBB=    56 NR=    56.
 A-vector RMS=  1.9533117D-07 Max=  4.4348791D-06 conv= 1.00D-05.
 RLE energy=       -1.0517339601
 DE(Corr)=  -1.0517337     E(CORR)=     -282.51097335     Delta=-1.22D-07
 NORM(A)=   0.12334445D+01
 Iteration Nr.  21
 **********************
 DD1Dir will call FoFJK  11 times, MxPair=        56
 NAB=   210 NAA=   105 NBB=    91 NumPrc= 24.
 DD1Dir:  Pass   1 NRAB=    28 NRAA=     0 NRBB=     0 NR=    56.
 DD1Dir:  Pass   2 NRAB=    28 NRAA=     0 NRBB=     0 NR=    56.
 DD1Dir:  Pass   3 NRAB=    28 NRAA=     0 NRBB=     0 NR=    56.
 DD1Dir:  Pass   4 NRAB=    28 NRAA=     0 NRBB=     0 NR=    56.
 DD1Dir:  Pass   5 NRAB=    28 NRAA=     0 NRBB=     0 NR=    56.
 DD1Dir:  Pass   6 NRAB=    28 NRAA=     0 NRBB=     0 NR=    56.
 DD1Dir:  Pass   7 NRAB=    28 NRAA=     0 NRBB=     0 NR=    56.
 DD1Dir:  Pass   8 NRAB=    14 NRAA=    28 NRBB=     0 NR=    56.
 DD1Dir:  Pass   9 NRAB=     0 NRAA=    56 NRBB=     0 NR=    56.
 DD1Dir:  Pass  10 NRAB=     0 NRAA=    21 NRBB=    35 NR=    56.
 DD1Dir:  Pass  11 NRAB=     0 NRAA=     0 NRBB=    56 NR=    56.
 A-vector RMS=  1.6906353D-07 Max=  3.4264694D-06 conv= 1.00D-05.
 RLE energy=       -1.0517343239
 DE(Corr)=  -1.0517343     E(CORR)=     -282.51097394     Delta=-5.87D-07
 NORM(A)=   0.12334460D+01
 Iteration Nr.  22
 **********************
 DD1Dir will call FoFJK  11 times, MxPair=        56
 NAB=   210 NAA=   105 NBB=    91 NumPrc= 24.
 DD1Dir:  Pass   1 NRAB=    28 NRAA=     0 NRBB=     0 NR=    56.
 DD1Dir:  Pass   2 NRAB=    28 NRAA=     0 NRBB=     0 NR=    56.
 DD1Dir:  Pass   3 NRAB=    28 NRAA=     0 NRBB=     0 NR=    56.
 DD1Dir:  Pass   4 NRAB=    28 NRAA=     0 NRBB=     0 NR=    56.
 DD1Dir:  Pass   5 NRAB=    28 NRAA=     0 NRBB=     0 NR=    56.
 DD1Dir:  Pass   6 NRAB=    28 NRAA=     0 NRBB=     0 NR=    56.
 DD1Dir:  Pass   7 NRAB=    28 NRAA=     0 NRBB=     0 NR=    56.
 DD1Dir:  Pass   8 NRAB=    14 NRAA=    28 NRBB=     0 NR=    56.
 DD1Dir:  Pass   9 NRAB=     0 NRAA=    56 NRBB=     0 NR=    56.
 DD1Dir:  Pass  10 NRAB=     0 NRAA=    21 NRBB=    35 NR=    56.
 DD1Dir:  Pass  11 NRAB=     0 NRAA=     0 NRBB=    56 NR=    56.
 A-vector RMS=  1.1931523D-07 Max=  2.7524410D-06 conv= 1.00D-05.
 RLE energy=       -1.0517345439
 DE(Corr)=  -1.0517344     E(CORR)=     -282.51097403     Delta=-9.19D-08
 NORM(A)=   0.12334471D+01
 CI/CC converged in   22 iterations to DelEn=-9.19D-08 Conv= 1.00D-07 ErrA1= 1.19D-07 Conv= 1.00D-05
 Wavefunction amplitudes converged. E(Corr)=     -282.51097403    
 Dominant configurations:
 ***********************
 Spin Case        I    J    A    B          Value
    BB           21        23           -0.232294D+00
 Largest amplitude= 2.32D-01
 Time for triples=    79148.88 seconds.
 T4(CCSD)= -0.75076567D-01
 T5(CCSD)=  0.35125628D-02
 CCSD(T)= -0.28258253803D+03
 Discarding MO integrals.
 Leave Link  913 at Mon Oct 12 19:54:10 2020, MaxMem=  1073741824 cpu:          203045.6 elap:            8480.6
 (Enter /home/spantaleone/g16/l601.exe)
 Copying SCF densities to generalized density rwf, IOpCl= 0 IROHF=1.

 **********************************************************************

            Population analysis using the SCF Density.

 **********************************************************************

 Orbital symmetries:
       Occupied  (A) (A) (A) (A) (A) (A) (A) (A) (A) (A) (A) (A)
                 (A) (A) (A) (A) (A) (A) (A) (A) (A) (A)
       Virtual   (A) (A) (A) (A) (A) (A) (A) (A) (A) (A) (A) (A)
                 (A) (A) (A) (A) (A) (A) (A) (A) (A) (A) (A) (A)
                 (A) (A) (A) (A) (A) (A) (A) (A) (A) (A) (A) (A)
                 (A) (A) (A) (A) (A) (A) (A) (A) (A) (A) (A) (A)
                 (A) (A) (A) (A) (A) (A) (A) (A) (A) (A) (A) (A)
                 (A) (A) (A) (A) (A) (A) (A) (A) (A) (A) (A) (A)
                 (A) (A) (A) (A) (A) (A) (A) (A) (A) (A) (A) (A)
                 (A) (A) (A) (A) (A) (A) (A) (A) (A) (A) (A) (A)
                 (A) (A) (A) (A) (A) (A) (A) (A) (A) (A) (A) (A)
                 (A) (A) (A) (A) (A) (A) (A) (A) (A) (A) (A) (A)
                 (A) (A) (A) (A) (A) (A) (A) (A) (A) (A) (A) (A)
                 (A) (A) (A) (A) (A) (A) (A) (A) (A) (A) (A) (A)
                 (A) (A) (A) (A) (A) (A) (A) (A) (A) (A) (A) (A)
                 (A) (A) (A) (A) (A) (A) (A) (A) (A) (A) (A) (A)
                 (A) (A) (A) (A) (A) (A) (A) (A) (A) (A) (A) (A)
                 (A) (A) (A) (A) (A) (A) (A) (A) (A) (A) (A) (A)
                 (A) (A) (A) (A) (A) (A) (A) (A) (A) (A) (A) (A)
                 (A) (A) (A) (A) (A) (A) (A) (A) (A) (A) (A) (A)
                 (A) (A) (A) (A) (A) (A) (A) (A) (A) (A) (A) (A)
                 (A) (A) (A) (A) (A) (A) (A) (A) (A) (A) (A) (A)
                 (A) (A) (A) (A) (A) (A) (A) (A) (A) (A) (A) (A)
                 (A) (A) (A) (A) (A) (A) (A) (A) (A) (A) (A) (A)
                 (A) (A) (A) (A) (A) (A) (A) (A) (A) (A) (A) (A)
                 (A) (A) (A) (A) (A) (A) (A) (A) (A) (A) (A) (A)
                 (A) (A) (A) (A) (A) (A) (A) (A) (A) (A) (A)
 The electronic state is 2-A.
 Alpha  occ. eigenvalues --  -15.63179 -11.35773 -11.34803 -11.34236 -11.33990
 Alpha  occ. eigenvalues --  -11.33272 -11.30176  -1.27420  -1.17913  -1.12182
 Alpha  occ. eigenvalues --   -1.02881  -0.93371  -0.85602  -0.61297  -0.61097
 Alpha  occ. eigenvalues --   -0.58509  -0.56039  -0.52406  -0.51425  -0.47570
 Alpha  occ. eigenvalues --   -0.42951  -0.34720
 Alpha virt. eigenvalues --   -0.05702   0.03997   0.04902   0.05123   0.06382
 Alpha virt. eigenvalues --    0.06468   0.06724   0.07391   0.08436   0.08728
 Alpha virt. eigenvalues --    0.09261   0.11033   0.11846   0.12612   0.13853
 Alpha virt. eigenvalues --    0.14081   0.15371   0.17678   0.18796   0.19366
 Alpha virt. eigenvalues --    0.19527   0.21381   0.21440   0.22318   0.22446
 Alpha virt. eigenvalues --    0.22475   0.23165   0.23509   0.25072   0.25624
 Alpha virt. eigenvalues --    0.26058   0.26116   0.26381   0.26441   0.26586
 Alpha virt. eigenvalues --    0.31505   0.32215   0.32558   0.32582   0.32997
 Alpha virt. eigenvalues --    0.34127   0.35138   0.35690   0.35708   0.38496
 Alpha virt. eigenvalues --    0.39765   0.39813   0.40499   0.40521   0.41341
 Alpha virt. eigenvalues --    0.42087   0.43637   0.44207   0.46687   0.47035
 Alpha virt. eigenvalues --    0.49885   0.51154   0.51170   0.51542   0.53405
 Alpha virt. eigenvalues --    0.53534   0.54295   0.56886   0.56897   0.59625
 Alpha virt. eigenvalues --    0.62817   0.62818   0.62974   0.66783   0.68134
 Alpha virt. eigenvalues --    0.68224   0.70918   0.73423   0.73423   0.76380
 Alpha virt. eigenvalues --    0.76647   0.78040   0.81032   0.81601   0.83355
 Alpha virt. eigenvalues --    0.83357   0.85062   0.85066   0.86367   0.86623
 Alpha virt. eigenvalues --    0.86728   0.87635   0.87796   0.89917   0.92044
 Alpha virt. eigenvalues --    0.92616   0.92737   0.92749   0.92904   0.93400
 Alpha virt. eigenvalues --    0.93405   0.97783   0.97849   0.97890   0.97892
 Alpha virt. eigenvalues --    1.02235   1.03667   1.03698   1.05750   1.05750
 Alpha virt. eigenvalues --    1.06781   1.11398   1.11399   1.14587   1.15954
 Alpha virt. eigenvalues --    1.15958   1.17402   1.17413   1.17414   1.18555
 Alpha virt. eigenvalues --    1.19008   1.22781   1.23409   1.25633   1.27250
 Alpha virt. eigenvalues --    1.30165   1.30169   1.32670   1.33135   1.33135
 Alpha virt. eigenvalues --    1.35954   1.35964   1.37635   1.37812   1.39747
 Alpha virt. eigenvalues --    1.42462   1.45025   1.53796   1.54155   1.54157
 Alpha virt. eigenvalues --    1.55013   1.55016   1.55746   1.55776   1.57916
 Alpha virt. eigenvalues --    1.60612   1.62638   1.63060   1.68334   1.68417
 Alpha virt. eigenvalues --    1.72268   1.72270   1.74306   1.74306   1.76968
 Alpha virt. eigenvalues --    1.77107   1.83568   1.83704   1.83790   1.83958
 Alpha virt. eigenvalues --    1.84654   1.89121   1.89121   1.99595   2.04863
 Alpha virt. eigenvalues --    2.05697   2.05929   2.08608   2.08611   2.12930
 Alpha virt. eigenvalues --    2.13048   2.16708   2.16713   2.21038   2.21039
 Alpha virt. eigenvalues --    2.29608   2.33160   2.33164   2.37277   2.37467
 Alpha virt. eigenvalues --    2.44216   2.45693   2.45912   2.53903   2.54407
 Alpha virt. eigenvalues --    2.55308   2.61797   2.65886   2.73215   2.73358
 Alpha virt. eigenvalues --    2.78285   2.94384   3.05369   3.05840   3.09326
 Alpha virt. eigenvalues --    3.09741   3.14252   3.14254   3.19154   3.19173
 Alpha virt. eigenvalues --    3.20114   3.20160   3.20424   3.21578   3.21660
 Alpha virt. eigenvalues --    3.23050   3.23053   3.26730   3.27623   3.27624
 Alpha virt. eigenvalues --    3.29554   3.29717   3.31568   3.31595   3.37221
 Alpha virt. eigenvalues --    3.38703   3.38703   3.42289   3.45072   3.45185
 Alpha virt. eigenvalues --    3.46821   3.48607   3.48608   3.50676   3.50712
 Alpha virt. eigenvalues --    3.52139   3.52162   3.56246   3.62209   3.62212
 Alpha virt. eigenvalues --    3.63874   3.64803   3.64804   3.70534   3.70540
 Alpha virt. eigenvalues --    3.71349   3.71582   3.76222   3.76274   3.77002
 Alpha virt. eigenvalues --    3.79379   3.79381   3.82844   3.82873   3.86112
 Alpha virt. eigenvalues --    3.86471   3.92059   3.93461   3.93464   3.99869
 Alpha virt. eigenvalues --    3.99869   4.05254   4.05571   4.10223   4.16629
 Alpha virt. eigenvalues --    4.16829   4.21067   4.24345   4.24351   4.39592
 Alpha virt. eigenvalues --    4.40027   4.40104   4.42460   4.42988   4.52266
 Alpha virt. eigenvalues --    4.67159   4.67554   4.72374   4.76176   4.76190
 Alpha virt. eigenvalues --    4.84491   4.95903   4.95903   5.01825   5.02319
 Alpha virt. eigenvalues --    5.25648   5.32231   5.32233   5.45021   5.45477
 Alpha virt. eigenvalues --    5.59824   5.59824   5.61882   5.73549   5.74008
 Alpha virt. eigenvalues --    6.01390   6.08871   6.09081   6.16783   6.28057
 Alpha virt. eigenvalues --    6.50146   6.68914   6.69495   6.75047   6.92664
 Alpha virt. eigenvalues --    7.42292   7.42738  12.35920  16.09699  16.36290
 Alpha virt. eigenvalues --   17.23172  19.77612  21.72675  22.72690
          Condensed to atoms (all electrons):
               1          2          3          4          5          6
     1  C    9.015265  -2.167975  -0.264175   0.228903   0.003835  -0.003792
     2  C   -2.167975  10.845469  -5.425286   2.256771  -0.568980   0.091439
     3  C   -0.264175  -5.425286  15.724910  -5.222090   1.591130  -0.216659
     4  C    0.228903   2.256771  -5.222090  10.411144  -3.503307   0.201222
     5  C    0.003835  -0.568980   1.591130  -3.503307   9.404892   0.044643
     6  N   -0.003792   0.091439  -0.216659   0.201222   0.044643   7.290163
     7  C   -0.290378  -0.487049   0.243993  -0.089308   0.026017  -0.001233
               7
     1  C   -0.290378
     2  C   -0.487049
     3  C    0.243993
     4  C   -0.089308
     5  C    0.026017
     6  N   -0.001233
     7  C    7.412708
          Atomic-Atomic Spin Densities.
               1          2          3          4          5          6
     1  C    0.118305  -0.180614   0.024892  -0.001358   0.000364  -0.000181
     2  C   -0.180614   0.523746  -0.057611  -0.003190  -0.001014   0.001021
     3  C    0.024892  -0.057611   0.027059  -0.000996   0.001312  -0.001675
     4  C   -0.001358  -0.003190  -0.000996   0.073803  -0.007507  -0.001401
     5  C    0.000364  -0.001014   0.001312  -0.007507   0.004586   0.001133
     6  N   -0.000181   0.001021  -0.001675  -0.001401   0.001133   0.011448
     7  C    0.112045  -0.113758   0.013078  -0.001546   0.000065  -0.000004
               7
     1  C    0.112045
     2  C   -0.113758
     3  C    0.013078
     4  C   -0.001546
     5  C    0.000065
     6  N   -0.000004
     7  C    0.674941
 Mulliken charges and spin densities:
               1          2
     1  C   -0.521683   0.073454
     2  C    1.455611   0.168579
     3  C   -0.431825   0.006059
     4  C    1.716664   0.057805
     5  C   -0.998232  -0.001060
     6  N   -0.405784   0.010341
     7  C   -0.814751   0.684822
 Sum of Mulliken charges =  -0.00000   1.00000
 Mulliken charges and spin densities with hydrogens summed into heavy atoms:
               1          2
     1  C   -0.521683   0.073454
     2  C    1.455611   0.168579
     3  C   -0.431825   0.006059
     4  C    1.716664   0.057805
     5  C   -0.998232  -0.001060
     6  N   -0.405784   0.010341
     7  C   -0.814751   0.684822
 Electronic spatial extent (au):  <R**2>=           1133.2814
 Charge=             -0.0000 electrons
 Dipole moment (field-independent basis, Debye):
    X=             -0.3197    Y=             -0.1278    Z=              0.0000  Tot=              0.3443
 Quadrupole moment (field-independent basis, Debye-Ang):
   XX=            -64.0181   YY=            -39.6006   ZZ=            -38.0060
   XY=              0.0146   XZ=             -0.0000   YZ=             -0.0000
 Traceless Quadrupole moment (field-independent basis, Debye-Ang):
   XX=            -16.8099   YY=              7.6077   ZZ=              9.2022
   XY=              0.0146   XZ=             -0.0000   YZ=             -0.0000
 Octapole moment (field-independent basis, Debye-Ang**2):
  XXX=             28.1827  YYY=              0.0307  ZZZ=              0.0000  XYY=              6.5559
  XXY=             -2.5099  XXZ=              0.0000  XZZ=              4.3345  YZZ=              0.0227
  YYZ=              0.0000  XYZ=              0.0000
 Hexadecapole moment (field-independent basis, Debye-Ang**3):
 XXXX=          -2283.6230 YYYY=            -44.8601 ZZZZ=            -41.9480 XXXY=              3.9165
 XXXZ=             -0.0000 YYYX=              0.9098 YYYZ=             -0.0000 ZZZX=             -0.0000
 ZZZY=             -0.0000 XXYY=           -285.2349 XXZZ=           -269.3798 YYZZ=            -14.4586
 XXYZ=             -0.0000 YYXZ=             -0.0000 ZZXY=              0.1639
 N-N= 1.733327484336D+02 E-N=-1.001912415930D+03  KE= 2.811091652894D+02
                          Isotropic Fermi Contact Couplings
        Atom                 a.u.       MegaHertz       Gauss      10(-4) cm-1
     1  C(13)              0.00001       0.01081       0.00386       0.00360
     2  C(13)              0.00002       0.02786       0.00994       0.00929
     3  C(13)              0.00001       0.00585       0.00209       0.00195
     4  C(13)              0.00000       0.00406       0.00145       0.00136
     5  C(13)              0.00000       0.00377       0.00134       0.00126
     6  N(14)              0.00000       0.00016       0.00006       0.00005
     7  C(13)              0.00000       0.00052       0.00019       0.00017
 --------------------------------------------------------
       Center         ----  Spin Dipole Couplings  ----
                      3XX-RR        3YY-RR        3ZZ-RR
 --------------------------------------------------------
     1   Atom        0.020417      0.063131     -0.083548
     2   Atom       -0.107813      0.240911     -0.133098
     3   Atom        0.017045      0.002175     -0.019221
     4   Atom       -0.028244      0.065419     -0.037175
     5   Atom        0.006163     -0.001568     -0.004595
     6   Atom       -0.010603      0.024257     -0.013654
     7   Atom       -0.379938      0.788187     -0.408249
 --------------------------------------------------------
                        XY            XZ            YZ
 --------------------------------------------------------
     1   Atom        0.000004      0.000000      0.000000
     2   Atom        0.006109      0.000000      0.000000
     3   Atom       -0.000907     -0.000000      0.000000
     4   Atom       -0.002246     -0.000000      0.000000
     5   Atom        0.000099      0.000000      0.000000
     6   Atom       -0.001543     -0.000000      0.000000
     7   Atom        0.049716      0.000000      0.000000
 --------------------------------------------------------


 ---------------------------------------------------------------------------------
              Anisotropic Spin Dipole Couplings in Principal Axis System
 ---------------------------------------------------------------------------------

       Atom             a.u.   MegaHertz   Gauss  10(-4) cm-1        Axes

              Baa    -0.0835   -11.211    -4.000    -3.740 -0.0000 -0.0000  1.0000
     1 C(13)  Bbb     0.0204     2.740     0.978     0.914  1.0000 -0.0001  0.0000
              Bcc     0.0631     8.472     3.023     2.826  0.0001  1.0000  0.0000
 
              Baa    -0.1331   -17.860    -6.373    -5.958 -0.0000 -0.0000  1.0000
     2 C(13)  Bbb    -0.1079   -14.482    -5.167    -4.831  0.9998 -0.0175  0.0000
              Bcc     0.2410    32.342    11.541    10.788  0.0175  0.9998  0.0000
 
              Baa    -0.0192    -2.579    -0.920    -0.860  0.0000 -0.0000  1.0000
     3 C(13)  Bbb     0.0021     0.285     0.102     0.095  0.0607  0.9982  0.0000
              Bcc     0.0171     2.295     0.819     0.765  0.9982 -0.0607 -0.0000
 
              Baa    -0.0372    -4.989    -1.780    -1.664  0.0000 -0.0000  1.0000
     4 C(13)  Bbb    -0.0283    -3.797    -1.355    -1.267  0.9997  0.0240 -0.0000
              Bcc     0.0655     8.786     3.135     2.931 -0.0240  0.9997  0.0000
 
              Baa    -0.0046    -0.617    -0.220    -0.206 -0.0000 -0.0000  1.0000
     5 C(13)  Bbb    -0.0016    -0.211    -0.075    -0.070 -0.0127  0.9999  0.0000
              Bcc     0.0062     0.827     0.295     0.276  0.9999  0.0127  0.0000
 
              Baa    -0.0137    -0.527    -0.188    -0.176 -0.0000 -0.0000  1.0000
     6 N(14)  Bbb    -0.0107    -0.412    -0.147    -0.137  0.9990  0.0441  0.0000
              Bcc     0.0243     0.938     0.335     0.313 -0.0441  0.9990  0.0000
 
              Baa    -0.4082   -54.783   -19.548   -18.274 -0.0000 -0.0000  1.0000
     7 C(13)  Bbb    -0.3821   -51.267   -18.294   -17.101  0.9991 -0.0424  0.0000
              Bcc     0.7903   106.051    37.841    35.375  0.0424  0.9991  0.0000
 

 ---------------------------------------------------------------------------------

 No NMR shielding tensors so no spin-rotation constants.
 Leave Link  601 at Mon Oct 12 19:54:12 2020, MaxMem=  1073741824 cpu:              28.7 elap:               1.3
 (Enter /home/spantaleone/g16/l9999.exe)
 1\1\GINC-N1057\SP\ROCCSD(T)-FC\Aug-CC-pVTZ\C6N1(2)\SPANTALEONE\12-Oct-
 2020\0\\#P ROCCSD(T)/aug-cc-pvtz geom=allcheck guess=read\\Title\\0,2\
 C,0,-0.0096561198,0.0000000208,-0.0212116393\C,0,-0.0221538519,0.00000
 00577,1.238972446\C,0,-0.0014588986,-0.0000000061,2.5592355836\C,0,0.0
 278301832,-0.0000000186,3.7820165476\C,0,0.0973093333,-0.0000000157,5.
 1423514448\N,0,0.1624822602,0.0000000059,6.2947310018\C,0,0.0130019287
 ,-0.0000000441,-1.3290119214\\Version=ES64L-G16RevB.01\State=2-A\HF=-2
 81.4592396\MP2=-282.5070302\MP3=-282.4974835\PUHF=-281.4592396\PMP2-0=
 -282.5070302\MP4SDQ=-282.5098634\CCSD=-282.510974\CCSD(T)=-282.582538\
 RMSD=3.327e-09\PG=C01 [X(C6N1)]\\@


 THERE IS MORE TO LIFE THAN INCREASING ITS SPEED.

                                       -- GANDHI
 Job cpu time:       2 days 10 hours 49 minutes 22.5 seconds.
 Elapsed time:       0 days  2 hours 27 minutes 24.2 seconds.
 File lengths (MBytes):  RWF=  60497 Int=      0 D2E=      0 Chk=     13 Scr=      1
 Normal termination of Gaussian 16 at Mon Oct 12 19:54:20 2020.
