4
 energy: -10.116451666732 gnorm: 0.134499126754 xtb: 6.2.2 (9d81278992624c895f80dd42a50cac0aa55982e2)
O        -1.15614000000000   -0.02994500000000    0.21153700000000
C        -0.05233300000000    0.73620100000000   -0.20767500000000
C         1.22258700000000    0.03173000000000    0.20360600000000
C        -0.01411400000000   -0.73798600000000   -0.20746800000000
4
 energy: -10.145930355952 gnorm: 0.105214809271 xtb: 6.2.2 (9d81278992624c895f80dd42a50cac0aa55982e2)
O        -1.20341236731957   -0.03118940529628    0.07942501569814
C        -0.03786481229562    0.74588810463553   -0.07758874275942
C         1.24044174255473    0.03217490080259    0.07554409412179
C         0.00083543706046   -0.74687360014184   -0.07738036706051
4
 energy: -10.157206979285 gnorm: 0.026896511202 xtb: 6.2.2 (9d81278992624c895f80dd42a50cac0aa55982e2)
O        -1.17179989333912   -0.03037629544239    0.03295533938361
C        -0.02161208375183    0.74715289095543   -0.02834901475822
C         1.17628092269081    0.03050417413815    0.02353466749590
C         0.01713105440014   -0.74728076965119   -0.02814099212128
4
 energy: -10.157935352096 gnorm: 0.016940720259 xtb: 6.2.2 (9d81278992624c895f80dd42a50cac0aa55982e2)
O        -1.16710807593697   -0.03025698857284    0.01239892630438
C        -0.02324101187216    0.74777652456891   -0.00942251196844
C         1.17481120752768    0.03046332137737    0.00623821851966
C         0.01553788028145   -0.74798285737344   -0.00921463285559
4
 energy: -10.158142147082 gnorm: 0.002855934881 xtb: 6.2.2 (9d81278992624c895f80dd42a50cac0aa55982e2)
O        -1.16125582625658   -0.03010542084537    0.00154248505246
C        -0.02675632319276    0.74673844490991   -0.00031710173034
C         1.17603581274084    0.03049358302628   -0.00111528535323
C         0.01197633670850   -0.74712660709081   -0.00011009796889
4
 energy: -10.158146959428 gnorm: 0.000715609669 xtb: 6.2.2 (9d81278992624c895f80dd42a50cac0aa55982e2)
O        -1.16086420324315   -0.03009529885414    0.00100788471904
C        -0.02733452637920    0.74605527715724   -0.00000688900677
C         1.17683464969793    0.03051398626467   -0.00120106087066
C         0.01136407992442   -0.74647396456777    0.00020006515839
