[Molden Format]
[Title]
[Atoms] AU
O      1     8 -0.21937154995670E+01 -0.56860377605526E-01  0.19123826782441E-02
C      2     6 -0.51647381958465E-01  0.14098402872737E+01 -0.15298660738373E-04
C      3     6  0.22238952695223E+01  0.57651423411817E-01 -0.22775393929127E-02
C      4     6  0.21467612003146E-01 -0.14106313330800E+01  0.38045537540741E-03
[GTO]
           1 0
 s           4   1.0000000000000000     
   69.137961906196551      -0.20478756370077797     
   11.906129132707308      -0.24997023136827334     
  0.95670827744340703       0.40025880240639616     
  0.36462520496073686       0.15952206667693555     
 p           4   1.0000000000000000     
   8.2124193257781641        1.1321556799186829     
   2.1293576997098116        1.0476840782254817     
  0.75066448202360914       0.54956508217158984     
  0.29885246543283073        8.2908486592766617E-002

           2 0
 s           4   1.0000000000000000     
   51.049363095579913      -0.16312063210127389     
   8.7911227406887544      -0.19911024581000730     
  0.70640422258929825       0.31882047753655751     
  0.26922813413411617       0.12706504184240380     
 p           4   1.0000000000000000     
   5.8263656140800002       0.73716451545209605     
   1.5106896018720002       0.68216371614850257     
  0.53256483288000001       0.35783053929253711     
  0.21202323690600003        5.3983030275847881E-002

           3 0
 s           4   1.0000000000000000     
   51.049363095579913      -0.16312063210127389     
   8.7911227406887544      -0.19911024581000730     
  0.70640422258929825       0.31882047753655751     
  0.26922813413411617       0.12706504184240380     
 p           4   1.0000000000000000     
   5.8263656140800002       0.73716451545209605     
   1.5106896018720002       0.68216371614850257     
  0.53256483288000001       0.35783053929253711     
  0.21202323690600003        5.3983030275847881E-002

           4 0
 s           4   1.0000000000000000     
   51.049363095579913      -0.16312063210127389     
   8.7911227406887544      -0.19911024581000730     
  0.70640422258929825       0.31882047753655751     
  0.26922813413411617       0.12706504184240380     
 p           4   1.0000000000000000     
   5.8263656140800002       0.73716451545209605     
   1.5106896018720002       0.68216371614850257     
  0.53256483288000001       0.35783053929253711     
  0.21202323690600003        5.3983030275847881E-002

[MO]
Sym=     1a
Ene=  -0.81308988513146929     
Spin= Alpha
Occup=     2.00000000
           1 -0.55998357702703194     
           2 -0.22206834783630375     
           3  -5.7571699198329862E-003
           4   1.7241359951660517E-004
           5 -0.25015362635980620     
           6   9.7883811877120780E-002
           7  0.14209629201963972     
           8  -9.6889046165482678E-005
           9  -7.5752370618854356E-002
          10   4.9706035809806044E-002
          11   1.2885044647245368E-003
          12  -5.1653354040588318E-005
          13 -0.25015047285413500     
          14  0.10511197314356104     
          15 -0.13683334756179791     
          16  -5.7744847050163065E-005
Sym=     2a
Ene=  -0.72829344597599965     
Spin= Alpha
Occup=     2.00000000
           1 -0.53067138021119431     
           2  0.20485049559667290     
           3   5.3066467783954062E-003
           4  -1.9590635180045105E-004
           5  0.22949499705674609     
           6  0.21397705063667735     
           7  -9.5347628318233388E-002
           8  -1.8967207431216642E-004
           9  0.34301183294317811     
          10 -0.12102827145108845     
          11  -3.1371533785525658E-003
          12   1.3815742510740571E-004
          13  0.22949675909469247     
          14  0.20874456371251982     
          15  0.10630455267468565     
          16  -2.1796785009987478E-004
Sym=     3a
Ene=  -0.67393980608816384     
Spin= Alpha
Occup=     2.00000000
           1   6.2851658863152137E-006
           2   1.6711718831678501E-002
           3 -0.64486696360487439     
           4   9.0492654966032880E-005
           5 -0.35609955640463919     
           6  0.18537225047363765     
           7 -0.11204702010772703     
           8  -1.2312517144247206E-004
           9  -1.2024436308924269E-006
          10   1.7669839488448531E-003
          11  -6.8139973447223307E-002
          12   9.5621381385317473E-006
          13  0.35609659172547137     
          14 -0.17931970349652923     
          15 -0.12149548864779054     
          16   1.5590053480882949E-004
Sym=     4a
Ene=  -0.63345496484670338     
Spin= Alpha
Occup=     2.00000000
           1   4.6165774778572020E-004
           2  -1.0696062220447511E-003
           3  -1.2118651292235535E-004
           4 -0.66605707777846823     
           5  -6.6198839329123380E-005
           6  -1.3932736918072046E-004
           7  -7.2045914225150664E-006
           8 -0.37987577716734400     
           9   3.6841800755473122E-004
          10  -1.6484160979016833E-004
          11  -2.5162611247942392E-005
          12 -0.14889200777183872     
          13  -6.6191868691259649E-005
          14  -1.3675035339699465E-004
          15  -1.0654385198817511E-004
          16 -0.37986986018259428     
Sym=     5a
Ene=  -0.62540639862596925     
Spin= Alpha
Occup=     2.00000000
           1  0.49639894210594648     
           2 -0.62107297885031076     
           3  -1.6097537890018304E-002
           4   1.1092300021844225E-003
           5  -2.7655509392962789E-002
           6  0.23960055706635669     
           7   4.0954496194736047E-002
           8   1.1019794309718679E-004
           9  0.40345708764691418     
          10  -7.0700196050471056E-003
          11  -1.8096345821013332E-004
          12   1.7116799141036188E-004
          13  -2.7661382336360726E-002
          14  0.24139780718785162     
          15  -2.8482560380225650E-002
          16   1.1993705819703005E-004
Sym=     6a
Ene=  -0.58113640524072008     
Spin= Alpha
Occup=     2.00000000
           1   5.2712890826857969E-007
           2  -7.5971876380521866E-003
           3  0.29295828290567161     
           4  -4.1103657985680375E-005
           5 -0.33830177151486684     
           6 -0.31401746247109530     
           7 -0.18368748839628593     
           8   3.2683869864674102E-004
           9   2.7874310000596396E-006
          10   1.1172540035992169E-002
          11 -0.43097332109797964     
          12   6.0472768553901421E-005
          13  0.33830340571415457     
          14  0.32311707217888963     
          15 -0.16717006369078449     
          16  -2.7761316532366574E-004
Sym=     7a
Ene=  -0.48555251575591007     
Spin= Alpha
Occup=     2.00000000
           1  -1.9803701200915080E-002
           2  -9.7905980649352034E-002
           3  -2.5379305993385838E-003
           4  -2.6225859366142917E-005
           5  0.46115789050216843     
           6  -2.1037268408567622E-002
           7  0.51901471089276452     
           8  -2.4667948504145783E-005
           9 -0.18905903533352045     
          10 -0.16305987884629594     
          11  -4.2249594622095705E-003
          12   2.3274486688864611E-004
          13  0.46116601096877169     
          14   5.8773989458111410E-003
          15 -0.51941021715622249     
          16   1.2104887012919452E-004
Sym=     8a
Ene=  -0.46486923829744664     
Spin= Alpha
Occup=     2.00000000
           1  -3.4762462650131811E-005
           2   7.3422146016923059E-004
           3   1.1495026557363131E-004
           4  0.68361991045039894     
           5   4.9110103850093160E-005
           6  -4.2279698922118172E-004
           7   1.8433357887335061E-004
           8 -0.32632988785419420     
           9   4.9827020806570202E-004
          10  -1.6600470236925247E-004
          11  -8.1072654581777466E-005
          12 -0.54714046303443031     
          13   4.9119057013587396E-005
          14  -4.1030198883341393E-004
          15  -2.9749746780894292E-004
          16 -0.32633180707700282     
Sym=     9a
Ene=  -0.44822852992659051     
Spin= Alpha
Occup=     2.00000000
           1   2.0771815434143787E-004
           2  0.26860601245820942     
           3   6.9609676532697649E-003
           4  -7.1786414236901797E-004
           5   1.8909601190867254E-002
           6 -0.15197840336928783     
           7  0.19977151829830719     
           8   3.5673515987450719E-004
           9  0.62759857080202053     
          10  0.64672862215022020     
          11   1.6765824587341539E-002
          12  -2.3949791341641970E-004
          13   1.8912526400133210E-002
          14 -0.14142464589793369     
          15 -0.20737839273859177     
          16   4.1387725559271637E-004
Sym=    10a
Ene=  -0.37149881524333017     
Spin= Alpha
Occup=     0.00000000
           1  -6.0988312538928333E-010
           2   1.0069687887268395E-005
           3  -3.8853274387938688E-004
           4  -3.1315037865328388E-006
           5   2.7462638589839536E-004
           6   5.6571304467095500E-004
           7   4.9442422165507877E-004
           8  0.76989542194212901     
           9  -5.0284258644244616E-010
          10   1.2904618277314312E-005
          11  -4.9740007536837447E-004
          12   3.9403774460232427E-006
          13  -2.7461977953939623E-004
          14  -5.8497911347220636E-004
          15   2.4852411071659672E-004
          16 -0.76990214591154948     
Sym=    11a
Ene=  -0.33168199869702231     
Spin= Alpha
Occup=     0.00000000
           1  -2.7006173334453622E-007
           2  -1.3308216075482921E-002
           3  0.51334694007399839     
           4  -7.2035106391968163E-005
           5 -0.26043282309780030     
           6  0.18139747699997422     
           7 -0.46664581792643239     
           8   5.8734005804438776E-004
           9   6.6320641999381058E-007
          10  -1.5410395357177021E-002
          11  0.59447564135144570     
          12  -8.3424880205837761E-005
          13  0.26042939467434961     
          14 -0.15697966034894412     
          15 -0.47540915039026460     
          16  -4.5515113692613926E-004
Sym=    12a
Ene=  -0.26026492182481337     
Spin= Alpha
Occup=     0.00000000
           1   3.8989020746877566E-005
           2   4.0300273298177550E-004
           3   6.1598346199951291E-005
           4  0.36448714498634349     
           5  -6.9095904272521190E-005
           6  -4.2049628397141525E-004
           7  -2.4511744439650962E-005
           8 -0.47936998990049334     
           9  -2.8235266824977081E-005
          10   8.3718144090483076E-004
          11   1.4282681884097078E-004
          12  0.86318803089103635     
          13  -6.9086814423356360E-005
          14  -4.1771814500265667E-004
          15  -1.3175065356224347E-004
          16 -0.47936131916931085     
Sym=    13a
Ene=    7.3245608154594355E-002
Spin= Alpha
Occup=     0.00000000
           1  0.68287474151029359     
           2  0.84777202707177635     
           3   2.1893929710043745E-002
           4  -7.0796188027039760E-004
           5 -0.44125132698550240     
           6  0.42128901934385193     
           7  0.34408000897669283     
           8  -3.1352275961391989E-004
           9   6.2534027983030219E-002
          10 -0.33612602820378795     
          11  -8.6426098421216995E-003
          12   2.3881324373783506E-004
          13 -0.44130715855175429     
          14  0.43872882522086937     
          15 -0.32187723276077707     
          16  -2.2024710542240585E-004
Sym=    14a
Ene=   0.11003876538083017     
Spin= Alpha
Occup=     0.00000000
           1  -8.5107062046556054E-005
           2   1.6253764132135088E-002
           3 -0.63112372832649477     
           4   8.8643967432089691E-005
           5  0.12816929139382985     
           6 -0.75967411178556155     
           7 -0.24766806517729179     
           8   7.5551151119100158E-004
           9  -1.9374124406275457E-005
          10  -1.7260280608421073E-002
          11  0.66790305587624421     
          12  -9.3755416048894269E-005
          13 -0.12804780944313382     
          14  0.77139558664161789     
          15 -0.20789170047604533     
          16  -6.9154579525529457E-004
Sym=    15a
Ene=   0.19916395338276316     
Spin= Alpha
Occup=     0.00000000
           1  -1.8645002890187179E-005
           2   5.2318780212841538E-003
           3 -0.20267286434037188     
           4   2.8456366556662373E-005
           5  0.73491750239128639     
           6  0.18566798403164356     
           7 -0.74612386820853582     
           8  -1.1057843004064385E-004
           9   5.9640909442485995E-006
          10   1.3909188904603098E-002
          11 -0.53657445102276347     
          12   7.5289546486380945E-005
          13 -0.73490270899155108     
          14 -0.14679320518880518     
          15 -0.75473415780392172     
          16   3.2118764877839029E-004
Sym=    16a
Ene=   0.37721081861000488     
Spin= Alpha
Occup=     0.00000000
           1 -0.23302502307405992     
           2 -0.10209111068143038     
           3  -2.6555097445064295E-003
           4   2.0859774570543841E-005
           5 -0.36394875095124357     
           6 -0.65226993801464073     
           7  0.18524269272048863     
           8   6.5887312338025450E-004
           9  0.88952884492295914     
          10 -0.94005799432330217     
          11  -2.4354284921635320E-002
          12   1.0419959045292620E-003
          13 -0.36393548500593492     
          14 -0.64176508726985926     
          15 -0.21877914605912505     
          16   7.1552964463053852E-004
