$hessian                                                                        
        0.5601061011   0.0150599029  -0.0003779285  -0.2407631421  -0.1245975460
        0.0001330480  -0.0739691072  -0.0023461877   0.0001464208  -0.2453738518
        0.1118838309   0.0000984596
        0.0150599029  -0.0202406876  -0.0000387769   0.0228851593  -0.0005000783
        0.0000074099  -0.0023508167   0.0166223598  -0.0000295555  -0.0355942454
        0.0041184061   0.0000609225
       -0.0003779285  -0.0000387769   0.0275832410   0.0001655537   0.0001174837
       -0.0272114421   0.0000879986   0.0000032735   0.0268392411   0.0001243762
       -0.0000819803  -0.0272110401
       -0.2407631421   0.0228851593   0.0001655537   0.2362354992  -0.0383903701
       -0.0002016914  -0.2614917639   0.0019530408   0.0002654825   0.2660194068
        0.0135521700  -0.0002293449
       -0.1245975460  -0.0005000783   0.0001174837  -0.0383903701   0.3953976361
       -0.0000250868   0.1431685008  -0.0176813600  -0.0001352183   0.0198194153
       -0.3772161978   0.0000428214
        0.0001330480   0.0000074099  -0.0272114421  -0.0002016914  -0.0000250868
        0.0268449154   0.0002445949  -0.0000068260  -0.0264780218  -0.0001759515
        0.0000245029   0.0268445484
       -0.0739691072  -0.0023508167   0.0000879986  -0.2614917639   0.1431685008
        0.0002445949   0.5887863910   0.0145738507  -0.0006184101  -0.2533255199
       -0.1553915347   0.0002858166
       -0.0023461877   0.0166223598   0.0000032735   0.0019530408  -0.0176813600
       -0.0000068260   0.0145738507   0.0269065034  -0.0000165054  -0.0141807037
       -0.0258475032   0.0000200579
        0.0001464208  -0.0000295555   0.0268392411   0.0002654825  -0.0001352183
       -0.0264780218  -0.0006184101  -0.0000165054   0.0261164792   0.0002065067
        0.0001812793  -0.0264776985
       -0.2453738518  -0.0355942454   0.0001243762   0.2660194068   0.0198194153
       -0.0001759515  -0.2533255199  -0.0141807037   0.0002065067   0.2326799649
        0.0299555338  -0.0001549313
        0.1118838309   0.0041184061  -0.0000819803   0.0135521700  -0.3772161978
        0.0000245029  -0.1553915347  -0.0258475032   0.0001812793   0.0299555338
        0.3989452949  -0.0001238019
        0.0000984596   0.0000609225  -0.0272110401  -0.0002293449   0.0000428214
        0.0268445484   0.0002858166   0.0000200579  -0.0264776985  -0.0001549313
       -0.0001238019   0.0268441902
