 Entering Gaussian System
 *********************************************
 Gaussian 98:
 frequency output generated by the xtb code
 *********************************************
                         Standard orientation:
 --------------------------------------------------------------------
  Center     Atomic     Atomic              Coordinates (Angstroms)
  Number     Number      Type              X           Y           Z
 --------------------------------------------------------------------
    1          6             0        1.905356   -0.012446   -0.179000
    2          6             0        0.653310   -0.004286   -0.062126
    3          7             0       -1.473141    0.009645    0.139290
    4          6             0       -0.539076    0.924227    0.026180
    5          6             0       -0.546449   -0.917139    0.075656
 --------------------------------------------------------------------
     1 basis functions        1 primitive gaussians
     1 alpha electrons        1 beta electrons

 Harmonic frequencies (cm**-1), IR intensities (KM/Mole),
 Raman scattering activities (A**4/amu), Raman depolarization ratios,
 reduced masses (AMU), force constants (mDyne/A) and normal coordinates:
                      1                      2                      3
                        a                      a                      a 
 Frequencies --   219.6774               285.5079               304.2978
 Red. masses --    12.8543                12.0875                12.0522
 Frc consts  --     0.0000                 0.0000                 0.0000
 IR Inten    --     0.0516                 0.5687                 0.2058
 Raman Activ --     0.0000                 0.0000                 0.0000
 Depolar     --     0.0000                 0.0000                 0.0000
 Atom AN      X      Y      Z        X      Y      Z        X      Y      Z
   1   6     0.04   0.01   0.40     0.00   0.20  -0.01    -0.03  -0.01  -0.34
   2   6    -0.03  -0.00  -0.27    -0.00  -0.78   0.03     0.08   0.03   0.81
   3   7     0.06   0.02   0.65     0.00   0.20  -0.00     0.01   0.00   0.14
   4   6    -0.04  -0.01  -0.41    -0.35   0.19   0.02    -0.03  -0.01  -0.31
   5   6    -0.04  -0.01  -0.41     0.35   0.18  -0.04    -0.03  -0.01  -0.31
                      4                      5                      6
                        a                      a                      a 
 Frequencies --   358.6236               623.3517               900.4931
 Red. masses --    12.1088                12.5728                12.0527
 Frc consts  --     0.0000                 0.0000                 0.0000
 IR Inten    --     0.3186                 0.4987                 0.6094
 Raman Activ --     0.0000                 0.0000                 0.0000
 Depolar     --     0.0000                 0.0000                 0.0000
 Atom AN      X      Y      Z        X      Y      Z        X      Y      Z
   1   6     0.00   0.58  -0.01     0.45  -0.00  -0.04    -0.38   0.00   0.04
   2   6    -0.00  -0.31   0.01     0.41  -0.00  -0.04    -0.30   0.00   0.03
   3   7     0.00   0.22  -0.01    -0.53   0.00   0.05    -0.14   0.00   0.01
   4   6     0.44  -0.26  -0.03    -0.15  -0.39   0.02     0.42  -0.44  -0.03
   5   6    -0.44  -0.25   0.05    -0.14   0.39   0.00     0.42   0.44  -0.05
                      7                      8                      9
                        a                      a                      a 
 Frequencies --   953.2037              1498.1206              1811.2910
 Red. masses --    12.8465                12.9146                12.0482
 Frc consts  --     0.0000                 0.0000                 0.0000
 IR Inten    --     1.6665                 0.9857                 1.1294
 Raman Activ --     0.0000                 0.0000                 0.0000
 Depolar     --     0.0000                 0.0000                 0.0000
 Atom AN      X      Y      Z        X      Y      Z        X      Y      Z
   1   6     0.00   0.06  -0.00    -0.17   0.00   0.02     0.65  -0.00  -0.06
   2   6    -0.00  -0.21   0.01     0.10  -0.00  -0.01    -0.73   0.00   0.07
   3   7    -0.00  -0.65   0.02     0.67  -0.00  -0.06     0.14  -0.00  -0.01
   4   6     0.29   0.42  -0.04    -0.33  -0.38   0.04    -0.04  -0.09   0.01
   5   6    -0.29   0.43   0.02    -0.32   0.39   0.02    -0.04   0.09   0.00
