 Entering Gaussian System
 *********************************************
 Gaussian 98:
 frequency output generated by the xtb code
 *********************************************
                         Standard orientation:
 --------------------------------------------------------------------
  Center     Atomic     Atomic              Coordinates (Angstroms)
  Number     Number      Type              X           Y           Z
 --------------------------------------------------------------------
    1          6             0       -0.454698    1.057022    0.350810
    2          7             0       -0.756836   -0.092421   -0.042109
    3          6             0        0.690808    0.047477    0.026206
    4          6             0        1.915309   -0.189508   -0.036662
    5          1             0       -1.394582   -0.822569   -0.298246
 --------------------------------------------------------------------
     1 basis functions        1 primitive gaussians
     1 alpha electrons        1 beta electrons

 Harmonic frequencies (cm**-1), IR intensities (KM/Mole),
 Raman scattering activities (A**4/amu), Raman depolarization ratios,
 reduced masses (AMU), force constants (mDyne/A) and normal coordinates:
                      1                      2                      3
                        a                      a                      a 
 Frequencies --   268.6580               372.1046               532.4548
 Red. masses --    11.4809                11.3440                 4.4763
 Frc consts  --     0.0000                 0.0000                 0.0000
 IR Inten    --     0.2513                 0.1820                 0.4011
 Raman Activ --     0.0000                 0.0000                 0.0000
 Depolar     --     0.0000                 0.0000                 0.0000
 Atom AN      X      Y      Z        X      Y      Z        X      Y      Z
   1   6    -0.44   0.08   0.02    -0.00  -0.06   0.18    -0.00  -0.04   0.12
   2   7     0.29  -0.07  -0.02    -0.00  -0.04   0.11     0.01   0.15  -0.44
   3   6     0.14   0.54   0.19     0.01   0.27  -0.79    -0.00  -0.06   0.18
   4   6    -0.07  -0.51  -0.17    -0.01  -0.14   0.42     0.00   0.02  -0.05
   5   1     0.21  -0.13  -0.04    -0.00  -0.08   0.24    -0.01  -0.27   0.81
                      4                      5                      6
                        a                      a                      a 
 Frequencies --   604.9501               780.4639               868.3136
 Red. masses --    12.3466                11.2181                 4.1233
 Frc consts  --     0.0000                 0.0000                 0.0000
 IR Inten    --     0.4514                 0.2801                 0.0862
 Raman Activ --     0.0000                 0.0000                 0.0000
 Depolar     --     0.0000                 0.0000                 0.0000
 Atom AN      X      Y      Z        X      Y      Z        X      Y      Z
   1   6    -0.53   0.32   0.10     0.37   0.09   0.04    -0.00  -0.05  -0.02
   2   7     0.44   0.16   0.06     0.48  -0.14  -0.04     0.35  -0.25  -0.08
   3   6    -0.04  -0.57  -0.19    -0.47   0.01  -0.00    -0.08   0.17   0.06
   4   6     0.08   0.04   0.01    -0.51   0.10   0.03    -0.10   0.00  -0.00
   5   1     0.05   0.09   0.03     0.30  -0.17  -0.05    -0.67   0.53   0.17
                      7                      8                      9
                        a                      a                      a 
 Frequencies --  1620.1925              1949.5677              3482.7928
 Red. masses --    12.3251                12.0863                 1.9763
 Frc consts  --     0.0000                 0.0000                 0.0000
 IR Inten    --     1.1248                 0.2483                 0.3386
 Raman Activ --     0.0000                 0.0000                 0.0000
 Depolar     --     0.0000                 0.0000                 0.0000
 Atom AN      X      Y      Z        X      Y      Z        X      Y      Z
   1   6    -0.09  -0.62  -0.21    -0.03  -0.32  -0.11    -0.00   0.02   0.01
   2   7     0.19   0.49   0.17     0.12   0.26   0.09    -0.17  -0.20  -0.07
   3   6     0.26  -0.03  -0.01    -0.67   0.12   0.03     0.01  -0.01  -0.00
   4   6    -0.40   0.08   0.02     0.55  -0.10  -0.03    -0.00  -0.00  -0.00
   5   1     0.08   0.13   0.05     0.07   0.07   0.02     0.61   0.70   0.25
