$hessian                                                                        
        0.1024717763   0.0633249896   0.0228244354  -0.0182655111  -0.0969579578
       -0.0329450051  -0.0378755408   0.0398523544   0.0130275646  -0.0447575518
        0.0112358780   0.0030893889  -0.0015731726  -0.0174552642  -0.0059963838
        0.0633249896   0.6607949678   0.2228391981  -0.2102303982  -0.5679054939
       -0.1926747999   0.1713646471  -0.0771962174  -0.0214331349  -0.0246473368
        0.0003356484  -0.0016505048   0.0001880984  -0.0160289049  -0.0070807584
        0.0228244354   0.2228391981   0.0799497585  -0.0712291511  -0.1910361509
       -0.0725356825   0.0574721329  -0.0233038670  -0.0135942208  -0.0090383292
       -0.0011596597   0.0037214799  -0.0000290880  -0.0073395204   0.0024586648
       -0.0182655111  -0.2102303982  -0.0712291511   0.4200066113   0.3631932708
        0.1283752205  -0.1740042896   0.0100063002   0.0011344742  -0.0517655690
        0.0100525430   0.0025491584  -0.1759712415  -0.1730217158  -0.0608297020
       -0.0969579578  -0.5679054939  -0.1910361509   0.3631932708   0.7811229056
        0.2578344710  -0.1448977511   0.0098978286   0.0076705554   0.0529169428
        0.0016138467  -0.0011937859  -0.1742545047  -0.2247290871  -0.0732750895
       -0.0329450051  -0.1926747999  -0.0725356825   0.1283752205   0.2578344710
        0.1230512622  -0.0512288365   0.0098833776  -0.0163169283   0.0170475868
       -0.0017889507   0.0069680148  -0.0612489657  -0.0732540980  -0.0411666663
       -0.0378755408   0.1713646471   0.0574721329  -0.1740042896  -0.1448977511
       -0.0512288365   0.9219641115  -0.1494391935  -0.0381312014  -0.6976013761
        0.1224426909   0.0319261272  -0.0124829050   0.0005296067  -0.0000382223
        0.0398523544  -0.0771962174  -0.0233038670   0.0100063002   0.0098978286
        0.0098833776  -0.1494391935   0.1043228719   0.0169351560   0.1140878980
       -0.0383374861  -0.0029999430  -0.0145073592   0.0013130030  -0.0005147236
        0.0130275646  -0.0214331349  -0.0135942208   0.0011344742   0.0076705554
       -0.0163169283  -0.0381312014   0.0169351560   0.0531971810   0.0290935107
       -0.0028722189  -0.0253086791  -0.0051243480  -0.0003003576   0.0020226472
       -0.0447575518  -0.0246473368  -0.0090383292  -0.0517655690   0.0529169428
        0.0170475868  -0.6976013761   0.1140878980   0.0290935107   0.7925304182
       -0.1437049158  -0.0375791591   0.0015940787   0.0013474117   0.0004763909
        0.0112358780   0.0003356484  -0.0011596597   0.0100525430   0.0016138467
       -0.0017889507   0.1224426909  -0.0383374861  -0.0028722189  -0.1437049158
        0.0370463736   0.0061101801  -0.0000261961  -0.0006583827  -0.0002893507
        0.0030893889  -0.0016505048   0.0037214799   0.0025491584  -0.0011937859
        0.0069680148   0.0319261272  -0.0029999430  -0.0253086791  -0.0375791591
        0.0061101801   0.0145090602   0.0000144845  -0.0002659464   0.0001101242
       -0.0015731726   0.0001880984  -0.0000290880  -0.1759712415  -0.1742545047
       -0.0612489657  -0.0124829050  -0.0145073592  -0.0051243480   0.0015940787
       -0.0000261961   0.0000144845   0.1884332404   0.1885999616   0.0663879172
       -0.0174552642  -0.0160289049  -0.0073395204  -0.1730217158  -0.2247290871
       -0.0732540980   0.0005296067   0.0013130030  -0.0003003576   0.0013474117
       -0.0006583827  -0.0002659464   0.1885999616   0.2401033717   0.0811599223
       -0.0059963838  -0.0070807584   0.0024586648  -0.0608297020  -0.0732750895
       -0.0411666663  -0.0000382223  -0.0005147236   0.0020226472   0.0004763909
       -0.0002893507   0.0001101242   0.0663879172   0.0811599223   0.0365752301
