 Entering Gaussian System
 *********************************************
 Gaussian 98:
 frequency output generated by the xtb code
 *********************************************
                         Standard orientation:
 --------------------------------------------------------------------
  Center     Atomic     Atomic              Coordinates (Angstroms)
  Number     Number      Type              X           Y           Z
 --------------------------------------------------------------------
    1          8             0       -0.154639    0.426462   -0.000000
    2          8             0        1.007890   -0.160378   -0.000003
    3          1             0       -0.853252   -0.266083    0.000003
 --------------------------------------------------------------------
     1 basis functions        1 primitive gaussians
     1 alpha electrons        1 beta electrons

 Harmonic frequencies (cm**-1), IR intensities (KM/Mole),
 Raman scattering activities (A**4/amu), Raman depolarization ratios,
 reduced masses (AMU), force constants (mDyne/A) and normal coordinates:
                      1                      2                      3
                        a                      a                      a 
 Frequencies --  1280.9428              1325.6996              3224.0283
 Red. masses --    13.2735                 5.4482                 1.8750
 Frc consts  --     0.0000                 0.0000                 0.0000
 IR Inten    --     0.4049                 0.1601                 0.1612
 Raman Activ --     0.0000                 0.0000                 0.0000
 Depolar     --     0.0000                 0.0000                 0.0000
 Atom AN      X      Y      Z        X      Y      Z        X      Y      Z
   1   8     0.56  -0.41  -0.00    -0.29  -0.09   0.00     0.15   0.19  -0.00
   2   8    -0.48   0.33   0.00     0.45  -0.05  -0.00     0.02  -0.01  -0.00
   3   1    -0.31   0.29   0.00    -0.63   0.55   0.00    -0.68  -0.69   0.00
