$hessian                                                                        
        0.5403124985  -0.0218718367  -0.0000018479  -0.3848591343   0.1874057307
        0.0000010163  -0.1554533643  -0.1655338940   0.0000008315
       -0.0218718367   0.3915084601  -0.0000006070   0.1761377430  -0.1450944424
       -0.0000003616  -0.1542659063  -0.2464140177   0.0000009686
       -0.0000018479  -0.0000006070   0.0000000000   0.0000010360  -0.0000004009
       -0.0000000000   0.0000008119   0.0000010079  -0.0000000000
       -0.3848591343   0.1761377430   0.0000010360   0.4464480928  -0.1839688702
       -0.0000012373  -0.0615889585   0.0078311272   0.0000002013
        0.1874057307  -0.1450944424  -0.0000004009  -0.1839688702   0.1137501274
        0.0000004436  -0.0034368605   0.0313443150  -0.0000000427
        0.0000010163  -0.0000003616  -0.0000000000  -0.0000012373   0.0000004436
        0.0000000000   0.0000002210  -0.0000000820  -0.0000000000
       -0.1554533643  -0.1542659063   0.0000008119  -0.0615889585  -0.0034368605
        0.0000002210   0.2170423228   0.1577027668  -0.0000010329
       -0.1655338940  -0.2464140177   0.0000010079   0.0078311272   0.0313443150
       -0.0000000820   0.1577027668   0.2150697027  -0.0000009259
        0.0000008315   0.0000009686  -0.0000000000   0.0000002013  -0.0000000427
       -0.0000000000  -0.0000010329  -0.0000009259   0.0000000000
