[Molden Format]
[Title]
[Atoms] AU
O      1     8 -0.29222561750576E+00  0.80589549123671E+00 -0.38647573817835E-06
O      2     8  0.19046364039289E+01 -0.30306979162894E+00 -0.61195016323767E-05
H      3     1 -0.16124126761392E+01 -0.50282380987192E+00  0.65059806687491E-05
[GTO]
           1 0
 s           4   1.0000000000000000     
   69.137961906196551      -0.20478756370077797     
   11.906129132707308      -0.24997023136827334     
  0.95670827744340703       0.40025880240639616     
  0.36462520496073686       0.15952206667693555     
 p           4   1.0000000000000000     
   8.2124193257781641        1.1321556799186829     
   2.1293576997098116        1.0476840782254817     
  0.75066448202360914       0.54956508217158984     
  0.29885246543283073        8.2908486592766617E-002

           2 0
 s           4   1.0000000000000000     
   69.137961906196551      -0.20478756370077797     
   11.906129132707308      -0.24997023136827334     
  0.95670827744340703       0.40025880240639616     
  0.36462520496073686       0.15952206667693555     
 p           4   1.0000000000000000     
   8.2124193257781641        1.1321556799186829     
   2.1293576997098116        1.0476840782254817     
  0.75066448202360914       0.54956508217158984     
  0.29885246543283073        8.2908486592766617E-002

           3 0
 s           3   1.0000000000000000     
   3.3702276975336001       0.27359110588908298     
  0.61389118221497996       0.26460540653860526     
  0.16614291148415999        8.2465947534082318E-002

[MO]
Sym=     1a
Ene=  -0.77864522961591809     
Spin= Alpha
Occup=     2.00000000
           1  0.70986945424398817     
           2   9.9774212388264061E-002
           3 -0.11627799730990469     
           4  -1.5709760392500541E-007
           5  0.29586614358257191     
           6 -0.22106693696822305     
           7   8.2560095574568851E-002
           8   6.3582425860349141E-007
           9  0.13147163350000987     
Sym=     2a
Ene=  -0.71903847680064814     
Spin= Alpha
Occup=     2.00000000
           1  0.36541770446434829     
           2 -0.47937497020372699     
           3   4.1345300749211014E-002
           4   1.5790913473316376E-006
           5 -0.63552925968592788     
           6   2.7254671440495017E-002
           7  -5.9804598153389704E-002
           8  -2.0553800685357829E-008
           9  0.22146621052090734     
Sym=     3a
Ene=  -0.65531830919381906     
Spin= Alpha
Occup=     2.00000000
           1 -0.32139157342500208     
           2 -0.30940287341968209     
           3 -0.56916529593685372     
           4   2.1040911288770098E-006
           5  0.35758832452772105     
           6   3.4859835392777865E-002
           7 -0.38259978460489541     
           8   5.7665559666603640E-007
           9  0.26816588156555127     
Sym=     4a
Ene=  -0.60476246032443248     
Spin= Alpha
Occup=     2.00000000
           1   5.7511020397851995E-007
           2   1.8869097684925985E-006
           3   2.5827143306619892E-006
           4  0.78069029129377987     
           5   1.3197976198351245E-006
           6   3.2860374852779076E-006
           7   6.8435795501848979E-007
           8  0.52480922568840449     
           9   2.5763143931662169E-008
Sym=     5a
Ene=  -0.60414312762226741     
Spin= Alpha
Occup=     2.00000000
           1  0.21551289178384594     
           2 -0.32561936892125870     
           3  0.46735989174495773     
           4  -1.6840244943202805E-006
           5  0.53177235700886738     
           6  0.57302564722752780     
           7  -9.9890413074087983E-002
           8  -3.1418027735471726E-006
           9   1.0074432456380665E-002
Sym=     6a
Ene=  -0.46178099316790400     
Spin= Alpha
Occup=     1.99999998
           1 -0.18598820858316165     
           2  -7.1974718736675714E-002
           3 -0.35377851093763091     
           4   8.6260330309177350E-007
           5   1.9930820009964744E-003
           6  0.38943866032174285     
           7  0.84978940991940510     
           8  -2.8424625597012951E-006
           9  0.24393264871512940     
Sym=     7a
Ene=  -0.42788435418499327     
Spin= Alpha
Occup=     1.00000002
           1  -7.4989391474488967E-009
           2  -2.2361722409282371E-006
           3  -1.1221581023430414E-006
           4 -0.64081915568082271     
           5  -2.5271819651515857E-008
           6   2.9973235269311849E-006
           7   1.5084506991760867E-006
           8  0.86296106391680094     
           9  -3.9901474605600147E-009
Sym=     8a
Ene=   -4.0750912024520997E-002
Spin= Alpha
Occup=     0.00000000
           1 -0.69031302569882236     
           2 -0.46665947305813743     
           3  0.60077490596005101     
           4   5.7572994521020345E-007
           5  0.43995743978489560     
           6 -0.76492613396166453     
           7  0.33778954521449733     
           8   2.0746012912865823E-006
           9  0.44185123916736385     
Sym=     9a
Ene=    8.0485569049703096E-002
Spin= Alpha
Occup=     0.00000000
           1 -0.34209751735413041     
           2  0.82709613720873476     
           3  0.36922079420729831     
           4  -3.5321850188860197E-006
           5 -0.26492036021654586     
           6  0.28790127795203890     
           7 -0.24961745843839384     
           8  -5.6641586454650104E-007
           9   1.0727884589235195     
