3
 energy: -8.459050233135 gnorm: 0.022903748560 xtb: 6.2.2 (9d81278992624c895f80dd42a50cac0aa55982e2)
O        -0.16240900000000    0.44994500000000    0.00000000000000
O         0.99697500000000   -0.17269800000000    0.00000000000000
H        -0.83456700000000   -0.27724600000000    0.00000000000000
3
 energy: -8.459493700719 gnorm: 0.010655870063 xtb: 6.2.2 (9d81278992624c895f80dd42a50cac0aa55982e2)
O        -0.15908684560223    0.43765555627270   -0.00000000000000
O         1.00207781598635   -0.16657759549862    0.00000000000000
H        -0.84299197038411   -0.27107696077408    0.00000000000000
3
 energy: -8.459627166484 gnorm: 0.001119471639 xtb: 6.2.2 (9d81278992624c895f80dd42a50cac0aa55982e2)
O        -0.15517449472660    0.42672404513171   -0.00000000000000
O         1.00723719307704   -0.16071798017602    0.00000000000000
H        -0.85206369835044   -0.26600506495569    0.00000000000000
3
 energy: -8.459628246025 gnorm: 0.000140254678 xtb: 6.2.2 (9d81278992624c895f80dd42a50cac0aa55982e2)
O        -0.15464138451728    0.42646075820510   -0.00000000000000
O         1.00789111325406   -0.16037236461989    0.00000000000000
H        -0.85325072873678   -0.26608739358521    0.00000000000000
