[Molden Format]
[Title]
[Atoms] AU
C      1     6 -0.55677492865942E+00 -0.11951556359881E-01 -0.14843054424402E+00
C      2     6  0.20914782210601E+01 -0.53471132822380E-01 -0.10151049450290E+01
O      3     8  0.16974926935152E+01  0.92233980626528E-01  0.13445520472701E+01
H      4     1 -0.16244381976964E+01  0.17271222252607E+01 -0.19937720742300E+00
H      5     1 -0.16077577882096E+01 -0.17539316269790E+01  0.18360649422605E-01
[GTO]
           1 0
 s           4   1.0000000000000000     
   51.049363095579913      -0.16312063210127389     
   8.7911227406887544      -0.19911024581000730     
  0.70640422258929825       0.31882047753655751     
  0.26922813413411617       0.12706504184240380     
 p           4   1.0000000000000000     
   5.8263656140800002       0.73716451545209605     
   1.5106896018720002       0.68216371614850257     
  0.53256483288000001       0.35783053929253711     
  0.21202323690600003        5.3983030275847881E-002

           2 0
 s           4   1.0000000000000000     
   51.049363095579913      -0.16312063210127389     
   8.7911227406887544      -0.19911024581000730     
  0.70640422258929825       0.31882047753655751     
  0.26922813413411617       0.12706504184240380     
 p           4   1.0000000000000000     
   5.8263656140800002       0.73716451545209605     
   1.5106896018720002       0.68216371614850257     
  0.53256483288000001       0.35783053929253711     
  0.21202323690600003        5.3983030275847881E-002

           3 0
 s           4   1.0000000000000000     
   69.137961906196551      -0.20478756370077797     
   11.906129132707308      -0.24997023136827334     
  0.95670827744340703       0.40025880240639616     
  0.36462520496073686       0.15952206667693555     
 p           4   1.0000000000000000     
   8.2124193257781641        1.1321556799186829     
   2.1293576997098116        1.0476840782254817     
  0.75066448202360914       0.54956508217158984     
  0.29885246543283073        8.2908486592766617E-002

           4 0
 s           3   1.0000000000000000     
   3.3702276975336001       0.27359110588908298     
  0.61389118221497996       0.26460540653860526     
  0.16614291148415999        8.2465947534082318E-002

           5 0
 s           3   1.0000000000000000     
   3.3702276975336001       0.27359110588908298     
  0.61389118221497996       0.26460540653860526     
  0.16614291148415999        8.2465947534082318E-002

[MO]
Sym=     1a
Ene=  -0.77480156088510421     
Spin= Alpha
Occup=     2.00000000
           1 -0.18341522001238006     
           2 -0.14625273063511648     
           3  -3.8498344491486084E-003
           4  -5.0345504229692535E-002
           5 -0.26852399883645961     
           6   5.1949180323002393E-002
           7  -9.3334562077148787E-003
           8 -0.15319920692918410     
           9 -0.63123886293677733     
          10   4.3025079080355876E-002
          11   1.2534351253981254E-002
          12  0.19709825751754051     
          13  -9.7453087192677142E-003
          14  -9.7453142535764582E-003
Sym=     2a
Ene=  -0.66350003204238017     
Spin= Alpha
Occup=     2.00000000
           1  0.39281719775943041     
           2   5.3877938246028122E-002
           3  -2.4502758094688223E-003
           4  -4.3301464097836327E-002
           5  0.14748965605637349     
           6 -0.19098799605921743     
           7  -7.1410956977715368E-003
           8  -9.9537824648056439E-002
           9 -0.53272539811285757     
          10 -0.37334942210115307     
          11  -2.1098928935258915E-002
          12 -0.30871952621901882     
          13  0.12306905155236959     
          14  0.12306901908583272     
Sym=     3a
Ene=  -0.64552753306006194     
Spin= Alpha
Occup=     2.00000000
           1  0.19539344069848885     
           2  -6.1035936809029835E-002
           3   1.3527364300733558E-002
           4  0.22094668312129026     
           5 -0.41205462902802120     
           6 -0.10123601804038951     
           7  -4.5408915289273863E-003
           8  -6.4842130241862667E-002
           9  0.32350679730074833     
          10 -0.42493945686584544     
          11   2.6468778545046270E-002
          12  0.45572667520817367     
          13   8.6267588951333574E-002
          14   8.6267770798004739E-002
Sym=     4a
Ene=  -0.60234259896502440     
Spin= Alpha
Occup=     2.00000000
           1   7.7799665168550051E-008
           2  -1.6504048765560784E-003
           3  0.34442429611554970     
           4  -2.1543265655018653E-002
           5  -7.6253578442918895E-008
           6  -1.5268690437031070E-003
           7  0.31864010905813100     
           8  -1.9930478718704885E-002
           9   9.4938873186756104E-008
          10  -3.1947297759919078E-003
          11  0.66671574185560256     
          12  -4.1701936457870313E-002
          13  0.16124458707736000     
          14 -0.16124455334172896     
Sym=     5a
Ene=  -0.56499342735879776     
Spin= Alpha
Occup=     2.00000000
           1  0.29289663913859570     
           2 -0.39941049012684687     
           3  -1.2525201178488770E-002
           4 -0.16965060336679255     
           5   3.9982130209242968E-002
           6  0.12125832338055448     
           7   2.9640057153898286E-003
           8   3.8099235670370192E-002
           9   9.5599117506857956E-002
          10  0.45501109780106880     
          11   8.8994637809765437E-003
          12  0.10742724955658189     
          13  0.30348137011716808     
          14  0.30348107192858587     
Sym=     6a
Ene=  -0.48802344663809127     
Spin= Alpha
Occup=     2.00000000
           1   4.4045824427159520E-002
           2  0.17222279636703616     
           3  -2.3659087866715479E-002
           4 -0.39152600644963559     
           5  0.41261416644043941     
           6 -0.18165095212120300     
           7  -3.2220495308220506E-002
           8 -0.50117698397464905     
           9  0.17490145017037992     
          10   4.0459290183206223E-002
          11   3.1027604562028157E-002
          12  0.49305633727564624     
          13  -5.2222143464051497E-002
          14  -5.2231365327712907E-002
Sym=     7a
Ene=  -0.48500024794415769     
Spin= Alpha
Occup=     2.00000000
           1  -5.5406300358274338E-007
           2  -2.1960343702771526E-003
           3  0.45793445658308463     
           4  -2.8638964933154116E-002
           5  -5.2069764439642154E-006
           6   9.1211989550058978E-004
           7 -0.19000423395929497     
           8   1.1890467499726706E-002
           9  -1.8522446240421741E-006
          10   2.5948093051532980E-003
          11 -0.54165084052220769     
          12   3.3873793422661655E-002
          13  0.40197008749717089     
          14 -0.40196921530223845     
Sym=     8a
Ene=  -0.43122945990988726     
Spin= Alpha
Occup=     2.00000000
           1   7.4653770527198376E-002
           2  0.12179130362569426     
           3  -2.8443950028798338E-002
           4 -0.46407073214487432     
           5 -0.53904408989779373     
           6 -0.56208325698072281     
           7   1.7119165429616674E-002
           8  0.31675289934911927     
           9   4.3812446709788795E-002
          10  0.22953176381962337     
          11  -1.4612714627412118E-003
          12  -4.0953343952602410E-002
          13  -6.5971624244190549E-002
          14  -6.5971159070554827E-002
Sym=     9a
Ene=  -0.30653407922108561     
Spin= Alpha
Occup=     0.00000000
           1  -5.6451551712441960E-008
           2   1.0281159152322133E-004
           3  -2.1441008387160027E-002
           4   1.3410835056942251E-003
           5  -1.2510408461401240E-008
           6  -4.5316276188243987E-003
           7  0.94570151261234559     
           8  -5.9152216481611369E-002
           9  -1.3882655207316945E-008
          10   2.6097634636587930E-003
          11 -0.54462428145991015     
          12   3.4065444936816291E-002
          13  -7.8198810838702795E-002
          14   7.8198881568660297E-002
Sym=    10a
Ene=  -0.10075725886122920     
Spin= Alpha
Occup=     0.00000000
           1   4.2034246414915793E-003
           2  -9.8998324437736832E-002
           3  -5.0995290365790272E-002
           4 -0.80769205012390433     
           5  -6.7227477132578511E-002
           6  0.62596406243511726     
           7   2.2951328240022748E-002
           8  0.31897887489162507     
           9  0.14109592187487399     
          10 -0.66506787007626700     
          11  -2.3760774858619443E-003
          12   1.2959506869774932E-002
          13  -3.4784652612890259E-002
          14  -3.4785608571200180E-002
Sym=    11a
Ene=    6.3252064825380774E-002
Spin= Alpha
Occup=     0.00000000
           1  -1.1219334878287639     
           2 -0.30333051619012041     
           3  -8.7011420986130624E-003
           4 -0.11587080256863053     
           5  0.10401785514916317     
           6 -0.43113259466195519     
           7  -1.3227583782499249E-002
           8 -0.17844891096931956     
           9  0.35558404838561519     
          10 -0.31707121742482630     
          11  -2.2170638933578603E-002
          12 -0.33016646892491208     
          13  0.47459976102947771     
          14  0.47459960131763018     
Sym=    12a
Ene=   0.16668483053494787     
Spin= Alpha
Occup=     0.00000000
           1 -0.37431821182073471     
           2   1.0050498478477476     
           3   5.9781677320784217E-003
           4   1.8553661460712988E-002
           5  -5.1376686187977472E-002
           6  0.29159393058113892     
           7   2.1259222486427826E-002
           8  0.31755070009763176     
           9 -0.42292690310473058     
          10  0.14586287101160181     
          11   2.5552372883629614E-002
          12  0.39734872405367383     
          13  0.61809162243418769     
          14  0.61809416220463442     
Sym=    13a
Ene=   0.24604749566365883     
Spin= Alpha
Occup=     0.00000000
           1   5.0473042552127323E-007
           2  -5.3842869639948287E-003
           3   1.1232641976775997     
           4  -7.0259817520531093E-002
           5   3.0753046901164481E-007
           6   7.4771237294713952E-004
           7 -0.15610065901155404     
           8   9.7639212140790289E-003
           9   6.7945008059061658E-007
          10   5.3812889291767461E-004
          11 -0.11247515235917094     
          12   7.0347604651898087E-003
          13 -0.85000973405527536     
          14  0.85000766171721109     
Sym=    14a
Ene=   0.39571036975979473     
Spin= Alpha
Occup=     0.00000000
           1 -0.18326141174220789     
           2 -0.48650294643927106     
           3   7.0765874274007550E-003
           4  0.15041396326310899     
           5  0.84279335460194815     
           6 -0.46153364501762406     
           7   5.3496951979357776E-002
           8  0.89064375671441476     
           9 -0.53068712323850220     
          10 -0.21630232909232350     
          11   4.2560714462813475E-002
          12  0.69701356399509595     
          13 -0.13372924378951531     
          14 -0.13372991719947072     
