$hessian                                                                        
        0.6176248313   0.0007699338   0.0050923997  -0.2511854726   0.0064139076
        0.1206970205  -0.1629382664  -0.0098735918  -0.1479134535  -0.1028202358
        0.1124479757   0.0042015817  -0.1006808565  -0.1097582253   0.0179224517
        0.0007699338   0.5335528006  -0.0219146344   0.0045245108  -0.0158561419
       -0.0001113861  -0.0069596021  -0.0361654266  -0.0045718987   0.1121510220
       -0.2414021714  -0.0060901877  -0.1104858645  -0.2401290607   0.0326881069
        0.0050923997  -0.0219146344   0.1833747549   0.0907771262  -0.0003522446
       -0.0282807687  -0.1011507672  -0.0042380511  -0.0957413510  -0.0042875942
        0.0053881462  -0.0279699548   0.0095688355   0.0211167840  -0.0313826805
       -0.2511854726   0.0045245108   0.0907771262   0.3270053248  -0.0113525201
       -0.2039460879  -0.0459612418   0.0056604991   0.0924201274  -0.0150031910
        0.0028974339   0.0103133350  -0.0148554193  -0.0017299237   0.0104354992
        0.0064139076  -0.0158561419  -0.0003522446  -0.0113525201   0.0370066554
        0.0314699249   0.0056593639  -0.0219687591  -0.0305584851   0.0130162169
       -0.0004253425  -0.0175597235  -0.0137369683   0.0012435881   0.0170005283
        0.1206970205  -0.0001113861  -0.0282807687  -0.2039460879   0.0314699249
        0.5538793151   0.0923521665  -0.0305954626  -0.5158400412  -0.0054050316
        0.0024112663  -0.0039827551  -0.0036980674  -0.0031743425  -0.0057757501
       -0.1629382664  -0.0069596021  -0.1011507672  -0.0459612418   0.0056593639
        0.0923521665   0.2505327094   0.0042966465   0.0531820200  -0.0209035909
        0.0032694596  -0.0226147244  -0.0207296103  -0.0062658680  -0.0217686949
       -0.0098735918  -0.0361654266  -0.0042380511   0.0056604991  -0.0219687591
       -0.0305954626   0.0042966465   0.0508465333   0.0352571267   0.0138858357
        0.0052842078   0.0256635431  -0.0139693895   0.0020034447  -0.0260871561
       -0.1479134535  -0.0045718987  -0.0957413510   0.0924201274  -0.0305584851
       -0.5158400412   0.0531820200   0.0352571267   0.6076593819   0.0002954637
       -0.0012127359   0.0004224975   0.0020158425   0.0010859929   0.0034995127
       -0.1028202358   0.1121510220  -0.0042875942  -0.0150031910   0.0130162169
       -0.0054050316  -0.0209035909   0.0138858357   0.0002954637   0.1313628495
       -0.1289837937   0.0087493008   0.0073641682  -0.0100692808   0.0006478614
        0.1124479757  -0.2414021714   0.0053881462   0.0028974339  -0.0004253425
        0.0024112663   0.0032694596   0.0052842078  -0.0012127359  -0.1289837937
        0.2600120352  -0.0057886649   0.0103689245  -0.0234687291  -0.0007980116
        0.0042015817  -0.0060901877  -0.0279699548   0.0103133350  -0.0175597235
       -0.0039827551  -0.0226147244   0.0256635431   0.0004224975   0.0087493008
       -0.0057886649   0.0313623308  -0.0006494931   0.0037750330   0.0001678815
       -0.1006808565  -0.1104858645   0.0095688355  -0.0148554193  -0.0137369683
       -0.0036980674  -0.0207296103  -0.0139693895   0.0020158425   0.0073641682
        0.0103689245  -0.0006494931   0.1289017179   0.1278232978  -0.0072371174
       -0.1097582253  -0.2401290607   0.0211167840  -0.0017299237   0.0012435881
       -0.0031743425  -0.0062658680   0.0020034447   0.0010859929  -0.0100692808
       -0.0234687291   0.0037750330   0.1278232978   0.2603507570  -0.0228034675
        0.0179224517   0.0326881069  -0.0313826805   0.0104354992   0.0170005283
       -0.0057757501  -0.0217686949  -0.0260871561   0.0034995127   0.0006478614
       -0.0007980116   0.0001678815  -0.0072371174  -0.0228034675   0.0334910363
