 Entering Gaussian System
 *********************************************
 Gaussian 98:
 frequency output generated by the xtb code
 *********************************************
                         Standard orientation:
 --------------------------------------------------------------------
  Center     Atomic     Atomic              Coordinates (Angstroms)
  Number     Number      Type              X           Y           Z
 --------------------------------------------------------------------
    1          6             0       -0.294633   -0.006324   -0.078546
    2          6             0        1.106763   -0.028296   -0.537170
    3          8             0        0.898275    0.048808    0.711506
    4          1             0       -0.859616    0.913954   -0.105506
    5          1             0       -0.850789   -0.928141    0.009716
 --------------------------------------------------------------------
     1 basis functions        1 primitive gaussians
     1 alpha electrons        1 beta electrons

 Harmonic frequencies (cm**-1), IR intensities (KM/Mole),
 Raman scattering activities (A**4/amu), Raman depolarization ratios,
 reduced masses (AMU), force constants (mDyne/A) and normal coordinates:
                      1                      2                      3
                        a                      a                      a 
 Frequencies --   882.1922               943.7146               967.2422
 Red. masses --     3.0551                13.2869                 5.3311
 Frc consts  --     0.0000                 0.0000                 0.0000
 IR Inten    --     0.1663                 0.5579                 0.5767
 Raman Activ --     0.0000                 0.0000                 0.0000
 Depolar     --     0.0000                 0.0000                 0.0000
 Atom AN      X      Y      Z        X      Y      Z        X      Y      Z
   1   6    -0.00   0.24  -0.02     0.17   0.04   0.61     0.24   0.01   0.20
   2   6     0.00  -0.31   0.02     0.41  -0.01  -0.18    -0.41  -0.01  -0.16
   3   8    -0.00   0.15  -0.01    -0.52  -0.02  -0.33     0.11   0.02   0.25
   4   1    -0.33  -0.14   0.53     0.04   0.00  -0.10     0.09  -0.01  -0.56
   5   1     0.33  -0.20  -0.51     0.04  -0.01  -0.10     0.09  -0.06  -0.55
                      4                      5                      6
                        a                      a                      a 
 Frequencies --  1096.2300              1121.0339              1402.1620
 Red. masses --     3.2348                10.3074                 2.5024
 Frc consts  --     0.0000                 0.0000                 0.0000
 IR Inten    --     0.2227                 0.4802                 0.3412
 Raman Activ --     0.0000                 0.0000                 0.0000
 Depolar     --     0.0000                 0.0000                 0.0000
 Atom AN      X      Y      Z        X      Y      Z        X      Y      Z
   1   6     0.00  -0.36   0.02     0.63  -0.01  -0.16     0.17   0.00   0.02
   2   6     0.00  -0.01   0.00    -0.31  -0.02  -0.29     0.12  -0.01  -0.21
   3   8    -0.00   0.23  -0.01    -0.35   0.01   0.23     0.04   0.01   0.18
   4   1     0.46   0.21   0.39     0.14  -0.00   0.30    -0.56  -0.35  -0.02
   5   1    -0.47   0.15  -0.41     0.13   0.04   0.30    -0.57   0.34  -0.06
                      7                      8                      9
                        a                      a                      a 
 Frequencies --  1572.7762              3082.2744              3101.5257
 Red. masses --    12.5517                 1.4153                 2.1237
 Frc consts  --     0.0000                 0.0000                 0.0000
 IR Inten    --     1.0653                 0.1205                 0.2428
 Raman Activ --     0.0000                 0.0000                 0.0000
 Depolar     --     0.0000                 0.0000                 0.0000
 Atom AN      X      Y      Z        X      Y      Z        X      Y      Z
   1   6    -0.39  -0.00  -0.01     0.19   0.00  -0.01    -0.00   0.32  -0.02
   2   6     0.33  -0.04  -0.63    -0.00   0.00   0.01    -0.00   0.01  -0.00
   3   8     0.00   0.03   0.54     0.01  -0.00  -0.01    -0.00   0.00  -0.00
   4   1     0.10   0.13   0.02    -0.35   0.60  -0.03     0.37  -0.56   0.01
   5   1     0.10  -0.13   0.04    -0.34  -0.60   0.05    -0.36  -0.56   0.06
