5
 energy: -9.210749110321 gnorm: 0.127675712621 xtb: 6.2.2 (9d81278992624c895f80dd42a50cac0aa55982e2)
C        -0.29218200000000   -0.00569600000000   -0.06870000000000
C         1.07973900000000   -0.03313800000000   -0.61228200000000
O         0.83278000000000    0.05227300000000    0.77154300000000
H        -0.81486600000000    0.97212800000000   -0.10649100000000
H        -0.80547100000000   -0.98556600000000    0.01593000000000
5
 energy: -9.223614767982 gnorm: 0.070537645498 xtb: 6.2.2 (9d81278992624c895f80dd42a50cac0aa55982e2)
C        -0.29125654987355   -0.00483031063844   -0.05491753945403
C         1.08283721783361   -0.03055709002556   -0.57152891037460
O         0.88165309434258    0.05073771207796    0.74353446753861
H        -0.84113863041636    0.93470772184489   -0.11748594276831
H        -0.83209513188629   -0.95005703325886    0.00039792505833
5
 energy: -9.226109889490 gnorm: 0.054755186967 xtb: 6.2.2 (9d81278992624c895f80dd42a50cac0aa55982e2)
C        -0.29263277913420   -0.00697756905656   -0.08913638449857
C         1.11556990465442   -0.02720483993927   -0.52039023560160
O         0.90055175878085    0.04770993269093    0.69361640260543
H        -0.86610605641942    0.90225174019095   -0.09889657611444
H        -0.85738282788166   -0.91577826388606    0.01480679360918
5
 energy: -9.227344265349 gnorm: 0.009127728209 xtb: 6.2.2 (9d81278992624c895f80dd42a50cac0aa55982e2)
C        -0.29237952259514   -0.00628709334051   -0.07811061540491
C         1.10637224068697   -0.02854625025673   -0.54123675019226
O         0.89475500072639    0.04897617918112    0.71440881750382
H        -0.85879123460743    0.91373402293439   -0.10512473045165
H        -0.84995648421080   -0.92787585851827    0.01006327854499
5
 energy: -9.227392227080 gnorm: 0.001716518047 xtb: 6.2.2 (9d81278992624c895f80dd42a50cac0aa55982e2)
C        -0.29366413282140   -0.00623486690703   -0.07717151988349
C         1.10610672924037   -0.02834772379986   -0.53803940870808
O         0.89813172093516    0.04885618738681    0.71222353063030
H        -0.85970418294433    0.91361776468427   -0.10609680508341
H        -0.85087013440980   -0.92789036136419    0.00908420304469
5
 energy: -9.227394681823 gnorm: 0.000990015897 xtb: 6.2.2 (9d81278992624c895f80dd42a50cac0aa55982e2)
C        -0.29463232388639   -0.00632589744946   -0.07854710820556
C         1.10676473758294   -0.02828897502703   -0.53716663946280
O         0.89827179322209    0.04881158668220    0.71150958905955
H        -0.85962017164523    0.91394949004481   -0.10550728982904
H        -0.85078403527342   -0.92814520425051    0.00971144843785
