$hessian                                                                        
        0.4265532750  -0.0785228820  -0.0433086628  -0.2256249997  -0.0197540239
       -0.0357888473  -0.1469047689   0.1013249423   0.0872234643  -0.0270397533
       -0.0072992686  -0.0100205269  -0.0269837531   0.0042512322   0.0018945727
       -0.0785228820   0.1703746006   0.1436787180  -0.0480781050  -0.0482572887
       -0.0322228687   0.1349186191  -0.1262873930  -0.1047537685  -0.0252072096
        0.0022132724  -0.0088222583   0.0168895775   0.0019568087   0.0021201775
       -0.0433086628   0.1436787180   0.1518978506  -0.0632641833  -0.0299296577
       -0.0531485800   0.1198351076  -0.1074716219  -0.1019832131  -0.0273539808
       -0.0073886619  -0.0001366861   0.0140917193   0.0011112235   0.0033706286
       -0.2256249997  -0.0480781050  -0.0632641833   0.5116337236  -0.0379015684
        0.0008542459  -0.0960595907   0.0501007048   0.0405426532  -0.0736486884
       -0.0582399231  -0.0609111766  -0.1163004448   0.0941188917   0.0827784608
       -0.0197540239  -0.0482572887  -0.0299296577  -0.0379015684   0.3229773280
        0.2658918974   0.0224216343   0.0025417102   0.0001129714  -0.0567738724
       -0.1403996105  -0.1232402043   0.0920078304  -0.1368621391  -0.1128350068
       -0.0357888473  -0.0322228687  -0.0531485800   0.0008542459   0.2658918974
        0.3030957264   0.0136661327   0.0023570713   0.0076608083  -0.0594961914
       -0.1233565997  -0.1422561395   0.0807646602  -0.1126695003  -0.1153518153
       -0.1469047689   0.1349186191   0.1198351076  -0.0960595907   0.0224216343
        0.0136661327   0.2475180718  -0.1556015836  -0.1315463182   0.0017089014
       -0.0013566037  -0.0009301203  -0.0062626136  -0.0003820661  -0.0010248018
        0.1013249423  -0.1262873930  -0.1074716219   0.0501007048   0.0025417102
        0.0023570713  -0.1556015836   0.1214290021   0.1013682722   0.0018831029
        0.0006981578   0.0036035674   0.0022928336   0.0016185227   0.0001427111
        0.0872234643  -0.1047537685  -0.1019832131   0.0405426532   0.0001129714
        0.0076608083  -0.1315463182   0.1013682722   0.0920348071   0.0021973235
        0.0033543753   0.0005541593   0.0015828772  -0.0000818504   0.0017334384
       -0.0270397533  -0.0252072096  -0.0273539808  -0.0736486884  -0.0567738724
       -0.0594961914   0.0017089014   0.0018831029   0.0021973235   0.0934229793
        0.0717947774   0.0764923666   0.0055565611   0.0083032017   0.0081604822
       -0.0072992686   0.0022132724  -0.0073886619  -0.0582399231  -0.1403996105
       -0.1233565997  -0.0013566037   0.0006981578   0.0033543753   0.0717947774
        0.1450365620   0.1390890769  -0.0048989821  -0.0075483817  -0.0116981906
       -0.0100205269  -0.0088222583  -0.0001366861  -0.0609111766  -0.1232402043
       -0.1422561395  -0.0009301203   0.0036035674   0.0005541593   0.0764923666
        0.1390890769   0.1483807533  -0.0046305428  -0.0106301817  -0.0065420870
       -0.0269837531   0.0168895775   0.0140917193  -0.1163004448   0.0920078304
        0.0807646602  -0.0062626136   0.0022928336   0.0015828772   0.0055565611
       -0.0048989821  -0.0046305428   0.1439902504  -0.1062912595  -0.0918087139
        0.0042512322   0.0019568087   0.0011112235   0.0941188917  -0.1368621391
       -0.1126695003  -0.0003820661   0.0016185227  -0.0000818504   0.0083032017
       -0.0075483817  -0.0106301817  -0.1062912595   0.1408351894   0.1222703089
        0.0018945727   0.0021201775   0.0033706286   0.0827784608  -0.1128350068
       -0.1153518153  -0.0010248018   0.0001427111   0.0017334384   0.0081604822
       -0.0116981906  -0.0065420870  -0.0918087139   0.1222703089   0.1167898352
