[Molden Format]
[Title]
[Atoms] AU
O      1     8  0.15235923444891E+01  0.35731055290464E+00  0.46966698219101E+00
C      2     6 -0.94280224136756E+00  0.21690858898941E+00  0.13489110479741E+00
C      3     6  0.32521648639135E+01 -0.94557876492176E+00 -0.65642557195013E+00
H      4     1 -0.17492707774754E+01 -0.10977518298739E+01 -0.12038620919919E+01
H      5     1 -0.20836841895695E+01  0.14691095631757E+01  0.12557295769569E+01
[GTO]
           1 0
 s           4   1.0000000000000000     
   69.137961906196551      -0.20478756370077797     
   11.906129132707308      -0.24997023136827334     
  0.95670827744340703       0.40025880240639616     
  0.36462520496073686       0.15952206667693555     
 p           4   1.0000000000000000     
   8.2124193257781641        1.1321556799186829     
   2.1293576997098116        1.0476840782254817     
  0.75066448202360914       0.54956508217158984     
  0.29885246543283073        8.2908486592766617E-002

           2 0
 s           4   1.0000000000000000     
   51.049363095579913      -0.16312063210127389     
   8.7911227406887544      -0.19911024581000730     
  0.70640422258929825       0.31882047753655751     
  0.26922813413411617       0.12706504184240380     
 p           4   1.0000000000000000     
   5.8263656140800002       0.73716451545209605     
   1.5106896018720002       0.68216371614850257     
  0.53256483288000001       0.35783053929253711     
  0.21202323690600003        5.3983030275847881E-002

           3 0
 s           4   1.0000000000000000     
   51.049363095579913      -0.16312063210127389     
   8.7911227406887544      -0.19911024581000730     
  0.70640422258929825       0.31882047753655751     
  0.26922813413411617       0.12706504184240380     
 p           4   1.0000000000000000     
   5.8263656140800002       0.73716451545209605     
   1.5106896018720002       0.68216371614850257     
  0.53256483288000001       0.35783053929253711     
  0.21202323690600003        5.3983030275847881E-002

           4 0
 s           3   1.0000000000000000     
   3.3702276975336001       0.27359110588908298     
  0.61389118221497996       0.26460540653860526     
  0.16614291148415999        8.2465947534082318E-002

           5 0
 s           3   1.0000000000000000     
   3.3702276975336001       0.27359110588908298     
  0.61389118221497996       0.26460540653860526     
  0.16614291148415999        8.2465947534082318E-002

[MO]
Sym=     1a
Ene=  -0.76703029978829407     
Spin= Alpha
Occup=     2.00000000
           1  0.74532262491660972     
           2  -2.7578022960569964E-002
           3  -6.5552887980527497E-002
           4  -6.5890375852149213E-002
           5  0.18961023054487763     
           6  0.17167219506445827     
           7  -1.6014814978536926E-004
           8   1.3653508041620693E-002
           9  0.18503198739288951     
          10  -9.3145268587364854E-002
          11   6.0201107504233013E-002
          12   5.0961197521687020E-002
          13   1.3134366092825115E-002
          14   9.9935072485636111E-003
Sym=     2a
Ene=  -0.70456694281435017     
Spin= Alpha
Occup=     2.00000000
           1   5.3710621457283399E-002
           2  0.56167475849426085     
           3 -0.14308312251277297     
           4  -9.3740708295524361E-002
           5 -0.36328048081833153     
           6 -0.13469165121095031     
           7  -4.7221997990596100E-002
           8  -5.6683818968406574E-002
           9  0.32801289898130331     
          10  -6.0052257543660718E-002
          11   9.0314267880668625E-002
          12   8.2869190648571192E-002
          13  -6.2785828152349926E-002
          14  -9.4249039142332874E-002
Sym=     3a
Ene=  -0.62714855845741924     
Spin= Alpha
Occup=     2.00000000
           1  0.34006188063279191     
           2  0.11530094384512492     
           3  0.43639266687483996     
           4  0.43280747099332112     
           5 -0.26166831434382293     
           6   6.1045306486298342E-002
           7  0.18911463285061142     
           8  0.18839424216086961     
           9 -0.22768917279760881     
          10  0.10719261533456394     
          11   5.4061172981449614E-002
          12   6.1063425593037346E-002
          13 -0.23444935771742426     
          14  -2.0781891324481046E-002
Sym=     4a
Ene=  -0.59264893357912418     
Spin= Alpha
Occup=     2.00000000
           1  -1.4237051529035596E-004
           2   4.6910260618611026E-002
           3  0.56353296052890123     
           4 -0.58046037940325557     
           5   3.2353237477046511E-004
           6   1.9187694928107048E-002
           7  0.23600017090746792     
           8 -0.24285397394119457     
           9   2.2641540775106343E-004
          10   1.3883220418373128E-002
          11  0.16757631738985868     
          12 -0.17251633909153530     
          13  -6.2369323022799097E-006
          14   5.7308103541864536E-004
Sym=     5a
Ene=  -0.58077571666479932     
Spin= Alpha
Occup=     2.00000000
           1   2.2504790271281133E-002
           2  0.31235713623089573     
           3  0.16382457757151067     
           4  0.18530750043095118     
           5  0.32443211377485598     
           6 -0.41203744641282852     
           7  0.10484406874969851     
           8   6.8981369840164813E-002
           9   9.8032964864636044E-002
          10   7.0256859376962841E-002
          11   7.2861931659053775E-002
          12   7.6756929805082696E-002
          13  0.20454633003140629     
          14  0.38294389543584717     
Sym=     6a
Ene=  -0.51270183585115492     
Spin= Alpha
Occup=     2.00000000
           1  0.19900650721186047     
           2  0.14148300251396098     
           3  0.21691464091389603     
           4  0.22112447614281194     
           5   1.1172561280992267E-002
           6  -4.6962613379424145E-002
           7 -0.34140568447992753     
           8 -0.33482130560938872     
           9 -0.37414788442531566     
          10   1.3021920565219381E-002
          11  0.10957367414403471     
          12  0.10703434171437985     
          13  0.41491291723968560     
          14 -0.32461806924030012     
Sym=     7a
Ene=  -0.43998311739763768     
Spin= Alpha
Occup=     2.00000000
           1  -2.9756500299010853E-002
           2 -0.10834691799134824     
           3  0.26865557684563379     
           4  0.25169703020094220     
           5   4.1503858425335272E-002
           6  0.11086181212654780     
           7  -8.2766285430186257E-002
           8  -7.0712309044942634E-002
           9  0.68896293232607253     
          10  0.47434698545450293     
          11 -0.24264984092437983     
          12 -0.19783766503917269     
          13  0.13675675283440306     
          14 -0.17318165888622178     
Sym=     8a
Ene=  -0.37271693261226685     
Spin= Alpha
Occup=     1.00000000
           1  -1.2818614360232344E-004
           2   1.3470584293527800E-002
           3  0.16208574186318353     
           4 -0.16752224406192803     
           5   3.8424315897293841E-005
           6  -4.9565194708438280E-002
           7 -0.59482403176764298     
           8  0.61405813615683713     
           9  -1.8419673385238280E-004
          10   2.8782647081776774E-002
          11  0.35338347503359069     
          12 -0.36381812959574183     
          13  -7.8580816374479543E-005
          14   2.5546568291726180E-005
Sym=     9a
Ene=  -0.29594883215309054     
Spin= Alpha
Occup=     1.00000000
           1  0.19272656841282537     
           2   8.1368761410912288E-002
           3  0.19169759891071786     
           4  0.19261352926243666     
           5 -0.17263620358902629     
           6 -0.18044918437411306     
           7   5.7330587102275097E-003
           8  -9.0955311166963544E-003
           9   2.6029942431825714E-002
          10 -0.62017447155728744     
          11 -0.50709368758151485     
          12 -0.54202667634665358     
          13  0.10248833338356861     
          14   1.9605660948647439E-002
Sym=    10a
Ene=  -0.24936416645493623     
Spin= Alpha
Occup=     0.00000000
           1   1.0756714026004478E-004
           2  -3.4290231648819489E-002
           3 -0.41411992482048426     
           4  0.42670789611256649     
           5  -5.6915263387665126E-005
           6   2.4656626188614993E-002
           7  0.29661994476194553     
           8 -0.30624147522322320     
           9  -6.5821794381392891E-006
          10   4.8872419059918737E-002
          11  0.58948158800937345     
          12 -0.60730683689279874     
          13  -1.2077803629651091E-004
          14   1.8321714605479817E-004
Sym=    11a
Ene=    7.3353236001060029E-002
Spin= Alpha
Occup=     0.00000000
           1 -0.43663878840712228     
           2  0.27663746708328513     
           3  0.18806079828346364     
           4  0.20494907295917333     
           5   1.0848196343297694     
           6  -3.1545831996869673E-002
           7   5.5827087275672482E-002
           8   5.1299341450567894E-002
           9  0.16102761083212919     
          10 -0.34301961457830193     
          11   8.8172994397537119E-002
          12   5.8024490976853534E-002
          13 -0.56025289705195591     
          14 -0.71373670959358282     
Sym=    12a
Ene=   0.15029413273426803     
Spin= Alpha
Occup=     0.00000000
           1  0.72841223171525604     
           2 -0.12505613972264754     
           3 -0.24527546440019679     
           4 -0.24837631644344704     
           5  0.23985475735735950     
           6 -0.79579372933554171     
           7 -0.24970392196225541     
           8 -0.30594224142630183     
           9 -0.29901777942664182     
          10  0.45372723330067810     
          11 -0.26971884466062340     
          12 -0.22534100293034975     
          13 -0.71306034205985969     
          14 -0.17180850255541613     
Sym=    13a
Ene=   0.24577697839264115     
Spin= Alpha
Occup=     0.00000000
           1 -0.18854603944918311     
           2  0.42940390656519700     
           3  0.10073884717703671     
           4  0.13200323891422852     
           5  0.13555083932825035     
           6  0.61244515600690064     
           7 -0.68437273237309115     
           8 -0.61353061731473491     
           9 -0.10351103453685145     
          10   3.8790843760750107E-002
          11 -0.11471265130782438     
          12 -0.10816483174601621     
          13 -0.61692251726339076     
          14  0.88793296314137027     
Sym=    14a
Ene=   0.45063302894492868     
Spin= Alpha
Occup=     0.00000000
           1 -0.15445604834572893     
           2 -0.88453943847729133     
           3  0.36422227829321407     
           4  0.28239485754702337     
           5 -0.30365273137376053     
           6 -0.50337945444664034     
           7 -0.37127171841915790     
           8 -0.40038752600018518     
           9  0.55928996745168968     
          10 -0.49638369122791082     
          11  0.44284666024810665     
          12  0.39012050757537153     
          13 -0.40059472540074276     
          14  0.23454060866932527     
