5
 energy: -9.060880374387 gnorm: 0.155732595777 xtb: 6.2.2 (9d81278992624c895f80dd42a50cac0aa55982e2)
O         0.69896200000000   -0.37936400000000    0.45553300000000
C        -0.42021200000000    0.16667800000000   -0.17225700000000
C         1.76894500000000   -0.03874100000000   -0.37161000000000
H        -1.13822800000000   -0.64273200000000   -0.42030400000000
H        -0.90946700000000    0.89415800000000    0.50863800000000
5
 energy: -9.083300375399 gnorm: 0.087804401524 xtb: 6.2.2 (9d81278992624c895f80dd42a50cac0aa55982e2)
O         0.73701860975585   -0.34679427299530    0.39228207573620
C        -0.47575800130147    0.13420897589115   -0.10485871208542
C         1.79896478721943   -0.06128025390942   -0.34171921262151
H        -1.14863132681087   -0.65932119928838   -0.45413431091036
H        -0.91159406886294    0.93318575030195    0.50843015988110
5
 energy: -9.089772684387 gnorm: 0.038007359316 xtb: 6.2.2 (9d81278992624c895f80dd42a50cac0aa55982e2)
O         0.76422950938897   -0.31700735500743    0.33630153831390
C        -0.50581401498948    0.11247700548356   -0.06150408663458
C         1.78433440384192   -0.07945830466737   -0.30804157217794
H        -1.13988157734825   -0.65417774757344   -0.46461235048870
H        -0.90286832089316    0.93816540176468    0.49785647098733
5
 energy: -9.090504140953 gnorm: 0.009344381182 xtb: 6.2.2 (9d81278992624c895f80dd42a50cac0aa55982e2)
O         0.76092118018463   -0.32006224773883    0.34220206605200
C        -0.51069431431234    0.10768651876834   -0.05236613080278
C         1.79944638543647   -0.07690619115218   -0.31601896343259
H        -1.14402750813629   -0.65618496647051   -0.47096425421647
H        -0.90564574317247    0.94546588659319    0.49714728239984
5
 energy: -9.090754778849 gnorm: 0.008282050269 xtb: 6.2.2 (9d81278992624c895f80dd42a50cac0aa55982e2)
O         0.76294860116560   -0.32159353735405    0.34430307986418
C        -0.51486097776546    0.09758689537621   -0.03461179361671
C         1.79786189350874   -0.07412318148886   -0.32030263851403
H        -1.14268368764029   -0.65536437706943   -0.48094639990256
H        -0.90326582926859    0.95349320053614    0.49155775216912
5
 energy: -9.091289609703 gnorm: 0.005805464530 xtb: 6.2.2 (9d81278992624c895f80dd42a50cac0aa55982e2)
O         0.76764455668374   -0.32623283942836    0.35125577509839
C        -0.52427930490650    0.06694055032431    0.01852494217610
C         1.78836723602529   -0.06513082076273   -0.33329070307363
H        -1.13583063448036   -0.64472894634968   -0.50613485052537
H        -0.89590185332218    0.96915105621646    0.46964483632450
5
 energy: -9.091641656214 gnorm: 0.008694286464 xtb: 6.2.2 (9d81278992624c895f80dd42a50cac0aa55982e2)
O         0.77233694960980   -0.33188354536227    0.36074890020579
C        -0.53313306988973    0.03481399796696    0.07416997797193
C         1.77204271871256   -0.05491199443695   -0.34751299585952
H        -1.12541207689351   -0.63213339397920   -0.53267002360628
H        -0.88583452153911    0.98411393581145    0.44526414128808
5
 energy: -9.091774164671 gnorm: 0.013308945335 xtb: 6.2.2 (9d81278992624c895f80dd42a50cac0aa55982e2)
O         0.77566225915656   -0.33558314298445    0.37052119733594
C        -0.55021153414177   -0.01031919987844    0.15397576018406
C         1.74880371421822   -0.04300552177975   -0.36601119878981
H        -1.10464148343905   -0.60629269806506   -0.56500003434566
H        -0.86961295579395    0.99519956270770    0.40651427561547
5
 energy: -9.091885051181 gnorm: 0.006621981432 xtb: 6.2.2 (9d81278992624c895f80dd42a50cac0aa55982e2)
O         0.76997613063237   -0.33062701372514    0.36479503595607
C        -0.54512621174935    0.00993136836282    0.11918130625894
C         1.75438400230733   -0.04978692607890   -0.35711927642421
H        -1.10610679587608   -0.61010558202718   -0.54622846537637
H        -0.87312712531427    0.98058715346840    0.41937139958557
5
 energy: -9.091967901666 gnorm: 0.003417498190 xtb: 6.2.2 (9d81278992624c895f80dd42a50cac0aa55982e2)
O         0.77210111179795   -0.33126028323299    0.37100056710258
C        -0.54631234993246    0.00637994366188    0.12667964495413
C         1.74886338947208   -0.04957802710822   -0.36199908484926
H        -1.10280394239670   -0.61197363241338   -0.55456257395311
H        -0.87184820894086    0.98643099909270    0.41888144674565
5
 energy: -9.092002399614 gnorm: 0.004453554051 xtb: 6.2.2 (9d81278992624c895f80dd42a50cac0aa55982e2)
O         0.77362971436795   -0.32681441516260    0.37788695823760
C        -0.54965967915156    0.00118765883236    0.13898011582087
C         1.74207326693610   -0.05329931154561   -0.36906158763975
H        -1.09429845632701   -0.60807230818581   -0.56372430158124
H        -0.87174484582548    0.98699737606165    0.41591881516252
5
 energy: -9.092050210786 gnorm: 0.017796813067 xtb: 6.2.2 (9d81278992624c895f80dd42a50cac0aa55982e2)
O         0.78053137913934   -0.29687153684664    0.40949762138226
C        -0.55950140760863   -0.00893243768642    0.17351562186721
C         1.71797194361011   -0.08181399100769   -0.39997718674584
H        -1.05728058450540   -0.59551035813035   -0.59968712684676
H        -0.88172133063542    0.98312732367109    0.41665107034313
5
 energy: -9.092230471534 gnorm: 0.012819786432 xtb: 6.2.2 (9d81278992624c895f80dd42a50cac0aa55982e2)
O         0.77986137769764   -0.29602815186934    0.40586687978602
C        -0.55738156393058   -0.00441119023025    0.16083696233525
C         1.72207842532348   -0.08288613064929   -0.39551930680211
H        -1.06106658910748   -0.59814158254370   -0.59355537513033
H        -0.88349164998306    0.98146605529258    0.42237083981117
5
 energy: -9.093443489483 gnorm: 0.037021085066 xtb: 6.2.2 (9d81278992624c895f80dd42a50cac0aa55982e2)
O         0.79091486632081   -0.20595358662069    0.44798412489423
C        -0.55785713895778    0.01713336472557    0.13260012212493
C         1.70743452843935   -0.17296002369670   -0.43348951420321
H        -1.00426328890698   -0.59143429842737   -0.62691939594226
H        -0.93622896689541    0.95321354401920    0.47982466312631
5
 energy: -9.094172834640 gnorm: 0.067240817350 xtb: 6.2.2 (9d81278992624c895f80dd42a50cac0aa55982e2)
O         0.79618783458207   -0.11178517131727    0.45627238306096
C        -0.55074704158683    0.04467213186849    0.10481664344765
C         1.71345966980645   -0.26992596622123   -0.45641903058969
H        -0.95286898133498   -0.58392477552121   -0.64226127098914
H        -1.00603148146671    0.92096278119123    0.53759127507023
5
 energy: -9.097019015893 gnorm: 0.052468666083 xtb: 6.2.2 (9d81278992624c895f80dd42a50cac0aa55982e2)
O         0.78351825606090   -0.08666108070167    0.39640800705418
C        -0.53407744399171    0.05659409689203    0.09147464412049
C         1.74506173054656   -0.29510448768252   -0.42880135690169
H        -0.95500489933069   -0.57957344529803   -0.60874504743812
H        -1.03949764328505    0.90474391679020    0.54966375316514
5
 energy: -9.099988690118 gnorm: 0.028299681614 xtb: 6.2.2 (9d81278992624c895f80dd42a50cac0aa55982e2)
O         0.77661842983751   -0.01206530625731    0.37475649704828
C        -0.52041180811413    0.07358308275300    0.11341461195442
C         1.74050654478299   -0.35689141744878   -0.43208369767732
H        -0.92904473682965   -0.58129628598660   -0.62552193930741
H        -1.06766842967672    0.87666892693969    0.56943452798203
5
 energy: -9.101509498386 gnorm: 0.031843097477 xtb: 6.2.2 (9d81278992624c895f80dd42a50cac0aa55982e2)
O         0.78459130253434    0.07165964536762    0.35281168178053
C        -0.50448987824557    0.07128071623268    0.11132619802594
C         1.73775436797308   -0.40956190640314   -0.42057524116467
H        -0.93579744002072   -0.57580244942237   -0.63830804404448
H        -1.08205835224113    0.84242299422521    0.59474540540267
5
 energy: -9.101129764891 gnorm: 0.030829328774 xtb: 6.2.2 (9d81278992624c895f80dd42a50cac0aa55982e2)
O         0.79697980463017    0.08156901949340    0.33241967811581
C        -0.50220820215945    0.04689469642426    0.12531406020925
C         1.72470484867976   -0.38884831061992   -0.39322987462866
H        -0.97838314640495   -0.57885996357712   -0.64507620798825
H        -1.04109330474553    0.83924355827939    0.58057234429185
5
 energy: -9.102515267704 gnorm: 0.018232904165 xtb: 6.2.2 (9d81278992624c895f80dd42a50cac0aa55982e2)
O         0.79917850020477    0.11387406737995    0.31461207061557
C        -0.49666540577864    0.07635837029228    0.09770904513098
C         1.74305910523825   -0.43330938272922   -0.39021210871463
H        -0.96082236463094   -0.58657729851856   -0.63504510171925
H        -1.08474983503342    0.82965324357556    0.61293609468732
5
 energy: -9.102775894531 gnorm: 0.014953758479 xtb: 6.2.2 (9d81278992624c895f80dd42a50cac0aa55982e2)
O         0.79821338039045    0.12928971498020    0.30456055126547
C        -0.50474944512378    0.07562514767787    0.10503953062469
C         1.73836392407148   -0.44785749246933   -0.38815511402820
H        -0.94324761056204   -0.58224672720053   -0.63694153764803
H        -1.08858024877611    0.82518835701179    0.61549656978606
5
 energy: -9.103189692415 gnorm: 0.008002188380 xtb: 6.2.2 (9d81278992624c895f80dd42a50cac0aa55982e2)
O         0.80104725673312    0.14772852490091    0.28596421151683
C        -0.49913151127722    0.10536980475696    0.07533985675331
C         1.73308954039993   -0.46852062281960   -0.37172873982304
H        -0.93789872427043   -0.58733385295778   -0.63118767586794
H        -1.09710656158540    0.80275514611951    0.64161234742085
5
 energy: -9.103339631255 gnorm: 0.003611731446 xtb: 6.2.2 (9d81278992624c895f80dd42a50cac0aa55982e2)
O         0.80296771964380    0.16538591310262    0.27087759087951
C        -0.49807921922827    0.10983157625384    0.07420618965021
C         1.72496584014033   -0.48284751092131   -0.36272508185765
H        -0.92922671907303   -0.58326114615452   -0.63234160969296
H        -1.10062762148283    0.79089016771938    0.64998291102088
5
 energy: -9.103395610997 gnorm: 0.001733622254 xtb: 6.2.2 (9d81278992624c895f80dd42a50cac0aa55982e2)
O         0.80564182201604    0.18345522037027    0.25555033089017
C        -0.49794746533206    0.11438488529812    0.07253601033645
C         1.72056983883353   -0.49721724515057   -0.35301799547893
H        -0.92412982776738   -0.58096210290190   -0.63521177624888
H        -1.10413436775013    0.78033824238409    0.66014343050119
5
 energy: -9.103401967068 gnorm: 0.000813446737 xtb: 6.2.2 (9d81278992624c895f80dd42a50cac0aa55982e2)
O         0.80659851839806    0.19089038396725    0.24817716598327
C        -0.49856752245881    0.11526073350189    0.07192482367055
C         1.71971390555265   -0.50212990720139   -0.34760776183121
H        -0.92400830633066   -0.58051160557926   -0.63727639401773
H        -1.10373659516124    0.77648939531152    0.66478216619512
5
 energy: -9.103403669018 gnorm: 0.000265249311 xtb: 6.2.2 (9d81278992624c895f80dd42a50cac0aa55982e2)
O         0.80624856461585    0.18908440708566    0.24854023110316
C        -0.49891035696949    0.11478035592523    0.07137976403944
C         1.72097552423139   -0.50036916268450   -0.34736035153224
H        -0.92566905164461   -0.58090904042433   -0.63706068833507
H        -1.10264468023313    0.77741244009794    0.66450104472471
