5
 energy: -11.014074769767 gnorm: 0.067135452704 xtb: 6.2.2 (9d81278992624c895f80dd42a50cac0aa55982e2)
O         0.73644700000000   -0.17695200000000    0.52422600000000
C        -0.42249600000000    0.00448900000000   -0.22939800000000
O         1.71947700000000    0.07826700000000   -0.31314500000000
H        -0.92384900000000    0.94485300000000    0.08101400000000
H        -1.10957800000000   -0.85065700000000   -0.06269600000000
5
 energy: -11.022878935195 gnorm: 0.047346767321 xtb: 6.2.2 (9d81278992624c895f80dd42a50cac0aa55982e2)
O         0.75728367179688   -0.16746822696527    0.52936593594769
C        -0.45391788923671    0.00632184270727   -0.12078771964546
O         1.72875453959825    0.06322076083680   -0.33564971077989
H        -0.93024642112444    0.98845957439994    0.04751957861337
H        -1.10187290103399   -0.89053395097874   -0.12044708413572
5
 energy: -11.028062169839 gnorm: 0.028058462115 xtb: 6.2.2 (9d81278992624c895f80dd42a50cac0aa55982e2)
O         0.75630752468356   -0.13571827548289    0.50698208162507
C        -0.48618258903771    0.01313113435099   -0.04596487600835
O         1.76231294783186    0.02919174286842   -0.34084336772707
H        -0.95036391524688    0.98729444829329    0.03736919652374
H        -1.08207296823083   -0.89389905002981   -0.15754203441340
5
 energy: -11.029918418556 gnorm: 0.015657622301 xtb: 6.2.2 (9d81278992624c895f80dd42a50cac0aa55982e2)
O         0.75011376386318   -0.10699943828170    0.47859293068691
C        -0.50777775148201    0.01506645466803    0.00953800742589
O         1.79174671329277   -0.00073192222181   -0.33919367029045
H        -0.97026922027011    0.98337503695263    0.03380173637517
H        -1.06381250540383   -0.89071013111715   -0.18273800419753
5
 energy: -11.030178673266 gnorm: 0.005073091754 xtb: 6.2.2 (9d81278992624c895f80dd42a50cac0aa55982e2)
O         0.74927120660193   -0.09849646720577    0.47411427122803
C        -0.50681544234422    0.01274697363068    0.02968881926290
O         1.79020084378367   -0.00923150149701   -0.34133517836245
H        -0.97512012059018    0.98365608183394    0.03119581960688
H        -1.05753548745121   -0.88867508676185   -0.19366273173536
5
 energy: -11.030240203318 gnorm: 0.002801197578 xtb: 6.2.2 (9d81278992624c895f80dd42a50cac0aa55982e2)
O         0.75027970025415   -0.08879258775816    0.47685062220936
C        -0.50340308402465    0.01278240322192    0.04110666349621
O         1.78579255274193   -0.01901366713764   -0.34578089383868
H        -0.98056453901336    0.98076667973538    0.03133312121856
H        -1.05210362995807   -0.88574282806150   -0.20350851308546
5
 energy: -11.030251913294 gnorm: 0.002576194769 xtb: 6.2.2 (9d81278992624c895f80dd42a50cac0aa55982e2)
O         0.75135669096033   -0.08853763886217    0.47883797641723
C        -0.50261983030605    0.01187645960115    0.04413221367713
O         1.78269735527425   -0.01948226738515   -0.34728391464354
H        -0.98064839152934    0.97994354741388    0.03009098964780
H        -1.05078482439919   -0.88380010076771   -0.20577626509862
5
 energy: -11.030268355992 gnorm: 0.002578956941 xtb: 6.2.2 (9d81278992624c895f80dd42a50cac0aa55982e2)
O         0.75340782949094   -0.08521656424667    0.48425392869896
C        -0.50271188218790    0.01204171690358    0.05187702100111
O         1.77701461560690   -0.02387669418875   -0.35171280978307
H        -0.98189928781490    0.97976079441701    0.02833014802105
H        -1.04581027509504   -0.88270925288518   -0.21274728793806
5
 energy: -11.030281559768 gnorm: 0.002207166622 xtb: 6.2.2 (9d81278992624c895f80dd42a50cac0aa55982e2)
O         0.75407750640358   -0.08536403649481    0.48883699082433
C        -0.50430567589831    0.01156357284710    0.05851180872398
O         1.77088127652117   -0.02449396572261   -0.35522259857630
H        -0.97945881982570    0.98040567982163    0.02540028819142
H        -1.04119328720074   -0.88211125045130   -0.21752548916343
5
 energy: -11.030289670975 gnorm: 0.001752677259 xtb: 6.2.2 (9d81278992624c895f80dd42a50cac0aa55982e2)
O         0.75408808103766   -0.08637747953053    0.49240258541499
C        -0.50625775763969    0.01108626392093    0.06537145729293
O         1.76616260884268   -0.02389976778927   -0.35830186247281
H        -0.97624216726662    0.98174004543032    0.02212542140681
H        -1.03774976497403   -0.88254906203144   -0.22159660164193
5
 energy: -11.030294275675 gnorm: 0.001139215289 xtb: 6.2.2 (9d81278992624c895f80dd42a50cac0aa55982e2)
O         0.75339772180595   -0.08971507861094    0.49476942961179
C        -0.50777716632342    0.00990851866924    0.07097254920821
O         1.76279791087354   -0.02020436990345   -0.36046734178451
H        -0.97149560114362    0.98253991275485    0.01825695059748
H        -1.03692186521246   -0.88252898290971   -0.22353058763297
5
 energy: -11.030295948177 gnorm: 0.000277272542 xtb: 6.2.2 (9d81278992624c895f80dd42a50cac0aa55982e2)
O         0.75338109081997   -0.09080836589283    0.49446307706600
C        -0.50712732845836    0.00953832947498    0.07119877230619
O         1.76359563744535   -0.01870879026419   -0.36037825090491
H        -0.97115935675291    0.98216715635521    0.01765660890181
H        -1.03868904305404   -0.88218832967318   -0.22293920736909
