[Molden Format]
[Title]
[Atoms] AU
O      1     8  0.14236861601732E+01 -0.17160874901120E+00  0.93439503760351E+00
C      2     6 -0.95833110813293E+00  0.18030081359343E-01  0.13454948133342E+00
O      3     8  0.33327098777654E+01 -0.35373125068114E-01 -0.68102770394796E+00
H      4     1 -0.18352152027302E+01  0.18560364293338E+01  0.33369318784168E-01
H      5     1 -0.19628478373430E+01 -0.16670846366204E+01 -0.42128424405379E+00
[GTO]
           1 0
 s           4   1.0000000000000000     
   69.137961906196551      -0.20478756370077797     
   11.906129132707308      -0.24997023136827334     
  0.95670827744340703       0.40025880240639616     
  0.36462520496073686       0.15952206667693555     
 p           4   1.0000000000000000     
   8.2124193257781641        1.1321556799186829     
   2.1293576997098116        1.0476840782254817     
  0.75066448202360914       0.54956508217158984     
  0.29885246543283073        8.2908486592766617E-002

           2 0
 s           4   1.0000000000000000     
   51.049363095579913      -0.16312063210127389     
   8.7911227406887544      -0.19911024581000730     
  0.70640422258929825       0.31882047753655751     
  0.26922813413411617       0.12706504184240380     
 p           4   1.0000000000000000     
   5.8263656140800002       0.73716451545209605     
   1.5106896018720002       0.68216371614850257     
  0.53256483288000001       0.35783053929253711     
  0.21202323690600003        5.3983030275847881E-002

           3 0
 s           4   1.0000000000000000     
   69.137961906196551      -0.20478756370077797     
   11.906129132707308      -0.24997023136827334     
  0.95670827744340703       0.40025880240639616     
  0.36462520496073686       0.15952206667693555     
 p           4   1.0000000000000000     
   8.2124193257781641        1.1321556799186829     
   2.1293576997098116        1.0476840782254817     
  0.75066448202360914       0.54956508217158984     
  0.29885246543283073        8.2908486592766617E-002

           4 0
 s           3   1.0000000000000000     
   3.3702276975336001       0.27359110588908298     
  0.61389118221497996       0.26460540653860526     
  0.16614291148415999        8.2465947534082318E-002

           5 0
 s           3   1.0000000000000000     
   3.3702276975336001       0.27359110588908298     
  0.61389118221497996       0.26460540653860526     
  0.16614291148415999        8.2465947534082318E-002

[MO]
Sym=     1a
Ene=  -0.77853453922029603     
Spin= Alpha
Occup=     2.00000000
           1 -0.74280532656048737     
           2   4.5628121331388070E-002
           3  -1.3892960996810526E-002
           4   9.5773846944748789E-002
           5 -0.19112556842133530     
           6 -0.16597356701879984     
           7   1.1636109652618520E-002
           8  -4.3359442002712870E-002
           9 -0.17663258499497272     
          10  0.15260380306653562     
          11   6.9455253578114612E-003
          12  -9.8221393817263872E-002
          13  -1.0735957777817034E-002
          14  -1.0743134997963427E-002
Sym=     2a
Ene=  -0.72966130308667965     
Spin= Alpha
Occup=     2.00000000
           1   6.2186649523277564E-002
           2 -0.50648339495260175     
           3  -4.6677729211223840E-004
           4  0.14929072897110360     
           5  0.26971239933728580     
           6  0.10226913888061455     
           7  -1.6196628584895199E-002
           8   9.7407140115640681E-002
           9 -0.53611393235990301     
          10   9.5329831614326330E-002
          11   1.4227214749860466E-002
          12 -0.13878414261850935     
          13   4.8117089230230628E-002
          14   4.8085407859777878E-002
Sym=     3a
Ene=  -0.66242585530330467     
Spin= Alpha
Occup=     2.00000000
           1  0.40487040827673360     
           2  0.25626260184561372     
           3  -7.1108349761137918E-002
           4  0.48322483531682980     
           5 -0.32272213908651759     
           6  -2.8268252809766668E-002
           7  -1.2644331411152366E-002
           8  0.10735526168810265     
           9 -0.44582649202851754     
          10   3.9937604220640785E-002
          11  -3.2231784034120484E-002
          12  0.24091010809995991     
          13 -0.11548643203480401     
          14 -0.11560911857105077     
Sym=     4a
Ene=  -0.62459840924516474     
Spin= Alpha
Occup=     2.00000000
           1  -2.9797350836567537E-006
           2   2.5959839784021797E-002
           3  0.70852555733555200     
           4   9.0626024689025933E-002
           5   5.8059746739822586E-005
           6   1.1943597116140129E-002
           7  0.32684002289748626     
           8   4.1898530401021573E-002
           9   3.0477481955750038E-004
          10   1.2309955523489053E-002
          11  0.33117385729891252     
          12   4.2214602123315806E-002
          13  0.14118806533017492     
          14 -0.14114848183168993     
Sym=     5a
Ene=  -0.60450213703226696     
Spin= Alpha
Occup=     2.00000000
           1  -8.9799661101878647E-002
           2  0.14699638031906517     
           3   5.6655058705664285E-002
           4 -0.48260126210120624     
           5  -2.3517738468493529E-002
           6   4.4886191343777679E-002
           7   2.4345884349672133E-002
           8 -0.20277730296791635     
           9 -0.62141516623348581     
          10 -0.47992362261074117     
          11  -9.2693399043606659E-003
          12  0.21224272658631985     
          13  -2.3896370054829284E-003
          14  -2.2004758917056029E-003
Sym=     6a
Ene=  -0.59030742780565526     
Spin= Alpha
Occup=     2.00000000
           1   3.0398973414745390E-002
           2  0.28434070978732856     
           3  -3.5847733640657180E-002
           4  0.19827705919872293     
           5  0.35805105325060077     
           6 -0.39284473892822130     
           7   2.4799574332100081E-002
           8  -8.1085719890183788E-002
           9  -8.5433655741549333E-002
          10   4.9440578128118480E-002
          11  -3.5138236201302277E-002
          12  0.26037518181075964     
          13  0.30150175611856900     
          14  0.30137830626388246     
Sym=     7a
Ene=  -0.51786071965093727     
Spin= Alpha
Occup=     2.00000000
           1  -1.8098824199589607E-004
           2  -1.0571960954691904E-002
           3 -0.28786601337179424     
           4  -3.7172200126022972E-002
           5  -3.5419583800838070E-005
           6   1.6566343089118914E-002
           7  0.45556987798150528     
           8   5.8804929402684530E-002
           9  -8.6129928060657148E-005
          10  -1.8880991665455923E-002
          11 -0.50169358477778192     
          12  -6.4095735695794187E-002
          13  0.35936296823060798     
          14 -0.35943836028119819     
Sym=     8a
Ene=  -0.45043292519929179     
Spin= Alpha
Occup=     2.00000000
           1  0.15576709723322907     
           2  0.13784847643391532     
           3  -4.0059418554227448E-002
           4  0.27298576479131603     
           5  -8.6741085737572651E-002
           6 -0.23259403608480245     
           7  -1.9635908089204878E-003
           8   8.0630636844243292E-002
           9   1.3655874543462012E-004
          10 -0.59468347766210516     
          11  0.11341020049681963     
          12 -0.71381873999914158     
          13   6.3723640002614088E-002
          14   6.3707541219107891E-002
Sym=     9a
Ene=  -0.41059218029024841     
Spin= Alpha
Occup=     1.00000000
           1  -7.5065400349344535E-004
           2  -2.3463105657634493E-002
           3 -0.63292660217286945     
           4  -8.1768583458257410E-002
           5   1.5620904450073890E-004
           6   3.5198535664921105E-003
           7  0.11276931000245333     
           8   1.7112132735754643E-002
           9   1.3552492612580898E-004
          10   2.8854675055957263E-002
          11  0.79839901367484345     
          12  0.10296907325998575     
          13  0.20041516026565989     
          14 -0.20064491566363854     
Sym=    10a
Ene=  -0.38570544892573144     
Spin= Alpha
Occup=     1.00000000
           1  0.23011282085074625     
           2   6.2684645777486822E-002
           3  -3.3574440121997409E-002
           4  0.22652893953167341     
           5  -4.4266499898515416E-002
           6  0.23664871036498708     
           7  0.10818359991036584     
           8 -0.90269852867849998     
           9  -6.2728826695986672E-002
          10  0.21242624427659684     
          11   2.5816248440835698E-002
          12 -0.24629686631030015     
          13   2.8142385419656388E-002
          14   2.6946945995750305E-002
Sym=    11a
Ene=   -5.9028248933716242E-002
Spin= Alpha
Occup=     0.00000000
           1  0.63467571986657656     
           2  0.24895848176732480     
           3   7.8088456530008163E-002
           4 -0.68160601737779825     
           5 -0.35925395746375816     
           6 -0.32842897118090125     
           7  -8.1062405858646804E-003
           8  0.15325519259633047     
           9 -0.41191547848559179     
          10  0.65247624380247815     
          11   3.5342649964757583E-002
          12 -0.46456844530288444     
          13  0.12975463195703490     
          14  0.12912666399403006     
Sym=    12a
Ene=    8.2536534774657347E-002
Spin= Alpha
Occup=     0.00000000
           1   2.9480396859138662E-002
           2  0.39816491266909426     
           3  -7.3336944408306810E-003
           4  -5.6575997465844685E-002
           5   1.0816290036824310     
           6 -0.28971702250760850     
           7   1.6748246525477333E-002
           8  -5.0033376896070278E-002
           9 -0.14228139115267732     
          10  0.14394949478822489     
          11   2.0034708450652035E-002
          12 -0.19846032064837632     
          13 -0.72087163952389055     
          14 -0.72122176583953779     
Sym=    13a
Ene=   0.23300850971593445     
Spin= Alpha
Occup=     0.00000000
           1  0.41548707868656071     
           2 -0.86648176978181402     
           3   4.1735548199109768E-002
           4  -7.7898706342218113E-002
           5 -0.22171501739709773     
           6 -0.98415874140086235     
           7   8.5266699166457058E-002
           8 -0.38326640247919580     
           9  0.20396525630493859     
          10 -0.15464410921094557     
          11  -2.6653416911740491E-002
          12  0.25312402906599929     
          13 -0.30512602376662906     
          14 -0.30486621615520854     
Sym=    14a
Ene=   0.25349492621399261     
Spin= Alpha
Occup=     0.00000000
           1  -1.4494183131685213E-004
           2   7.5848137281345944E-003
           3  0.21538009114082526     
           4   2.7949653478157505E-002
           5  -1.5613671027645150E-004
           6  -4.0637191371611599E-002
           7  -1.1221799877057266     
           8 -0.14485982024948638     
           9   2.0569003747957540E-004
          10  -1.5781014752838224E-003
          11  -3.6727810877125559E-002
          12  -4.4708379771735704E-003
          13  0.85731308792548955     
          14 -0.85716191641958861     
