 Entering Gaussian System
 *********************************************
 Gaussian 98:
 frequency output generated by the xtb code
 *********************************************
                         Standard orientation:
 --------------------------------------------------------------------
  Center     Atomic     Atomic              Coordinates (Angstroms)
  Number     Number      Type              X           Y           Z
 --------------------------------------------------------------------
    1          8             0        0.753382   -0.090811    0.494461
    2          6             0       -0.507127    0.009541    0.071201
    3          8             0        1.763594   -0.018719   -0.360384
    4          1             0       -0.971154    0.982172    0.017658
    5          1             0       -1.038694   -0.882183   -0.222934
 --------------------------------------------------------------------
     1 basis functions        1 primitive gaussians
     1 alpha electrons        1 beta electrons

 Harmonic frequencies (cm**-1), IR intensities (KM/Mole),
 Raman scattering activities (A**4/amu), Raman depolarization ratios,
 reduced masses (AMU), force constants (mDyne/A) and normal coordinates:
                      1                      2                      3
                        a                      a                      a 
 Frequencies --   268.9531               419.7543               488.6144
 Red. masses --     7.9005                 3.9860                 9.6333
 Frc consts  --     0.0000                 0.0000                 0.0000
 IR Inten    --     0.0599                 0.0344                 0.4072
 Raman Activ --     0.0000                 0.0000                 0.0000
 Depolar     --     0.0000                 0.0000                 0.0000
 Atom AN      X      Y      Z        X      Y      Z        X      Y      Z
   1   8    -0.11   0.06  -0.46     0.01   0.35   0.05     0.12  -0.05   0.37
   2   6    -0.20   0.01   0.01    -0.00  -0.08  -0.01     0.29   0.06  -0.57
   3   8     0.39  -0.04   0.22    -0.01  -0.26  -0.03    -0.33   0.02  -0.08
   4   1    -0.21  -0.05   0.47    -0.27  -0.12   0.56    -0.07  -0.03   0.39
   5   1    -0.21  -0.06   0.47     0.26   0.01  -0.57    -0.07  -0.06   0.39
                      4                      5                      6
                        a                      a                      a 
 Frequencies --   959.3118              1082.1435              1103.4331
 Red. masses --     3.8092                14.8007                13.8274
 Frc consts  --     0.0000                 0.0000                 0.0000
 IR Inten    --     0.1079                 0.7896                 0.5264
 Raman Activ --     0.0000                 0.0000                 0.0000
 Depolar     --     0.0000                 0.0000                 0.0000
 Atom AN      X      Y      Z        X      Y      Z        X      Y      Z
   1   8     0.01   0.24   0.03     0.21   0.06  -0.53     0.71  -0.03   0.04
   2   6    -0.02  -0.41  -0.05     0.31  -0.02   0.10    -0.63   0.04  -0.16
   3   8    -0.00   0.00   0.00    -0.56  -0.04   0.44    -0.11  -0.01   0.13
   4   1     0.56   0.18   0.20     0.16   0.02   0.02    -0.11   0.03  -0.06
   5   1    -0.54   0.27  -0.14     0.16  -0.04   0.01    -0.11  -0.01  -0.06
                      7                      8                      9
                        a                      a                      a 
 Frequencies --  1300.8822              3044.4610              3075.2031
 Red. masses --     2.2665                 1.3472                 2.1651
 Frc consts  --     0.0000                 0.0000                 0.0000
 IR Inten    --     0.0929                 0.0801                 0.0365
 Raman Activ --     0.0000                 0.0000                 0.0000
 Depolar     --     0.0000                 0.0000                 0.0000
 Atom AN      X      Y      Z        X      Y      Z        X      Y      Z
   1   8    -0.09  -0.00   0.03    -0.02   0.00  -0.00    -0.00  -0.01  -0.00
   2   6    -0.29   0.02  -0.07    -0.17   0.01  -0.05    -0.01  -0.32  -0.04
   3   8     0.07   0.00  -0.05     0.01   0.00  -0.00    -0.00  -0.00  -0.00
   4   1     0.56   0.30   0.20     0.28  -0.63   0.02    -0.31   0.60  -0.04
   5   1     0.53  -0.38   0.12     0.33   0.59   0.18     0.34   0.54   0.18
