5
 energy: -11.030295952757 gnorm: 0.000276937929 xtb: 6.2.2 (9d81278992624c895f80dd42a50cac0aa55982e2)
O         0.75338234134037   -0.09081144759377    0.49446060575662
C        -0.50712702997455    0.00954110905131    0.07120052586644
O         1.76359428149084   -0.01871865340118   -0.36038437435927
H        -0.97115415249111    0.98217227213503    0.01765828468227
H        -1.03869444036207   -0.88218328019488   -0.22293404194956
