      -----------------------------------------------------------      
     |                   =====================                   |     
     |                           x T B                           |     
     |                   =====================                   |     
     |                         S. Grimme                         |     
     |          Mulliken Center for Theoretical Chemistry        |     
     |                    University of Bonn                     |     
      -----------------------------------------------------------      

   * xtb version 6.2.2 (9d81278992624c895f80dd42a50cac0aa55982e2) compiled by '@Darwin' on 04/03/2020

   xtb is free software: you can redistribute it and/or modify it under
   the terms of the GNU Lesser General Public License as published by
   the Free Software Foundation, either version 3 of the License, or
   (at your option) any later version.
   
   xtb is distributed in the hope that it will be useful,
   but WITHOUT ANY WARRANTY; without even the implied warranty of
   MERCHANTABILITY or FITNESS FOR A PARTICULAR PURPOSE.  See the
   GNU Lesser General Public License for more details.
   
   Cite this work as:
   * S. Grimme, C. Bannwarth, P. Shushkov, J. Chem. Theory Comput., 2017,
     13, 1989-2009. DOI: 10.1021/acs.jctc.7b00118
   * C. Bannwarth, S. Ehlert and S. Grimme., J. Chem. Theory Comput., 2019,
     15, 1652-1671. DOI: 10.1021/acs.jctc.8b01176
   * P. Pracht, E. Caldeweyher, S. Ehlert, S. Grimme, ChemRxiv, 2019, preprint.
     DOI: 10.26434/chemrxiv.8326202.v1
   
   for DFT-D4:
   * E. Caldeweyher, C. Bannwarth and S. Grimme, J. Chem. Phys., 2017,
     147, 034112. DOI: 10.1063/1.4993215
   * E. Caldeweyher, S. Ehlert, A. Hansen, H. Neugebauer, S. Spicher,
     C. Bannwarth and S. Grimme, J. Chem. Phys., 2019, 150, 154122.
     DOI: 10.1063/1.5090222
   
   for sTDA-xTB:
   * S. Grimme and C. Bannwarth, J. Chem. Phys., 2016, 145, 054103.
     DOI: 10.1063/1.4959605
   
   in the mass-spec context:
   * V. Asgeirsson, C. Bauer and S. Grimme, Chem. Sci., 2017, 8, 4879.
     DOI: 10.1039/c7sc00601b
   
   for metadynamics refer to:
   * S. Grimme, J. Chem. Theory Comput., 2019, 155, 2847-2862
     DOI: 10.1021/acs.jctc.9b00143
   
   with help from (in alphabetical order)
   C. Bannwarth, F. Bohle, G. Brandenburg, E. Caldeweyher, M. Checinski,
   S. Dohm, S. Ehlert, S. Ehrlich, F. März, H. Neugebauer, J. Pisarek,
   P. Pracht, P. Shushkov, and S. Spicher.
   
 * started run on 2020/05/12 at 11:43:52.816     

           -------------------------------------------------
          |                Calculation Setup                |
           -------------------------------------------------

          program call               : xtb --input H2C1O2_3_S_2.input H2C1O2_3_S_2.xyz --ohess --molden --namespace H2C1O2_3_S_2 output.out
          calculation namespace      : H2C1O2_3_S_2
          coordinate file            : H2C1O2_3_S_2.xyz
          number of atoms            :                     5
          number of electrons        :                    18
          charge                     :                     0
          spin                       :                   1.0
          first test random number   :      0.96536827149135

   ID    Z sym.   atoms
    1    8 O      1, 3
    2    6 C      2
    3    1 H      4, 5

           -------------------------------------------------
          |                 G F N 2 - x T B                 |
           -------------------------------------------------

        Reference                      10.1021/acs.jctc.8b01176
      * Hamiltonian:
        H0-scaling (s, p, d)           1.850000    2.230000    2.230000
        zeta-weighting                 0.500000
      * Dispersion:
        s8                             2.700000
        a1                             0.520000
        a2                             5.000000
        s9                             5.000000
      * Repulsion:
        kExp                           1.500000    1.000000
        rExp                           1.000000
      * Coulomb:
        alpha                          2.000000
        third order                    shell-resolved
        anisotropic                    true
        a3                             3.000000
        a5                             4.000000
        cn-shift                       1.200000
        cn-exp                         4.000000
        max-rad                        5.000000


          ...................................................
          :                      SETUP                      :
          :.................................................:
          :  # basis functions                  14          :
          :  # atomic orbitals                  14          :
          :  # shells                            8          :
          :  # electrons                        18          :
          :  max. iterations                   250          :
          :  Hamiltonian                  GFN2-xTB          :
          :  restarted?                      false          :
          :  GBSA solvation                  false          :
          :  PC potential                    false          :
          :  electronic temp.          300.0000000     K    :
          :  accuracy                    1.0000000          :
          :  -> integral cutoff          0.2500000E+02      :
          :  -> integral neglect         0.1000000E-07      :
          :  -> SCF convergence          0.1000000E-05 Eh   :
          :  -> wf. convergence          0.1000000E-03 e    :
          :  Broyden damping             0.4000000          :
          ...................................................

 iter      E             dE          RMSdq      gap      omega  full diag
   1    -11.0393254 -0.110393E+02  0.516E+00    9.90       0.0  T
   2    -11.0506291 -0.113037E-01  0.307E+00   10.05       1.0  T
   3    -11.0503242  0.304933E-03  0.170E+00    9.69       1.0  T
   4    -11.0537500 -0.342580E-02  0.244E-01    9.94       1.0  T
   5    -11.0538803 -0.130297E-03  0.120E-01    9.90       1.0  T
   6    -11.0538951 -0.148351E-04  0.571E-02    9.91       1.0  T
   7    -11.0538988 -0.370781E-05  0.190E-02    9.91       2.4  T
   8    -11.0538994 -0.625236E-06  0.885E-03    9.91       5.1  T
   9    -11.0538995 -0.101472E-06  0.155E-03    9.91      28.8  T
  10    -11.0538995 -0.641051E-08  0.673E-04    9.91      66.5  T
  11    -11.0538995 -0.279755E-08  0.723E-05    9.91     618.6  T

   *** convergence criteria satisfied after 11 iterations ***

         #    Occupation            Energy/Eh            Energy/eV
      -------------------------------------------------------------
         1        2.0000           -0.7820127             -21.2796
       ...           ...                  ...                  ...
         4        2.0000           -0.6238114             -16.9748
         5        2.0000           -0.6081977             -16.5499
         6        2.0000           -0.5883741             -16.0105
         7        2.0000           -0.5144485             -13.9989
         8        2.0000           -0.4551002             -12.3839
         9        1.0000           -0.4210061             -11.4562
        10        1.0000           -0.4025016             -10.9526 (HOMO)
        11                         -0.0381531              -1.0382 (LUMO)
        12                          0.0643301               1.7505
        13                          0.0986980               2.6857
        14                          0.1357131               3.6929
      -------------------------------------------------------------
                  HL-Gap            0.3643485 Eh            9.9144 eV
             Fermi-level           -0.3291902 Eh           -8.9577 eV

 transition dipole moment (au) for excitation:           9          10
     X       Y       Z   
  -1.1454  -0.0088  -0.3346  total (au/Debye):    1.193   3.033
 dE (eV)             :    0.504
 oscillator strength :  0.24841E-01

 SCC (total)                   0 d,  0 h,  0 min,  0.003 sec
 SCC setup                      ...        0 min,  0.000 sec (  2.437%)
 Dispersion                     ...        0 min,  0.000 sec (  0.339%)
 integral evaluation            ...        0 min,  0.001 sec ( 18.920%)
 zeroth order Hamiltonian       ...        0 min,  0.000 sec (  0.411%)
 iterations                     ...        0 min,  0.001 sec ( 38.309%)
 molecular gradient             ...        0 min,  0.001 sec ( 23.963%)
 printout                       ...        0 min,  0.000 sec ( 15.362%)

         :::::::::::::::::::::::::::::::::::::::::::::::::::::
         ::                     SUMMARY                     ::
         :::::::::::::::::::::::::::::::::::::::::::::::::::::
         :: total energy             -11.014074769552 Eh    ::
         :: gradient norm              0.067135938936 Eh/a0 ::
         :: HOMO-LUMO gap              9.914427260028 eV    ::
         ::.................................................::
         :: SCC energy               -11.053899538030 Eh    ::
         :: -> isotropic ES            0.016497596272 Eh    ::
         :: -> anisotropic ES          0.000877038437 Eh    ::
         :: -> anisotropic XC         -0.005135162351 Eh    ::
         :: -> dispersion             -0.001193665791 Eh    ::
         :: repulsion energy           0.039824746387 Eh    ::
         :: add. restraining           0.000000000000 Eh    ::
         :::::::::::::::::::::::::::::::::::::::::::::::::::::

      ----------------------------------------------------------- 
     |                   =====================                   |
     |                        A N C O P T                        |
     |                   =====================                   |
     |               Approximate Normal Coordinate               |
     |                Rational Function Optimizer                |
      ----------------------------------------------------------- 

          ...................................................
          :                      SETUP                      :
          :.................................................:
          :   optimization level            normal          :
          :   max. optcycles                   200          :
          :   ANC micro-cycles                  20          :
          :   degrees of freedom                 9          :
          :.................................................:
          :   RF solver                   davidson          :
          :   write xtbopt.log                true          :
          :   linear?                        false          :
          :   energy convergence         0.5000000E-05 Eh   :
          :   grad. convergence          0.1000000E-02 Eh/α :
          :   maximium RF displ.         1.0000000          :
          :   Hlow (freq-cutoff)         0.1000000E-01      :
          :   Hmax (freq-cutoff)         5.0000000          :
          :   S6 in model hess.         20.0000000          :
          ...................................................

generating ANC from model Hessian ...
Using Lindh-Hessian (1995)
 Shifting diagonal of input Hessian by    0.0000000000000000     
 Lowest  eigenvalues of input Hessian
   -0.000000   -0.000000   -0.000000    0.000000    0.000000    0.000000
    0.025621    0.077111    0.118605    0.123873    0.193466    0.682802
    0.999815    1.296492    1.528232
 Highest eigenvalues
    0.123873    0.193466    0.682802    0.999815    1.296492    1.528232


........................................................................
.............................. CYCLE    1 ..............................
........................................................................
   1    -11.0538995 -0.110539E+02  0.245E-05    9.91       0.0  T
   2    -11.0538995 -0.728306E-13  0.156E-05    9.91    2869.3  T
   3    -11.0538995  0.799361E-13  0.519E-06    9.91    8622.0  T
     SCC iter.                  ...        0 min,  0.000 sec
     gradient                   ...        0 min,  0.001 sec
 * total energy  :   -11.0140748 Eh     change       -0.2144436E-09 Eh
   gradient norm :     0.0671355 Eh/α   predicted     0.0000000E+00 (-100.00%)
   displ. norm   :     0.2815971 α      lambda       -0.1287748E-01
   maximum displ.:     0.2070773 α      in ANC's #2, #4, #5, ...

........................................................................
.............................. CYCLE    2 ..............................
........................................................................
   1    -11.0639736 -0.110640E+02  0.731E-01    9.44       0.0  T
   2    -11.0640756 -0.102065E-03  0.445E-01    9.41       1.0  T
   3    -11.0640823 -0.667000E-05  0.105E-01    9.39       1.0  T
   4    -11.0640898 -0.747756E-05  0.241E-02    9.40       1.9  T
   5    -11.0640905 -0.755035E-06  0.154E-02    9.39       2.9  T
   6    -11.0640908 -0.304918E-06  0.637E-03    9.39       7.0  T
   7    -11.0640909 -0.733177E-07  0.152E-03    9.39      29.4  T
   8    -11.0640909 -0.216834E-08  0.293E-04    9.39     152.8  T
   9    -11.0640909 -0.149807E-09  0.139E-04    9.39     321.9  T
     SCC iter.                  ...        0 min,  0.000 sec
     gradient                   ...        0 min,  0.001 sec
 * total energy  :   -11.0228789 Eh     change       -0.8804165E-02 Eh
   gradient norm :     0.0473432 Eh/α   predicted    -0.6949310E-02 ( -21.07%)
   displ. norm   :     0.2137605 α      lambda       -0.7200545E-02
   maximum displ.:     0.1301667 α      in ANC's #6, #1, #5, ...

........................................................................
.............................. CYCLE    3 ..............................
........................................................................
   1    -11.0750363 -0.110750E+02  0.764E-01    9.01       0.0  T
   2    -11.0751148 -0.785229E-04  0.477E-01    8.99       1.0  T
   3    -11.0751347 -0.198954E-04  0.777E-02    8.98       1.0  T
   4    -11.0751389 -0.417266E-05  0.261E-02    8.98       1.7  T
   5    -11.0751395 -0.629229E-06  0.146E-02    8.98       3.1  T
   6    -11.0751397 -0.203566E-06  0.608E-03    8.98       7.4  T
   7    -11.0751398 -0.482120E-07  0.131E-03    8.98      34.3  T
   8    -11.0751398 -0.201795E-08  0.316E-04    8.98     141.5  T
   9    -11.0751398 -0.143434E-09  0.161E-04    8.98     277.3  T
     SCC iter.                  ...        0 min,  0.000 sec
     gradient                   ...        0 min,  0.001 sec
 * total energy  :   -11.0280622 Eh     change       -0.5183235E-02 Eh
   gradient norm :     0.0280391 Eh/α   predicted    -0.3764783E-02 ( -27.37%)
   displ. norm   :     0.1730622 α      lambda       -0.3162975E-02
   maximum displ.:     0.1098635 α      in ANC's #6, #1, #5, ...

........................................................................
.............................. CYCLE    4 ..............................
........................................................................
   1    -11.0813597 -0.110814E+02  0.687E-01    8.67       0.0  T
   2    -11.0814322 -0.724616E-04  0.432E-01    8.60       1.0  T
   3    -11.0814326 -0.400179E-06  0.878E-02    8.63       1.0  T
   4    -11.0814530 -0.204133E-04  0.230E-02    8.60       1.9  T
   5    -11.0814535 -0.481129E-06  0.143E-02    8.60       3.1  T
   6    -11.0814537 -0.159253E-06  0.340E-03    8.60      13.1  T
   7    -11.0814537 -0.128281E-07  0.901E-04    8.60      49.7  T
   8    -11.0814537 -0.708544E-09  0.234E-04    8.60     191.3  T
     SCC iter.                  ...        0 min,  0.000 sec
     gradient                   ...        0 min,  0.001 sec
 * total energy  :   -11.0299184 Eh     change       -0.1856249E-02 Eh
   gradient norm :     0.0156063 Eh/α   predicted    -0.1628855E-02 ( -12.25%)
   displ. norm   :     0.0527075 α      lambda       -0.3927381E-03
   maximum displ.:     0.0281060 α      in ANC's #1, #6, #2, ...

........................................................................
.............................. CYCLE    5 ..............................
........................................................................
   1    -11.0823154 -0.110823E+02  0.192E-01    8.68       0.0  T
   2    -11.0823276 -0.122259E-04  0.118E-01    8.67       1.0  T
   3    -11.0823287 -0.106381E-05  0.399E-02    8.67       1.1  T
   4    -11.0823293 -0.583398E-06  0.745E-03    8.67       6.0  T
   5    -11.0823293 -0.673224E-07  0.499E-03    8.67       9.0  T
   6    -11.0823294 -0.319353E-07  0.135E-03    8.67      33.1  T
   7    -11.0823294 -0.259011E-08  0.360E-04    8.67     124.2  T
   8    -11.0823294 -0.151456E-09  0.114E-04    8.67     391.6  T
     SCC iter.                  ...        0 min,  0.000 sec
     gradient                   ...        0 min,  0.001 sec
 * total energy  :   -11.0301787 Eh     change       -0.2602547E-03 Eh
   gradient norm :     0.0050498 Eh/α   predicted    -0.1969129E-03 ( -24.34%)
   displ. norm   :     0.0444235 α      lambda       -0.1081915E-03
   maximum displ.:     0.0334611 α      in ANC's #1, #3, #2, ...

........................................................................
.............................. CYCLE    6 ..............................
........................................................................
   1    -11.0827164 -0.110827E+02  0.138E-01    8.73       0.0  T
   2    -11.0827237 -0.730547E-05  0.863E-02    8.74       1.0  T
   3    -11.0827245 -0.861917E-06  0.381E-02    8.73       1.2  T
   4    -11.0827260 -0.144070E-05  0.708E-03    8.74       6.3  T
   5    -11.0827260 -0.530911E-07  0.450E-03    8.74       9.9  T
   6    -11.0827260 -0.200785E-07  0.912E-04    8.74      49.0  T
   7    -11.0827260 -0.104468E-08  0.276E-04    8.74     162.1  T
     SCC iter.                  ...        0 min,  0.000 sec
     gradient                   ...        0 min,  0.001 sec
 * total energy  :   -11.0302402 Eh     change       -0.6153005E-04 Eh
   gradient norm :     0.0027785 Eh/α   predicted    -0.5420357E-04 ( -11.91%)
   displ. norm   :     0.0120566 α      lambda       -0.1629945E-04
   maximum displ.:     0.0078999 α      in ANC's #5, #2, #3, ...

........................................................................
.............................. CYCLE    7 ..............................
........................................................................
   1    -11.0829123 -0.110829E+02  0.406E-02    8.79       0.0  T
   2    -11.0829127 -0.411500E-06  0.251E-02    8.79       1.8  T
   3    -11.0829127 -0.366604E-08  0.912E-03    8.79       4.9  T
   4    -11.0829128 -0.939942E-07  0.159E-03    8.79      28.1  T
   5    -11.0829128 -0.247188E-08  0.982E-04    8.79      45.6  T
   6    -11.0829128 -0.815353E-09  0.303E-04    8.79     147.8  T
     SCC iter.                  ...        0 min,  0.001 sec
     gradient                   ...        0 min,  0.001 sec
 * total energy  :   -11.0302519 Eh     change       -0.1170998E-04 Eh
   gradient norm :     0.0025642 Eh/α   predicted    -0.8150802E-05 ( -30.39%)
   displ. norm   :     0.0301787 α      lambda       -0.2429121E-04
   maximum displ.:     0.0188254 α      in ANC's #2, #1, #5, ...

........................................................................
.............................. CYCLE    8 ..............................
........................................................................
   1    -11.0827426 -0.110827E+02  0.992E-02    8.83       0.0  T
   2    -11.0827441 -0.149127E-05  0.629E-02    8.84       1.0  T
   3    -11.0827440  0.886797E-07  0.158E-02    8.84       2.8  T
   4    -11.0827447 -0.703914E-06  0.355E-03    8.84      12.6  T
   5    -11.0827447 -0.689791E-08  0.174E-03    8.84      25.7  T
   6    -11.0827447 -0.254417E-08  0.320E-04    8.84     139.9  T
   7    -11.0827447 -0.856719E-10  0.595E-05    8.84     751.8  T
     SCC iter.                  ...        0 min,  0.000 sec
     gradient                   ...        0 min,  0.001 sec
 * total energy  :   -11.0302684 Eh     change       -0.1644270E-04 Eh
   gradient norm :     0.0025669 Eh/α   predicted    -0.1215678E-04 ( -26.07%)
   displ. norm   :     0.0252151 α      lambda       -0.1890377E-04
   maximum displ.:     0.0199405 α      in ANC's #2, #5, #6, ...

........................................................................
.............................. CYCLE    9 ..............................
........................................................................
   1    -11.0828305 -0.110828E+02  0.794E-02    8.88       0.0  T
   2    -11.0828314 -0.926627E-06  0.500E-02    8.89       1.0  T
   3    -11.0828314  0.714670E-07  0.107E-02    8.89       4.2  T
   4    -11.0828317 -0.316182E-06  0.233E-03    8.89      19.2  T
   5    -11.0828317 -0.268847E-08  0.137E-03    8.89      32.6  T
   6    -11.0828317 -0.102527E-08  0.342E-04    8.89     130.6  T
   7    -11.0828317 -0.155216E-09  0.111E-04    8.89     402.4  T
     SCC iter.                  ...        0 min,  0.000 sec
     gradient                   ...        0 min,  0.001 sec
 * total energy  :   -11.0302816 Eh     change       -0.1320378E-04 Eh
   gradient norm :     0.0022042 Eh/α   predicted    -0.9458488E-05 ( -28.37%)
   displ. norm   :     0.0230213 α      lambda       -0.1207247E-04
   maximum displ.:     0.0197594 α      in ANC's #2, #6, #5, ...

........................................................................
.............................. CYCLE   10 ..............................
........................................................................
   1    -11.0827447 -0.110827E+02  0.702E-02    8.90       0.0  T
   2    -11.0827457 -0.103000E-05  0.438E-02    8.91       1.0  T
   3    -11.0827457  0.542458E-07  0.107E-02    8.90       4.2  T
   4    -11.0827459 -0.234947E-06  0.206E-03    8.91      21.7  T
   5    -11.0827459 -0.389018E-08  0.117E-03    8.91      38.3  T
   6    -11.0827459 -0.773955E-09  0.349E-04    8.91     128.3  T
   7    -11.0827459 -0.149253E-09  0.962E-05    8.91     465.1  T
     SCC iter.                  ...        0 min,  0.000 sec
     gradient                   ...        0 min,  0.001 sec
 * total energy  :   -11.0302897 Eh     change       -0.8111208E-05 Eh
   gradient norm :     0.0017507 Eh/α   predicted    -0.6039094E-05 ( -25.55%)
   displ. norm   :     0.0210866 α      lambda       -0.5820377E-05
   maximum displ.:     0.0156245 α      in ANC's #2, #1, #6, ...

........................................................................
.............................. CYCLE   11 ..............................
........................................................................
   1    -11.0828126 -0.110828E+02  0.623E-02    8.90       0.0  T
   2    -11.0828137 -0.109325E-05  0.393E-02    8.90       1.1  T
   3    -11.0828137 -0.288710E-07  0.113E-02    8.90       3.9  T
   4    -11.0828140 -0.249811E-06  0.257E-03    8.90      17.4  T
   5    -11.0828140 -0.490516E-08  0.156E-03    8.90      28.7  T
   6    -11.0828140 -0.191895E-08  0.441E-04    8.90     101.5  T
   7    -11.0828140 -0.217458E-09  0.903E-05    8.90     495.0  T
     SCC iter.                  ...        0 min,  0.000 sec
     gradient                   ...        0 min,  0.001 sec
 * total energy  :   -11.0302943 Eh     change       -0.4604699E-05 Eh
   gradient norm :     0.0011311 Eh/α   predicted    -0.2909837E-05 ( -36.81%)
   displ. norm   :     0.0056635 α      lambda       -0.1775135E-05
   maximum displ.:     0.0046069 α      in ANC's #1, #3, #9, ...

........................................................................
.............................. CYCLE   12 ..............................
........................................................................
   1    -11.0827910 -0.110828E+02  0.136E-02    8.89       0.0  T
   2    -11.0827910 -0.634443E-07  0.884E-03    8.89       5.1  T
   3    -11.0827910 -0.970305E-08  0.344E-03    8.89      13.0  T
   4    -11.0827911 -0.185139E-07  0.734E-04    8.89      60.9  T
   5    -11.0827911 -0.417876E-09  0.181E-04    8.89     247.2  T
     SCC iter.                  ...        0 min,  0.000 sec
     gradient                   ...        0 min,  0.001 sec
 * total energy  :   -11.0302959 Eh     change       -0.1672502E-05 Eh
   gradient norm :     0.0002749 Eh/α   predicted    -0.8890475E-06 ( -46.84%)
   displ. norm   :     0.0030290 α      lambda       -0.2251909E-06
   maximum displ.:     0.0022357 α      in ANC's #1, #2, #3, ...

   *** GEOMETRY OPTIMIZATION CONVERGED AFTER 12 ITERATIONS ***

------------------------------------------------------------------------
 total energy gain   :        -0.0162212 Eh      -10.1789 kcal/mol
 total RMSD          :         0.3370538 a0        0.1784 Å
 total power (kW/mol):        -3.5490582 (step)-2049.2136 (real)
------------------------------------------------------------------------

 ANCopt (total)                0 d,  0 h,  0 min,  0.021 sec
 optimizer setup                ...        0 min,  0.000 sec (  0.265%)
 model hessian                  ...        0 min,  0.000 sec (  0.591%)
 ANC generation                 ...        0 min,  0.000 sec (  0.202%)
 coordinate transformation      ...        0 min,  0.000 sec (  0.106%)
 single point calculation       ...        0 min,  0.020 sec ( 94.696%)
 optimization log               ...        0 min,  0.000 sec (  1.367%)
 hessian update                 ...        0 min,  0.000 sec (  0.114%)
 rational function              ...        0 min,  0.000 sec (  1.087%)

================
 final structure:
================
5
 xtb: 6.2.2 (9d81278992624c895f80dd42a50cac0aa55982e2)
O         0.75338109081997   -0.09080836589283    0.49446307706600
C        -0.50712732845836    0.00953832947498    0.07119877230619
O         1.76359563744535   -0.01870879026419   -0.36037825090491
H        -0.97115935675291    0.98216715635521    0.01765660890181
H        -1.03868904305404   -0.88218832967318   -0.22293920736909

 Bond Distances (Angstroems)
 ---------------------------
O1-C2=1.3335         O1-O3=1.3253         C2-O1=1.3335         C2-H4=1.0790         C2-H5=1.0790         O3-O1=1.3253         
H4-C2=1.0790         H5-C2=1.0790         
 C  H  Rav=1.0790 sigma=0.0000  Rmin=1.0790  Rmax=1.0790     2
 O  C  Rav=1.3335 sigma=0.0000  Rmin=1.3335  Rmax=1.3335     1
 O  O  Rav=1.3253 sigma=0.0000  Rmin=1.3253  Rmax=1.3253     1

 selected bond angles (degree)
 --------------------
O3-O1-C2=120.78                H4-C2-O1=119.35                H5-C2-O1=119.34                H5-C2-H4=121.30                

 selected dihedral angles (degree)
 ---------------------------------
H4-C2-O1-O3=270.31            H5-C2-O1-O3= 89.53            
           -------------------------------------------------
          |                Final Singlepoint                |
           -------------------------------------------------

          ...................................................
          :                      SETUP                      :
          :.................................................:
          :  # basis functions                  14          :
          :  # atomic orbitals                  14          :
          :  # shells                            8          :
          :  # electrons                        18          :
          :  max. iterations                   250          :
          :  Hamiltonian                  GFN2-xTB          :
          :  restarted?                      false          :
          :  GBSA solvation                  false          :
          :  PC potential                    false          :
          :  electronic temp.          300.0000000     K    :
          :  accuracy                    1.0000000          :
          :  -> integral cutoff          0.2500000E+02      :
          :  -> integral neglect         0.1000000E-07      :
          :  -> SCF convergence          0.1000000E-05 Eh   :
          :  -> wf. convergence          0.1000000E-03 e    :
          :  Broyden damping             0.4000000          :
          ...................................................

 iter      E             dE          RMSdq      gap      omega  full diag
   1    -11.0827911 -0.110828E+02  0.503E-05    8.89       0.0  T
   2    -11.0827911 -0.235545E-11  0.312E-05    8.89    1433.1  T
   3    -11.0827911 -0.886402E-12  0.132E-05    8.89    3391.0  T

   *** convergence criteria satisfied after 3 iterations ***

         #    Occupation            Energy/Eh            Energy/eV
      -------------------------------------------------------------
         1        2.0000           -0.7785346             -21.1850
       ...           ...                  ...                  ...
         4        2.0000           -0.6245985             -16.9962
         5        2.0000           -0.6045021             -16.4493
         6        2.0000           -0.5903075             -16.0631
         7        2.0000           -0.5178607             -14.0917
         8        2.0000           -0.4504329             -12.2569
         9        1.0000           -0.4105922             -11.1728
        10        1.0000           -0.3857055             -10.4956 (HOMO)
        11                         -0.0590283              -1.6062 (LUMO)
        12                          0.0825365               2.2459
        13                          0.2330084               6.3405
        14                          0.2534949               6.8979
      -------------------------------------------------------------
                  HL-Gap            0.3266773 Eh            8.8893 eV
             Fermi-level           -0.3264397 Eh           -8.8829 eV

 transition dipole moment (au) for excitation:           9          10
     X       Y       Z   
  -0.0060   0.0331   0.0048  total (au/Debye):    0.034   0.086
 dE (eV)             :    0.677
 oscillator strength :  0.27039E-04

 SCC (total)                   0 d,  0 h,  0 min,  0.002 sec
 SCC setup                      ...        0 min,  0.000 sec (  1.964%)
 Dispersion                     ...        0 min,  0.000 sec (  0.334%)
 integral evaluation            ...        0 min,  0.001 sec ( 30.029%)
 zeroth order Hamiltonian       ...        0 min,  0.000 sec (  0.441%)
 iterations                     ...        0 min,  0.000 sec (  9.979%)
 molecular gradient             ...        0 min,  0.001 sec ( 29.348%)
 printout                       ...        0 min,  0.000 sec ( 27.612%)

         :::::::::::::::::::::::::::::::::::::::::::::::::::::
         ::                     SUMMARY                     ::
         :::::::::::::::::::::::::::::::::::::::::::::::::::::
         :: total energy             -11.030295952757 Eh    ::
         :: gradient norm              0.000276937929 Eh/a0 ::
         :: HOMO-LUMO gap              8.889340493172 eV    ::
         ::.................................................::
         :: SCC energy               -11.082791054597 Eh    ::
         :: -> isotropic ES            0.017062258564 Eh    ::
         :: -> anisotropic ES          0.000126521100 Eh    ::
         :: -> anisotropic XC         -0.004083806427 Eh    ::
         :: -> dispersion             -0.001187494729 Eh    ::
         :: repulsion energy           0.052495073611 Eh    ::
         :: add. restraining           0.000000000000 Eh    ::
         :::::::::::::::::::::::::::::::::::::::::::::::::::::

           ------------------------------------------------- 
          |                Numerical Hessian                |
           ------------------------------------------------- 
step length          :   0.00500
SCC accuracy         :   0.30000
Hessian scale factor :   1.00000
frozen atoms in %    :   0.00000    0
RMS gradient         :   0.00028
estimated CPU  time      0.00 min
estimated wall time      0.00 min

writing file <hessian>.

 projected vibrational frequencies (cm-1)
eigval :       -0.00    -0.00    -0.00    -0.00     0.00     0.00
eigval :      268.95   419.75   488.61   959.31  1082.14  1103.43
eigval :     1300.88  3044.46  3075.20
           -------------------------------------------------
          |                Property Printout                |
           -------------------------------------------------

    * Orbital Energies and Occupations

         #    Occupation            Energy/Eh            Energy/eV
      -------------------------------------------------------------
         1        2.0000           -0.7785345             -21.1850
         2        2.0000           -0.7296613             -19.8551
         3        2.0000           -0.6624259             -18.0255
         4        2.0000           -0.6245984             -16.9962
         5        2.0000           -0.6045021             -16.4493
         6        2.0000           -0.5903074             -16.0631
         7        2.0000           -0.5178607             -14.0917
         8        2.0000           -0.4504329             -12.2569
         9        1.0000           -0.4105922             -11.1728
        10        1.0000           -0.3857054             -10.4956 (HOMO)
        11                         -0.0590282              -1.6062 (LUMO)
        12                          0.0825365               2.2459
        13                          0.2330085               6.3405
        14                          0.2534949               6.8979
      -------------------------------------------------------------
                  HL-Gap            0.3266772 Eh            8.8893 eV
             Fermi-level           -0.3264397 Eh           -8.8829 eV

     #   Z        covCN         q      C6AA      α(0)
     1   8 O      1.823     0.022    14.185     5.086
     2   6 C      2.708     0.022    27.490     8.582
     3   8 O      0.971    -0.257    18.968     5.842
     4   1 H      0.926     0.106     1.729     2.056
     5   1 H      0.926     0.106     1.729     2.056

 Mol. C6AA /au·bohr⁶  :        253.741927
 Mol. C8AA /au·bohr⁸  :       5406.727697
 Mol. α(0) /au        :         23.622319


Wiberg/Mayer (AO) data.
largest (>0.10) Wiberg bond orders for each atom
          total WBO             WBO to atom ...
     1  O   2.234        C    2 1.130    O    3 1.100
     2  C   3.044        O    1 1.130    H    4 0.929    H    5 0.929
     3  O   1.190        O    1 1.100
     4  H   0.949        C    2 0.929
     5  H   0.949        C    2 0.929

MOs/occ written to file <molden.input>


molecular dipole:
                 x           y           z       tot (Debye)
 q only:       -1.248       0.026       0.157
   full:       -1.377       0.033       0.138       3.518
molecular quadrupole (traceless):
                xx          xy          yy          xz          yz          zz
 q only:       -2.308       0.015       1.711       1.035       0.107       0.598
  q+dip:       -4.031       0.039       3.796       1.951       0.393       0.235
   full:       -3.831       0.087       3.368       1.393       0.328       0.463

           -------------------------------------------------
          |                Geometry Summary                 |
           -------------------------------------------------

      molecular mass/u    :       46.0254272
   center of mass at/Å    :        0.6985997      -0.0333954       0.0606926
  moments of inertia/u·Å² :        0.6658322E+01   0.4440841E+02   0.4750037E+02
rotational constants/cm⁻¹ :        0.2531814E+01   0.3796045E+00   0.3548947E+00

 * 4 selected distances

     #   Z        #   Z                                     value/Å
     1   8 O      2   6 C                                 1.3334555 (max)
     1   8 O      3   8 O                                 1.3253247
     2   6 C      4   1 H                                 1.0789807 (min)
     2   6 C      5   1 H                                 1.0790048

 * 3 distinct bonds (by element types)

   Z      Z             #   av. dist./Å        max./Å        min./Å
   1 H    6 C           2     1.0789928     1.0790048     1.0789807
   6 C    8 O           1     1.3334555     1.3334555     1.3334555
   8 O    8 O           1     1.3253247     1.3253247     1.3253247

           -------------------------------------------------
          |               Frequency Printout                |
           -------------------------------------------------
 projected vibrational frequencies (cm-1)
eigval :       -0.00    -0.00    -0.00    -0.00     0.00     0.00
eigval :      268.95   419.75   488.61   959.31  1082.14  1103.43
eigval :     1300.88  3044.46  3075.20
 reduced masses (amu)
   1: 10.26   2: 15.16   3: 12.48   4: 12.62   5: 14.62   6: 13.21   7:  7.90   8:  3.99
   9:  9.63  10:  3.81  11: 14.80  12: 13.83  13:  2.27  14:  1.35  15:  2.17
 IR intensities (amu)
   1:  0.07   2:  0.19   3:  0.17   4:  0.30   5:  0.12   6:  0.10   7:  0.06   8:  0.03
   9:  0.41  10:  0.11  11:  0.79  12:  0.53  13:  0.09  14:  0.08  15:  0.04
Molecule has the following symmetry elements: (sigma) 
It seems to be the Cs point group
 Raman intensities (amu)
   1:  0.00   2:  0.00   3:  0.00   4:  0.00   5:  0.00   6:  0.00   7:  0.00   8:  0.00
   9:  0.00  10:  0.00  11:  0.00  12:  0.00  13:  0.00  14:  0.00  15:  0.00
 output can be read by thermo (or use thermo option).
 writing <g98.out> molden fake output.
 recommended (thermochemical) frequency scaling factor: 1.0
           -------------------------------------------------
          |             Thermodynamic Functions             |
           -------------------------------------------------

cs  symmetry found (for desy threshold:  0.10E+00) used in thermo

          ...................................................
          :                      SETUP                      :
          :.................................................:
          :  # frequencies                           9      :
          :  # imaginary freq.                       0      :
          :  linear?                             false      :
          :  only rotor calc.                    false      :
          :  symmetry                               cs      :
          :  rotational number                       1      :
          :  scaling factor                  1.0000000      :
          :  rotor cutoff                   50.0000000 cm⁻¹ :
          :  imag. cutoff                  -20.0000000 cm⁻¹ :
          :.................................................:

    mode    ω/cm⁻¹     T·S(HO)/kcal·mol⁻¹    T·S(FR)/kcal·mol⁻¹   T·S(vib)
   ------------------------------------------------------------------------
       1    268.95    -0.00000 ( 99.88%)     0.01503 (  0.12%)     0.00002
   ------------------------------------------------------------------------

   temp. (K)  partition function   enthalpy   heat capacity  entropy
                                   cal/mol     cal/K/mol   cal/K/mol   J/K/mol
 298.15  VIB   1.79                  683.577      5.578      3.449
         ROT  0.905E+04              888.752      2.981     21.087
         INT  0.162E+05             1572.329      8.558     24.536
         TR   0.302E+27             1481.254      4.968     37.388
         TOT                        3053.5833    13.5266    61.9241   259.0903

   temp. (K)  partition function   enthalpy   heat capacity  entropy
                                   cal/mol     cal/K/mol   cal/K/mol   J/K/mol
 120.00  VIB   1.05                   43.767      1.424      0.465
         ROT  0.231E+04              357.707      2.981     18.374
         INT  0.243E+04              401.474      4.405     18.839
         TR   0.771E+26              596.178      4.968     32.869
         TOT                         997.6523     9.3729    51.7073   216.3433

   temp. (K)  partition function   enthalpy   heat capacity  entropy
                                   cal/mol     cal/K/mol   cal/K/mol   J/K/mol
 100.00  VIB   1.02                   20.496      0.909      0.254
         ROT  0.176E+04              298.089      2.981     17.830
         INT  0.180E+04              318.585      3.890     18.084
         TR   0.587E+26              496.815      4.968     31.963
         TOT                         815.3998     8.8579    50.0476   209.3993

   temp. (K)  partition function   enthalpy   heat capacity  entropy
                                   cal/mol     cal/K/mol   cal/K/mol   J/K/mol
  80.00  VIB   1.01                    6.993      0.458      0.105
         ROT  0.126E+04              238.471      2.981     17.165
         INT  0.127E+04              245.464      3.439     17.270
         TR   0.420E+26              397.452      4.968     30.855
         TOT                         642.9161     8.4068    48.1254   201.3567

   temp. (K)  partition function   enthalpy   heat capacity  entropy
                                   cal/mol     cal/K/mol   cal/K/mol   J/K/mol
  60.00  VIB   1.00                    1.281      0.142      0.025
         ROT   817.                  178.853      2.981     16.307
         INT   819.                  180.134      3.123     16.332
         TR   0.273E+26              298.089      4.968     29.427
         TOT                         478.2229     8.0910    45.7590   191.4555

   temp. (K)  partition function   enthalpy   heat capacity  entropy
                                   cal/mol     cal/K/mol   cal/K/mol   J/K/mol
  40.00  VIB   1.00                    0.049      0.012      0.001
         ROT   445.                  119.236      2.981     15.099
         INT   445.                  119.284      2.993     15.100
         TR   0.148E+26              198.726      4.968     27.413
         TOT                         318.0103     7.9609    42.5131   177.8747

   temp. (K)  partition function   enthalpy   heat capacity  entropy
                                   cal/mol     cal/K/mol   cal/K/mol   J/K/mol
  20.00  VIB   1.00                    0.000      0.000     -0.001
         ROT   157.                   59.618      2.981     13.033
         INT   157.                   59.618      2.981     13.031
         TR   0.525E+25               99.363      4.968     23.971
         TOT                         158.9808     7.9490    37.0025   154.8185

   temp. (K)  partition function   enthalpy   heat capacity  entropy
                                   cal/mol     cal/K/mol   cal/K/mol   J/K/mol
  10.00  VIB   1.00                    0.000      0.000     -0.002
         ROT   55.6                   29.809      2.981     10.966
         INT   55.6                   29.809      2.981     10.964
         TR   0.186E+25               49.681      4.968     20.529
         TOT                          79.4904     7.9490    31.4933   131.7679

       T/K    H(0)-H(T)+PV         H(T)/Eh          T*S/Eh         G(T)/Eh
   ------------------------------------------------------------------------
    298.15    0.486619E-02    0.316182E-01    0.294221E-01    0.219605E-02
    120.00    0.158986E-02    0.283418E-01    0.988810E-02    0.184537E-01
    100.00    0.129942E-02    0.280514E-01    0.797560E-02    0.200758E-01
     80.00    0.102455E-02    0.277765E-01    0.613542E-02    0.216411E-01
     60.00    0.762097E-03    0.275141E-01    0.437529E-02    0.231388E-01
     40.00    0.506782E-03    0.272587E-01    0.270996E-02    0.245488E-01
     20.00    0.253352E-03    0.270053E-01    0.117934E-02    0.258260E-01
     10.00    0.126676E-03    0.268786E-01    0.501877E-03    0.263768E-01 (used)
   ------------------------------------------------------------------------

         :::::::::::::::::::::::::::::::::::::::::::::::::::::
         ::                  THERMODYNAMIC                  ::
         :::::::::::::::::::::::::::::::::::::::::::::::::::::
         :: total free energy         -11.003919186051 Eh   ::
         ::.................................................::
         :: total energy              -11.030295952585 Eh   ::
         :: zero point energy           0.026751967890 Eh   ::
         :: G(RRHO) w/o ZPVE           -0.000375201356 Eh   ::
         :: G(RRHO) contrib.            0.026376766533 Eh   ::
         :::::::::::::::::::::::::::::::::::::::::::::::::::::

optimized geometry written to: xtbopt.xyz


           -------------------------------------------------
          | TOTAL ENERGY              -11.030295952585 Eh   |
          | TOTAL ENTHALPY            -11.003417308679 Eh   |
          | TOTAL FREE ENERGY         -11.003919186051 Eh   |
          | GRADIENT NORM               0.000276992994 Eh/α |
          | HOMO-LUMO GAP               8.889339076039 eV   |
           -------------------------------------------------

------------------------------------------------------------------------
 * finished run on 2020/05/12 at 11:43:52.907     
------------------------------------------------------------------------
 total:
 * wall-time:     0 d,  0 h,  0 min,  0.090 sec
 *  cpu-time:     0 d,  0 h,  0 min,  0.090 sec
 * ratio c/w:     0.998 speedup
 SCF:
 * wall-time:     0 d,  0 h,  0 min,  0.003 sec
 *  cpu-time:     0 d,  0 h,  0 min,  0.003 sec
 * ratio c/w:     1.000 speedup
 ANC optimizer:
 * wall-time:     0 d,  0 h,  0 min,  0.023 sec
 *  cpu-time:     0 d,  0 h,  0 min,  0.023 sec
 * ratio c/w:     0.998 speedup
 numerical hessian:
 * wall-time:     0 d,  0 h,  0 min,  0.048 sec
 *  cpu-time:     0 d,  0 h,  0 min,  0.048 sec
 * ratio c/w:     0.998 speedup

