$hessian                                                                        
        0.4188456174  -0.0067489989  -0.0543425149  -0.2068977788   0.0135528309
       -0.0581530992  -0.1568923191  -0.0120771925   0.1369671779  -0.0265037184
        0.0121078437  -0.0105596338  -0.0285518011  -0.0068344833  -0.0139119300
       -0.0067489989   0.0496717842  -0.0220010790   0.0199046314  -0.0431219899
        0.0052528657  -0.0182680033  -0.0106161442   0.0158564380   0.0212720602
       -0.0007479812   0.0124789988  -0.0161596894   0.0048143312  -0.0115872236
       -0.0543425149  -0.0220010790   0.2340034474  -0.1078588332   0.0070814028
       -0.0660893970   0.1853010379   0.0140786635  -0.1723048172  -0.0090732449
        0.0016367867   0.0039085974  -0.0140264449  -0.0007957741   0.0004821695
       -0.2068977788   0.0199046314  -0.1078588332   0.4675118336  -0.0122953104
        0.1103718939  -0.0999466905  -0.0017412348   0.0429874670  -0.0729687361
        0.0971735703  -0.0085292075  -0.0876986281  -0.1030416565  -0.0369713201
        0.0135528309  -0.0431219899   0.0070814028  -0.0122953104   0.5187477576
        0.0535908484   0.0044693414   0.0030011990  -0.0042990696   0.0997673626
       -0.2555431280   0.0054022617  -0.1054942246  -0.2230838388  -0.0617754432
       -0.0581530992   0.0052528657  -0.0660893970   0.1103718939   0.0535908484
        0.0788450361  -0.0054956500  -0.0025218215   0.0237415766  -0.0088543428
        0.0046465206  -0.0093924814  -0.0378688019  -0.0609684131  -0.0271047343
       -0.1568923191  -0.0182680033   0.1853010379  -0.0999466905   0.0044693414
       -0.0054956500   0.2599587093   0.0138501218  -0.1810014981  -0.0015212722
       -0.0015729526   0.0002542702  -0.0015984274   0.0015214927   0.0009418400
       -0.0120771925  -0.0106161442   0.0140786635  -0.0017412348   0.0030011990
       -0.0025218215   0.0138501218   0.0082470116  -0.0121756366   0.0025892628
       -0.0000704239  -0.0033594253  -0.0026209572  -0.0005616425   0.0039782198
        0.1369671779   0.0158564380  -0.1723048172   0.0429874670  -0.0042990696
        0.0237415766  -0.1810014981  -0.0121756366   0.1542936641   0.0009105372
        0.0018219239  -0.0031207459   0.0001363161  -0.0012036558  -0.0026096775
       -0.0265037184   0.0212720602  -0.0090732449  -0.0729687361   0.0997673626
       -0.0088543428  -0.0015212722   0.0025892628   0.0009105372   0.0954915793
       -0.1145347813   0.0166186835   0.0055021474  -0.0090939042   0.0003983670
        0.0121078437  -0.0007479812   0.0016367867   0.0971735703  -0.2555431280
        0.0046465206  -0.0015729526  -0.0000704239   0.0018219239  -0.1145347813
        0.2771426066  -0.0085951901   0.0068263199  -0.0207810735   0.0004899589
       -0.0105596338   0.0124789988   0.0039085974  -0.0085292075   0.0054022617
       -0.0093924814   0.0002542702  -0.0033594253  -0.0031207459   0.0166186835
       -0.0085951901   0.0090713280   0.0022158876  -0.0059266451  -0.0004666981
       -0.0285518011  -0.0161596894  -0.0140264449  -0.0876986281  -0.1054942246
       -0.0378688019  -0.0015984274  -0.0026209572   0.0001363161   0.0055021474
        0.0068263199   0.0022158876   0.1123467093   0.1174485513   0.0495430432
       -0.0068344833   0.0048143312  -0.0007957741  -0.1030416565  -0.2230838388
       -0.0609684131   0.0015214927  -0.0005616425  -0.0012036558  -0.0090939042
       -0.0207810735  -0.0059266451   0.1174485513   0.2396122236   0.0688944881
       -0.0139119300  -0.0115872236   0.0004821695  -0.0369713201  -0.0617754432
       -0.0271047343   0.0009418400   0.0039782198  -0.0026096775   0.0003983670
        0.0004899589  -0.0004666981   0.0495430432   0.0688944881   0.0296989405
