      -----------------------------------------------------------      
     |                   =====================                   |     
     |                           x T B                           |     
     |                   =====================                   |     
     |                         S. Grimme                         |     
     |          Mulliken Center for Theoretical Chemistry        |     
     |                    University of Bonn                     |     
      -----------------------------------------------------------      

   * xtb version 6.2.2 (9d81278992624c895f80dd42a50cac0aa55982e2) compiled by '@Darwin' on 04/03/2020

   xtb is free software: you can redistribute it and/or modify it under
   the terms of the GNU Lesser General Public License as published by
   the Free Software Foundation, either version 3 of the License, or
   (at your option) any later version.
   
   xtb is distributed in the hope that it will be useful,
   but WITHOUT ANY WARRANTY; without even the implied warranty of
   MERCHANTABILITY or FITNESS FOR A PARTICULAR PURPOSE.  See the
   GNU Lesser General Public License for more details.
   
   Cite this work as:
   * S. Grimme, C. Bannwarth, P. Shushkov, J. Chem. Theory Comput., 2017,
     13, 1989-2009. DOI: 10.1021/acs.jctc.7b00118
   * C. Bannwarth, S. Ehlert and S. Grimme., J. Chem. Theory Comput., 2019,
     15, 1652-1671. DOI: 10.1021/acs.jctc.8b01176
   * P. Pracht, E. Caldeweyher, S. Ehlert, S. Grimme, ChemRxiv, 2019, preprint.
     DOI: 10.26434/chemrxiv.8326202.v1
   
   for DFT-D4:
   * E. Caldeweyher, C. Bannwarth and S. Grimme, J. Chem. Phys., 2017,
     147, 034112. DOI: 10.1063/1.4993215
   * E. Caldeweyher, S. Ehlert, A. Hansen, H. Neugebauer, S. Spicher,
     C. Bannwarth and S. Grimme, J. Chem. Phys., 2019, 150, 154122.
     DOI: 10.1063/1.5090222
   
   for sTDA-xTB:
   * S. Grimme and C. Bannwarth, J. Chem. Phys., 2016, 145, 054103.
     DOI: 10.1063/1.4959605
   
   in the mass-spec context:
   * V. Asgeirsson, C. Bauer and S. Grimme, Chem. Sci., 2017, 8, 4879.
     DOI: 10.1039/c7sc00601b
   
   for metadynamics refer to:
   * S. Grimme, J. Chem. Theory Comput., 2019, 155, 2847-2862
     DOI: 10.1021/acs.jctc.9b00143
   
   with help from (in alphabetical order)
   C. Bannwarth, F. Bohle, G. Brandenburg, E. Caldeweyher, M. Checinski,
   S. Dohm, S. Ehlert, S. Ehrlich, F. März, H. Neugebauer, J. Pisarek,
   P. Pracht, P. Shushkov, and S. Spicher.
   
 * started run on 2020/05/12 at 11:43:52.304     

           -------------------------------------------------
          |                Calculation Setup                |
           -------------------------------------------------

          program call               : xtb --input H2C1O2_1_S_2.input H2C1O2_1_S_2.xyz --ohess --molden --namespace H2C1O2_1_S_2 output.out
          calculation namespace      : H2C1O2_1_S_2
          coordinate file            : H2C1O2_1_S_2.xyz
          number of atoms            :                     5
          number of electrons        :                    18
          charge                     :                     0
          spin                       :                   1.0
          first test random number   :      0.30861740030024

   ID    Z sym.   atoms
    1    6 C      1
    2    8 O      2, 3
    3    1 H      4, 5

           -------------------------------------------------
          |                 G F N 2 - x T B                 |
           -------------------------------------------------

        Reference                      10.1021/acs.jctc.8b01176
      * Hamiltonian:
        H0-scaling (s, p, d)           1.850000    2.230000    2.230000
        zeta-weighting                 0.500000
      * Dispersion:
        s8                             2.700000
        a1                             0.520000
        a2                             5.000000
        s9                             5.000000
      * Repulsion:
        kExp                           1.500000    1.000000
        rExp                           1.000000
      * Coulomb:
        alpha                          2.000000
        third order                    shell-resolved
        anisotropic                    true
        a3                             3.000000
        a5                             4.000000
        cn-shift                       1.200000
        cn-exp                         4.000000
        max-rad                        5.000000


          ...................................................
          :                      SETUP                      :
          :.................................................:
          :  # basis functions                  14          :
          :  # atomic orbitals                  14          :
          :  # shells                            8          :
          :  # electrons                        18          :
          :  max. iterations                   250          :
          :  Hamiltonian                  GFN2-xTB          :
          :  restarted?                      false          :
          :  GBSA solvation                  false          :
          :  PC potential                    false          :
          :  electronic temp.          300.0000000     K    :
          :  accuracy                    1.0000000          :
          :  -> integral cutoff          0.2500000E+02      :
          :  -> integral neglect         0.1000000E-07      :
          :  -> SCF convergence          0.1000000E-05 Eh   :
          :  -> wf. convergence          0.1000000E-03 e    :
          :  Broyden damping             0.4000000          :
          ...................................................

 iter      E             dE          RMSdq      gap      omega  full diag
   1    -11.1242784 -0.111243E+02  0.402E+00   10.48       0.0  T
   2    -11.1242878 -0.943666E-05  0.265E+00   10.27       1.0  T
   3    -11.0937967  0.304911E-01  0.250E+00   10.26       1.0  T
   4    -11.1275641 -0.337673E-01  0.416E-01   10.09       1.0  T
   5    -11.1279934 -0.429311E-03  0.179E-01   10.16       1.0  T
   6    -11.1280523 -0.589260E-04  0.652E-02   10.20       1.0  T
   7    -11.1280537 -0.139785E-05  0.146E-02   10.21       3.1  T
   8    -11.1280537 -0.480716E-07  0.869E-03   10.21       5.1  T
   9    -11.1280541 -0.354049E-06  0.113E-03   10.21      39.6  T
  10    -11.1280541  0.482938E-10  0.487E-04   10.21      91.8  T
  11    -11.1280541 -0.104936E-08  0.115E-04   10.21     388.6  T

   *** convergence criteria satisfied after 11 iterations ***

         #    Occupation            Energy/Eh            Energy/eV
      -------------------------------------------------------------
         1        2.0000           -0.7384028             -20.0930
       ...           ...                  ...                  ...
         4        2.0000           -0.6025130             -16.3952
         5        2.0000           -0.5775801             -15.7168
         6        2.0000           -0.5666311             -15.4188
         7        2.0000           -0.4994543             -13.5908
         8        2.0000           -0.4836820             -13.1617
         9        1.0000           -0.4536711             -12.3450
        10        1.0000           -0.3399748              -9.2512 (HOMO)
        11                          0.0350930               0.9549 (LUMO)
        12                          0.1012954               2.7564
        13                          0.1266739               3.4470
        14                          0.1468257               3.9953
      -------------------------------------------------------------
                  HL-Gap            0.3750678 Eh           10.2061 eV
             Fermi-level           -0.3105587 Eh           -8.4507 eV

 transition dipole moment (au) for excitation:           9          10
     X       Y       Z   
   0.0854   0.1555  -0.0810  total (au/Debye):    0.195   0.496
 dE (eV)             :    3.094
 oscillator strength :  0.40788E-02

 SCC (total)                   0 d,  0 h,  0 min,  0.003 sec
 SCC setup                      ...        0 min,  0.000 sec (  3.087%)
 Dispersion                     ...        0 min,  0.000 sec (  0.869%)
 integral evaluation            ...        0 min,  0.001 sec ( 25.797%)
 zeroth order Hamiltonian       ...        0 min,  0.000 sec (  1.435%)
 iterations                     ...        0 min,  0.001 sec ( 32.855%)
 molecular gradient             ...        0 min,  0.001 sec ( 20.531%)
 printout                       ...        0 min,  0.000 sec ( 15.101%)

         :::::::::::::::::::::::::::::::::::::::::::::::::::::
         ::                     SUMMARY                     ::
         :::::::::::::::::::::::::::::::::::::::::::::::::::::
         :: total energy             -11.084781427545 Eh    ::
         :: gradient norm              0.125132579349 Eh/a0 ::
         :: HOMO-LUMO gap             10.206114573176 eV    ::
         ::.................................................::
         :: SCC energy               -11.128054098856 Eh    ::
         :: -> isotropic ES            0.033230068149 Eh    ::
         :: -> anisotropic ES          0.000518207399 Eh    ::
         :: -> anisotropic XC         -0.001020358811 Eh    ::
         :: -> dispersion             -0.001143257131 Eh    ::
         :: repulsion energy           0.043272645525 Eh    ::
         :: add. restraining           0.000000000000 Eh    ::
         :::::::::::::::::::::::::::::::::::::::::::::::::::::

      ----------------------------------------------------------- 
     |                   =====================                   |
     |                        A N C O P T                        |
     |                   =====================                   |
     |               Approximate Normal Coordinate               |
     |                Rational Function Optimizer                |
      ----------------------------------------------------------- 

          ...................................................
          :                      SETUP                      :
          :.................................................:
          :   optimization level            normal          :
          :   max. optcycles                   200          :
          :   ANC micro-cycles                  20          :
          :   degrees of freedom                 9          :
          :.................................................:
          :   RF solver                   davidson          :
          :   write xtbopt.log                true          :
          :   linear?                        false          :
          :   energy convergence         0.5000000E-05 Eh   :
          :   grad. convergence          0.1000000E-02 Eh/α :
          :   maximium RF displ.         1.0000000          :
          :   Hlow (freq-cutoff)         0.1000000E-01      :
          :   Hmax (freq-cutoff)         5.0000000          :
          :   S6 in model hess.         20.0000000          :
          ...................................................

generating ANC from model Hessian ...
Using Lindh-Hessian (1995)
 Shifting diagonal of input Hessian by    0.0000000000000000     
 Lowest  eigenvalues of input Hessian
   -0.000000   -0.000000   -0.000000   -0.000000    0.000000    0.000000
    0.030544    0.100120    0.118762    0.136316    0.212089    0.727795
    1.165092    1.241245    1.455811
 Highest eigenvalues
    0.136316    0.212089    0.727795    1.165092    1.241245    1.455811


........................................................................
.............................. CYCLE    1 ..............................
........................................................................
   1    -11.1280541 -0.111281E+02  0.559E-05   10.21       0.0  T
   2    -11.1280541 -0.550671E-12  0.456E-05   10.21     981.6  T
   3    -11.1280541 -0.865086E-11  0.186E-05   10.21    2403.6  T
     SCC iter.                  ...        0 min,  0.000 sec
     gradient                   ...        0 min,  0.001 sec
 * total energy  :   -11.0847814 Eh     change       -0.7353727E-09 Eh
   gradient norm :     0.1251323 Eh/α   predicted     0.0000000E+00 (-100.00%)
   displ. norm   :     0.2102368 α      lambda       -0.1699387E-01
   maximum displ.:     0.1627156 α      in ANC's #4, #8, #3, ...

........................................................................
.............................. CYCLE    2 ..............................
........................................................................
   1    -11.1473052 -0.111473E+02  0.947E-01    9.79       0.0  T
   2    -11.1473702 -0.649629E-04  0.623E-01    9.74       1.0  T
   3    -11.1474087 -0.385191E-04  0.454E-01    9.76       1.0  T
   4    -11.1479102 -0.501474E-03  0.375E-02    9.73       1.2  T
   5    -11.1479113 -0.109757E-05  0.195E-02    9.74       2.3  T
   6    -11.1479115 -0.198708E-06  0.895E-03    9.74       5.0  T
   7    -11.1479115 -0.619037E-07  0.177E-03    9.73      25.3  T
   8    -11.1479115 -0.886232E-08  0.652E-04    9.73      68.6  T
   9    -11.1479115 -0.459570E-09  0.866E-05    9.73     516.3  T
     SCC iter.                  ...        0 min,  0.001 sec
     gradient                   ...        0 min,  0.001 sec
 * total energy  :   -11.0973750 Eh     change       -0.1259361E-01 Eh
   gradient norm :     0.0686021 Eh/α   predicted    -0.8872500E-02 ( -29.55%)
   displ. norm   :     0.1890279 α      lambda       -0.9342291E-02
   maximum displ.:     0.1293208 α      in ANC's #4, #8, #2, ...

........................................................................
.............................. CYCLE    3 ..............................
........................................................................
   1    -11.1627771 -0.111628E+02  0.801E-01    9.31       0.0  T
   2    -11.1631272 -0.350071E-03  0.478E-01    9.31       1.0  T
   3    -11.1632177 -0.905924E-04  0.326E-01    9.33       1.0  T
   4    -11.1633834 -0.165630E-03  0.436E-02    9.30       1.0  T
   5    -11.1633860 -0.264587E-05  0.195E-02    9.31       2.3  T
   6    -11.1633862 -0.142374E-06  0.659E-03    9.31       6.8  T
   7    -11.1633862 -0.175050E-07  0.760E-04    9.31      58.9  T
   8    -11.1633862 -0.536936E-09  0.372E-04    9.31     120.1  T
     SCC iter.                  ...        0 min,  0.001 sec
     gradient                   ...        0 min,  0.001 sec
 * total energy  :   -11.1013623 Eh     change       -0.3987243E-02 Eh
   gradient norm :     0.0301661 Eh/α   predicted    -0.4838053E-02 (  21.34%)
   displ. norm   :     0.0580001 α      lambda       -0.1116497E-02
   maximum displ.:     0.0334768 α      in ANC's #4, #5, #3, ...

........................................................................
.............................. CYCLE    4 ..............................
........................................................................
   1    -11.1592523 -0.111593E+02  0.196E-01    9.20       0.0  T
   2    -11.1592728 -0.205732E-04  0.135E-01    9.18       1.0  T
   3    -11.1592791 -0.629271E-05  0.806E-02    9.19       1.0  T
   4    -11.1592886 -0.951929E-05  0.148E-02    9.18       3.0  T
   5    -11.1592891 -0.487185E-06  0.554E-03    9.18       8.1  T
   6    -11.1592891 -0.198981E-07  0.216E-03    9.18      20.7  T
   7    -11.1592891 -0.202609E-08  0.331E-04    9.18     134.9  T
   8    -11.1592891 -0.350298E-10  0.144E-04    9.18     310.5  T
     SCC iter.                  ...        0 min,  0.000 sec
     gradient                   ...        0 min,  0.001 sec
 * total energy  :   -11.1019677 Eh     change       -0.6054250E-03 Eh
   gradient norm :     0.0076537 Eh/α   predicted    -0.5601255E-03 (  -7.48%)
   displ. norm   :     0.0783762 α      lambda       -0.2558748E-03
   maximum displ.:     0.0729451 α      in ANC's #1, #3, #4, ...

........................................................................
.............................. CYCLE    5 ..............................
........................................................................
   1    -11.1583784 -0.111584E+02  0.244E-01    9.14       0.0  T
   2    -11.1583883 -0.989060E-05  0.155E-01    9.13       1.0  T
   3    -11.1583773  0.110196E-04  0.107E-01    9.14       1.0  T
   4    -11.1584053 -0.279601E-04  0.601E-03    9.14       7.4  T
   5    -11.1584053 -0.772824E-08  0.222E-03    9.13      20.1  T
   6    -11.1584053 -0.181249E-08  0.597E-04    9.13      74.9  T
   7    -11.1584053 -0.288503E-09  0.164E-04    9.13     273.1  T
     SCC iter.                  ...        0 min,  0.000 sec
     gradient                   ...        0 min,  0.001 sec
 * total energy  :   -11.1021718 Eh     change       -0.2040644E-03 Eh
   gradient norm :     0.0061385 Eh/α   predicted    -0.1287210E-03 ( -36.92%)
   displ. norm   :     0.1628605 α      lambda       -0.3464482E-03
   maximum displ.:     0.1567842 α      in ANC's #1, #3, #5, ...

........................................................................
.............................. CYCLE    6 ..............................
........................................................................
   1    -11.1566101 -0.111566E+02  0.475E-01    9.00       0.0  T
   2    -11.1566390 -0.288881E-04  0.298E-01    8.99       1.0  T
   3    -11.1565693  0.696254E-04  0.203E-01    9.01       1.0  T
   4    -11.1566873 -0.117936E-03  0.127E-02    9.00       3.5  T
   5    -11.1566873 -0.347877E-07  0.298E-03    9.00      15.0  T
   6    -11.1566873 -0.407459E-08  0.975E-04    9.00      45.9  T
   7    -11.1566873 -0.640265E-09  0.315E-04    9.00     141.9  T
     SCC iter.                  ...        0 min,  0.001 sec
     gradient                   ...        0 min,  0.001 sec
 * total energy  :   -11.1022853 Eh     change       -0.1135648E-03 Eh
   gradient norm :     0.0178515 Eh/α   predicted    -0.1778170E-03 (  56.58%)
   displ. norm   :     0.0330452 α      lambda       -0.2179062E-03
   maximum displ.:     0.0285694 α      in ANC's #1, #4, #3, ...

........................................................................
.............................. CYCLE    7 ..............................
........................................................................
   1    -11.1584461 -0.111584E+02  0.111E-01    9.17       0.0  T
   2    -11.1584500 -0.389903E-05  0.652E-02    9.18       1.0  T
   3    -11.1584478  0.220278E-05  0.430E-02    9.17       1.0  T
   4    -11.1584522 -0.440078E-05  0.847E-03    9.17       5.3  T
   5    -11.1584523 -0.122577E-06  0.354E-03    9.18      12.6  T
   6    -11.1584524 -0.613200E-08  0.106E-03    9.18      42.1  T
   7    -11.1584524 -0.426741E-09  0.191E-04    9.18     233.6  T
   8    -11.1584524 -0.291926E-10  0.375E-05    9.18    1193.9  T
     SCC iter.                  ...        0 min,  0.000 sec
     gradient                   ...        0 min,  0.001 sec
 * total energy  :   -11.1024203 Eh     change       -0.1349945E-03 Eh
   gradient norm :     0.0080329 Eh/α   predicted    -0.1090726E-03 ( -19.20%)
   displ. norm   :     0.0605230 α      lambda       -0.1584509E-03
   maximum displ.:     0.0559706 α      in ANC's #1, #7, #2, ...

........................................................................
.............................. CYCLE    8 ..............................
........................................................................
   1    -11.1591599 -0.111592E+02  0.161E-01    9.27       0.0  T
   2    -11.1591630 -0.306334E-05  0.994E-02    9.27       1.0  T
   3    -11.1591570  0.598629E-05  0.442E-02    9.27       1.0  T
   4    -11.1591648 -0.781844E-05  0.674E-03    9.27       6.6  T
   5    -11.1591649 -0.734209E-07  0.327E-03    9.27      13.7  T
   6    -11.1591649 -0.582135E-08  0.126E-03    9.27      35.5  T
   7    -11.1591649 -0.103405E-08  0.229E-04    9.27     195.2  T
   8    -11.1591649 -0.298996E-10  0.594E-05    9.27     752.7  T
     SCC iter.                  ...        0 min,  0.000 sec
     gradient                   ...        0 min,  0.001 sec
 * total energy  :   -11.1025542 Eh     change       -0.1338603E-03 Eh
   gradient norm :     0.0051409 Eh/α   predicted    -0.7951690E-04 ( -40.60%)
   displ. norm   :     0.2499490 α      lambda       -0.4596695E-03
   maximum displ.:     0.2374210 α      in ANC's #1, #7, #2, ...

........................................................................
.............................. CYCLE    9 ..............................
........................................................................
   1    -11.1573355 -0.111573E+02  0.672E-01    9.12       0.0  T
   2    -11.1573660 -0.305674E-04  0.422E-01    9.11       1.0  T
   3    -11.1572312  0.134890E-03  0.198E-01    9.13       1.0  T
   4    -11.1573991 -0.167914E-03  0.192E-02    9.12       2.3  T
   5    -11.1573992 -0.120807E-06  0.585E-03    9.12       7.6  T
   6    -11.1573992 -0.180720E-07  0.119E-03    9.11      37.7  T
   7    -11.1573992 -0.118718E-08  0.657E-04    9.11      68.1  T
   8    -11.1573992 -0.221405E-09  0.279E-04    9.11     160.3  T
     SCC iter.                  ...        0 min,  0.000 sec
     gradient                   ...        0 min,  0.001 sec
 * total energy  :   -11.1028162 Eh     change       -0.2619793E-03 Eh
   gradient norm :     0.0152585 Eh/α   predicted    -0.2441923E-03 (  -6.79%)
   displ. norm   :     0.0174255 α      lambda       -0.2288528E-03
   maximum displ.:     0.0107681 α      in ANC's #7, #8, #6, ...

........................................................................
.............................. CYCLE   10 ..............................
........................................................................
   1    -11.1589831 -0.111590E+02  0.669E-02    9.29       0.0  T
   2    -11.1589857 -0.259320E-05  0.350E-02    9.29       1.3  T
   3    -11.1589868 -0.109504E-05  0.284E-02    9.28       1.6  T
   4    -11.1589884 -0.155552E-05  0.642E-03    9.28       7.0  T
   5    -11.1589884 -0.188962E-07  0.207E-03    9.29      21.6  T
   6    -11.1589884 -0.225483E-08  0.994E-04    9.29      45.0  T
   7    -11.1589884 -0.468440E-09  0.175E-04    9.29     255.6  T
     SCC iter.                  ...        0 min,  0.001 sec
     gradient                   ...        0 min,  0.001 sec
 * total energy  :   -11.1029699 Eh     change       -0.1537108E-03 Eh
   gradient norm :     0.0054580 Eh/α   predicted    -0.1144615E-03 ( -25.53%)
   displ. norm   :     0.1749298 α      lambda       -0.2785144E-03
   maximum displ.:     0.1570523 α      in ANC's #1, #7, #3, ...

........................................................................
.............................. CYCLE   11 ..............................
........................................................................
   1    -11.1585895 -0.111586E+02  0.493E-01    9.24       0.0  T
   2    -11.1586033 -0.137467E-04  0.308E-01    9.24       1.0  T
   3    -11.1586106 -0.727883E-05  0.221E-02    9.24       2.0  T
   4    -11.1586110 -0.421424E-06  0.122E-02    9.23       3.7  T
   5    -11.1586111 -0.589613E-07  0.717E-03    9.23       6.2  T
   6    -11.1586112 -0.119590E-06  0.248E-03    9.23      18.0  T
   7    -11.1586112 -0.547041E-08  0.493E-04    9.23      90.7  T
   8    -11.1586112 -0.134230E-09  0.147E-04    9.23     303.4  T
     SCC iter.                  ...        0 min,  0.000 sec
     gradient                   ...        0 min,  0.001 sec
 * total energy  :   -11.1031228 Eh     change       -0.1529515E-03 Eh
   gradient norm :     0.0108100 Eh/α   predicted    -0.1435176E-03 (  -6.17%)
   displ. norm   :     0.0304222 α      lambda       -0.1350793E-03
   maximum displ.:     0.0178865 α      in ANC's #1, #7, #3, ...

........................................................................
.............................. CYCLE   12 ..............................
........................................................................
   1    -11.1601970 -0.111602E+02  0.847E-02    9.41       0.0  T
   2    -11.1601988 -0.180405E-05  0.514E-02    9.41       1.0  T
   3    -11.1601972  0.158493E-05  0.307E-02    9.41       1.5  T
   4    -11.1601998 -0.264789E-05  0.582E-03    9.41       7.7  T
   5    -11.1601999 -0.510532E-07  0.228E-03    9.41      19.6  T
   6    -11.1601999 -0.350718E-08  0.971E-04    9.41      46.1  T
   7    -11.1601999 -0.565121E-09  0.172E-04    9.41     260.5  T
     SCC iter.                  ...        0 min,  0.000 sec
     gradient                   ...        0 min,  0.001 sec
 * total energy  :   -11.1032145 Eh     change       -0.9162257E-04 Eh
   gradient norm :     0.0049162 Eh/α   predicted    -0.6760085E-04 ( -26.22%)
   displ. norm   :     0.1305411 α      lambda       -0.1434111E-03
   maximum displ.:     0.1105944 α      in ANC's #1, #7, #3, ...

........................................................................
.............................. CYCLE   13 ..............................
........................................................................
   1    -11.1600827 -0.111601E+02  0.376E-01    9.46       0.0  T
   2    -11.1600898 -0.713808E-05  0.235E-01    9.46       1.0  T
   3    -11.1600829  0.689462E-05  0.523E-02    9.45       1.0  T
   4    -11.1600952 -0.122637E-04  0.112E-02    9.46       4.0  T
   5    -11.1600952 -0.582028E-07  0.328E-03    9.46      13.6  T
   6    -11.1600952 -0.667790E-08  0.703E-04    9.46      63.7  T
   7    -11.1600952 -0.295422E-09  0.378E-04    9.46     118.4  T
     SCC iter.                  ...        0 min,  0.000 sec
     gradient                   ...        0 min,  0.001 sec
 * total energy  :   -11.1033094 Eh     change       -0.9498124E-04 Eh
   gradient norm :     0.0071383 Eh/α   predicted    -0.7292897E-04 ( -23.22%)
   displ. norm   :     0.0782285 α      lambda       -0.1169903E-03
   maximum displ.:     0.0590777 α      in ANC's #1, #7, #4, ...

........................................................................
.............................. CYCLE   14 ..............................
........................................................................
   1    -11.1602182 -0.111602E+02  0.224E-01    9.56       0.0  T
   2    -11.1602243 -0.615731E-05  0.140E-01    9.57       1.0  T
   3    -11.1602112  0.131255E-04  0.720E-02    9.56       1.0  T
   4    -11.1602291 -0.178771E-04  0.786E-03    9.57       5.7  T
   5    -11.1602292 -0.909195E-07  0.442E-03    9.57      10.1  T
   6    -11.1602292 -0.102616E-07  0.111E-03    9.57      40.2  T
   7    -11.1602292 -0.108657E-08  0.301E-04    9.57     148.8  T
   8    -11.1602292 -0.434284E-10  0.744E-05    9.57     600.7  T
     SCC iter.                  ...        0 min,  0.000 sec
     gradient                   ...        0 min,  0.001 sec
 * total energy  :   -11.1033890 Eh     change       -0.7954205E-04 Eh
   gradient norm :     0.0036738 Eh/α   predicted    -0.5885309E-04 ( -26.01%)
   displ. norm   :     0.0706813 α      lambda       -0.5434207E-04
   maximum displ.:     0.0512701 α      in ANC's #1, #7, #4, ...

........................................................................
.............................. CYCLE   15 ..............................
........................................................................
   1    -11.1599366 -0.111599E+02  0.210E-01    9.59       0.0  T
   2    -11.1599415 -0.492251E-05  0.131E-01    9.59       1.0  T
   3    -11.1599310  0.104938E-04  0.626E-02    9.59       1.0  T
   4    -11.1599451 -0.140312E-04  0.665E-03    9.59       6.7  T
   5    -11.1599451 -0.631367E-07  0.377E-03    9.59      11.9  T
   6    -11.1599451 -0.681289E-08  0.906E-04    9.59      49.4  T
   7    -11.1599451 -0.725901E-09  0.258E-04    9.59     173.2  T
     SCC iter.                  ...        0 min,  0.000 sec
     gradient                   ...        0 min,  0.001 sec
 * total energy  :   -11.1034275 Eh     change       -0.3852715E-04 Eh
   gradient norm :     0.0033928 Eh/α   predicted    -0.2730786E-04 ( -29.12%)
   displ. norm   :     0.0447699 α      lambda       -0.5315362E-04
   maximum displ.:     0.0278309 α      in ANC's #7, #1, #4, ...

........................................................................
.............................. CYCLE   16 ..............................
........................................................................
   1    -11.1605706 -0.111606E+02  0.145E-01    9.69       0.0  T
   2    -11.1605779 -0.723553E-05  0.871E-02    9.70       1.0  T
   3    -11.1605754  0.242373E-05  0.507E-02    9.70       1.0  T
   4    -11.1605808 -0.541056E-05  0.955E-03    9.70       4.7  T
   5    -11.1605811 -0.225223E-06  0.367E-03    9.70      12.2  T
   6    -11.1605811 -0.814728E-08  0.115E-03    9.70      38.9  T
   7    -11.1605811 -0.934111E-09  0.233E-04    9.70     191.8  T
   8    -11.1605811 -0.406732E-10  0.688E-05    9.70     650.2  T
     SCC iter.                  ...        0 min,  0.000 sec
     gradient                   ...        0 min,  0.001 sec
 * total energy  :   -11.1034400 Eh     change       -0.1246875E-04 Eh
   gradient norm :     0.0043747 Eh/α   predicted    -0.2662998E-04 ( 113.57%)
   displ. norm   :     0.1091423 α      lambda       -0.5900535E-04
   maximum displ.:     0.0800866 α      in ANC's #1, #7, #4, ...

........................................................................
.............................. CYCLE   17 ..............................
........................................................................
   1    -11.1590140 -0.111590E+02  0.325E-01    9.61       0.0  T
   2    -11.1590202 -0.616374E-05  0.203E-01    9.62       1.0  T
   3    -11.1590076  0.125895E-04  0.640E-02    9.61       1.0  T
   4    -11.1590251 -0.175208E-04  0.930E-03    9.62       4.8  T
   5    -11.1590252 -0.242536E-07  0.190E-03    9.62      23.6  T
   6    -11.1590252 -0.255670E-08  0.844E-04    9.62      53.0  T
   7    -11.1590252 -0.573859E-09  0.303E-04    9.62     147.5  T
     SCC iter.                  ...        0 min,  0.000 sec
     gradient                   ...        0 min,  0.001 sec
 * total energy  :   -11.1034423 Eh     change       -0.2348864E-05 Eh
   gradient norm :     0.0058929 Eh/α   predicted    -0.2985468E-04 (1171.03%)
   displ. norm   :     0.0722579 α      lambda       -0.5974432E-04
   maximum displ.:     0.0518224 α      in ANC's #1, #7, #4, ...

........................................................................
.............................. CYCLE   18 ..............................
........................................................................
   1    -11.1602406 -0.111602E+02  0.214E-01    9.68       0.0  T
   2    -11.1602442 -0.357244E-05  0.134E-01    9.67       1.0  T
   3    -11.1602345  0.971059E-05  0.562E-02    9.68       1.0  T
   4    -11.1602471 -0.126791E-04  0.636E-03    9.67       7.0  T
   5    -11.1602471 -0.129753E-07  0.326E-03    9.67      13.7  T
   6    -11.1602472 -0.572457E-08  0.688E-04    9.67      65.0  T
   7    -11.1602472 -0.344549E-09  0.174E-04    9.67     257.6  T
     SCC iter.                  ...        0 min,  0.000 sec
     gradient                   ...        0 min,  0.001 sec
 * total energy  :   -11.1034620 Eh     change       -0.1969965E-04 Eh
   gradient norm :     0.0010532 Eh/α   predicted    -0.3002872E-04 (  52.43%)
   displ. norm   :     0.0309812 α      lambda       -0.4718562E-05
   maximum displ.:     0.0214022 α      in ANC's #1, #7, #4, ...

........................................................................
.............................. CYCLE   19 ..............................
........................................................................
   1    -11.1601261 -0.111601E+02  0.944E-02    9.68       0.0  T
   2    -11.1601266 -0.518578E-06  0.587E-02    9.68       1.0  T
   3    -11.1601256  0.106404E-05  0.187E-02    9.68       2.4  T
   4    -11.1601270 -0.146912E-05  0.254E-03    9.68      17.6  T
   5    -11.1601270 -0.232530E-08  0.100E-03    9.68      44.6  T
   6    -11.1601270 -0.513865E-09  0.311E-04    9.68     144.0  T
   7    -11.1601270 -0.886970E-10  0.979E-05    9.68     456.7  T
     SCC iter.                  ...        0 min,  0.000 sec
     gradient                   ...        0 min,  0.001 sec
 * total energy  :   -11.1034672 Eh     change       -0.5161660E-05 Eh
   gradient norm :     0.0008844 Eh/α   predicted    -0.2360887E-05 ( -54.26%)
   displ. norm   :     0.0347279 α      lambda       -0.3226409E-05
   maximum displ.:     0.0232165 α      in ANC's #1, #7, #4, ...

........................................................................
.............................. CYCLE   20 ..............................
........................................................................
   1    -11.1601175 -0.111601E+02  0.106E-01    9.70       0.0  T
   2    -11.1601182 -0.708525E-06  0.661E-02    9.70       1.0  T
   3    -11.1601168  0.144955E-05  0.221E-02    9.70       2.0  T
   4    -11.1601188 -0.198696E-05  0.286E-03    9.70      15.6  T
   5    -11.1601188 -0.355606E-08  0.133E-03    9.70      33.6  T
   6    -11.1601188 -0.804395E-09  0.380E-04    9.70     117.8  T
   7    -11.1601188 -0.129967E-09  0.111E-04    9.70     403.7  T
     SCC iter.                  ...        0 min,  0.000 sec
     gradient                   ...        0 min,  0.001 sec
 * total energy  :   -11.1034699 Eh     change       -0.2685290E-05 Eh
   gradient norm :     0.0009036 Eh/α   predicted    -0.1614007E-05 ( -39.89%)
   displ. norm   :     0.0047871 α      lambda       -0.7208660E-06
   maximum displ.:     0.0033693 α      in ANC's #7, #1, #4, ...

   *** GEOMETRY OPTIMIZATION CONVERGED AFTER 20 ITERATIONS ***

------------------------------------------------------------------------
 total energy gain   :        -0.0186884 Eh      -11.7272 kcal/mol
 total RMSD          :         0.5144677 a0        0.2722 Å
 total power (kW/mol):        -2.4533250 (step)-1337.5089 (real)
------------------------------------------------------------------------

 ANCopt (total)                0 d,  0 h,  0 min,  0.037 sec
 optimizer setup                ...        0 min,  0.000 sec (  0.329%)
 model hessian                  ...        0 min,  0.000 sec (  0.229%)
 ANC generation                 ...        0 min,  0.000 sec (  0.125%)
 coordinate transformation      ...        0 min,  0.000 sec (  0.135%)
 single point calculation       ...        0 min,  0.035 sec ( 95.142%)
 optimization log               ...        0 min,  0.000 sec (  1.306%)
 hessian update                 ...        0 min,  0.000 sec (  0.096%)
 rational function              ...        0 min,  0.000 sec (  1.153%)

================
 final structure:
================
5
 xtb: 6.2.2 (9d81278992624c895f80dd42a50cac0aa55982e2)
C        -0.34971126198512    0.02325014950194   -0.22178774750294
O         0.89439601106376   -0.27574172456473    0.29711936486986
O        -1.19070730494042    0.89548657035520    0.20836917509485
H        -0.91388080470250   -0.95895405794258   -0.20158138233352
H         1.55990436056427    0.31595906265017   -0.08211941012823

 Bond Distances (Angstroems)
 ---------------------------
C1-O2=1.3807         C1-O3=1.2857         C1-H4=1.1329         O2-C1=1.3807         O2-H5=0.9679         O3-C1=1.2857         
H4-C1=1.1329         H5-O2=0.9679         
 C  H  Rav=1.1329 sigma=0.0000  Rmin=1.1329  Rmax=1.1329     1
 O  H  Rav=0.9679 sigma=0.0000  Rmin=0.9679  Rmax=0.9679     1
 O  C  Rav=1.3332 sigma=0.0475  Rmin=1.2857  Rmax=1.3807     2

 selected bond angles (degree)
 --------------------
O3-C1-O2=127.63                H4-C1-O2=104.73                H4-C1-O3=104.86                H5-O2-C1=109.87                

 selected dihedral angles (degree)
 ---------------------------------
H5-O2-C1-O3=273.19            H5-O2-C1-H4=150.67            
           -------------------------------------------------
          |                Final Singlepoint                |
           -------------------------------------------------

          ...................................................
          :                      SETUP                      :
          :.................................................:
          :  # basis functions                  14          :
          :  # atomic orbitals                  14          :
          :  # shells                            8          :
          :  # electrons                        18          :
          :  max. iterations                   250          :
          :  Hamiltonian                  GFN2-xTB          :
          :  restarted?                      false          :
          :  GBSA solvation                  false          :
          :  PC potential                    false          :
          :  electronic temp.          300.0000000     K    :
          :  accuracy                    1.0000000          :
          :  -> integral cutoff          0.2500000E+02      :
          :  -> integral neglect         0.1000000E-07      :
          :  -> SCF convergence          0.1000000E-05 Eh   :
          :  -> wf. convergence          0.1000000E-03 e    :
          :  Broyden damping             0.4000000          :
          ...................................................

 iter      E             dE          RMSdq      gap      omega  full diag
   1    -11.1601188 -0.111601E+02  0.251E-05    9.70       0.0  T
   2    -11.1601188 -0.259348E-12  0.173E-05    9.70    2580.9  T
   3    -11.1601188 -0.184741E-12  0.344E-06    9.70   13006.5  T

   *** convergence criteria satisfied after 3 iterations ***

         #    Occupation            Energy/Eh            Energy/eV
      -------------------------------------------------------------
         1        2.0000           -0.7367574             -20.0482
       ...           ...                  ...                  ...
         4        2.0000           -0.5967558             -16.2386
         5        2.0000           -0.5821892             -15.8422
         6        2.0000           -0.5582670             -15.1912
         7        2.0000           -0.5216399             -14.1945
         8        2.0000           -0.4798852             -13.0583
         9        1.0000           -0.4334221             -11.7940
        10        1.0000           -0.3034767              -8.2580 (HOMO)
        11                          0.0528600               1.4384 (LUMO)
        12                          0.0957682               2.6060
        13                          0.1785480               4.8585
        14                          0.3712963              10.1035
      -------------------------------------------------------------
                  HL-Gap            0.3563367 Eh            9.6964 eV
             Fermi-level           -0.2909810 Eh           -7.9180 eV

 transition dipole moment (au) for excitation:           9          10
     X       Y       Z   
  -0.2969   0.0242   0.0853  total (au/Debye):    0.310   0.787
 dE (eV)             :    3.536
 oscillator strength :  0.11759E-01

 SCC (total)                   0 d,  0 h,  0 min,  0.003 sec
 SCC setup                      ...        0 min,  0.000 sec (  2.708%)
 Dispersion                     ...        0 min,  0.000 sec (  0.232%)
 integral evaluation            ...        0 min,  0.001 sec ( 30.578%)
 zeroth order Hamiltonian       ...        0 min,  0.000 sec (  0.411%)
 iterations                     ...        0 min,  0.000 sec ( 12.072%)
 molecular gradient             ...        0 min,  0.001 sec ( 32.079%)
 printout                       ...        0 min,  0.001 sec ( 21.589%)

         :::::::::::::::::::::::::::::::::::::::::::::::::::::
         ::                     SUMMARY                     ::
         :::::::::::::::::::::::::::::::::::::::::::::::::::::
         :: total energy             -11.103469870637 Eh    ::
         :: gradient norm              0.000932551052 Eh/a0 ::
         :: HOMO-LUMO gap              9.696414415076 eV    ::
         ::.................................................::
         :: SCC energy               -11.160118766478 Eh    ::
         :: -> isotropic ES            0.034809682081 Eh    ::
         :: -> anisotropic ES          0.001104672121 Eh    ::
         :: -> anisotropic XC         -0.001850533306 Eh    ::
         :: -> dispersion             -0.001133102523 Eh    ::
         :: repulsion energy           0.056648868884 Eh    ::
         :: add. restraining           0.000000000000 Eh    ::
         :::::::::::::::::::::::::::::::::::::::::::::::::::::

           ------------------------------------------------- 
          |                Numerical Hessian                |
           ------------------------------------------------- 
step length          :   0.00500
SCC accuracy         :   0.30000
Hessian scale factor :   1.00000
frozen atoms in %    :   0.00000    0
RMS gradient         :   0.00093
estimated CPU  time      0.00 min
estimated wall time      0.00 min

writing file <hessian>.

 projected vibrational frequencies (cm-1)
eigval :       -0.00    -0.00    -0.00     0.00     0.00     0.00
eigval :      192.14   505.82   702.74  1013.43  1065.16  1162.17
eigval :     1416.83  2442.72  3450.99
           -------------------------------------------------
          |                Property Printout                |
           -------------------------------------------------

    * Orbital Energies and Occupations

         #    Occupation            Energy/Eh            Energy/eV
      -------------------------------------------------------------
         1        2.0000           -0.7367574             -20.0482
         2        2.0000           -0.7168918             -19.5076
         3        2.0000           -0.6511683             -17.7192
         4        2.0000           -0.5967558             -16.2386
         5        2.0000           -0.5821892             -15.8422
         6        2.0000           -0.5582670             -15.1912
         7        2.0000           -0.5216399             -14.1945
         8        2.0000           -0.4798851             -13.0583
         9        1.0000           -0.4334221             -11.7940
        10        1.0000           -0.3034767              -8.2580 (HOMO)
        11                          0.0528600               1.4384 (LUMO)
        12                          0.0957682               2.6060
        13                          0.1785480               4.8585
        14                          0.3712963              10.1035
      -------------------------------------------------------------
                  HL-Gap            0.3563367 Eh            9.6964 eV
             Fermi-level           -0.2909810 Eh           -7.9180 eV

     #   Z        covCN         q      C6AA      α(0)
     1   6 C      2.624     0.164    24.457     8.089
     2   8 O      1.657    -0.368    20.242     6.074
     3   8 O      0.855    -0.297    19.721     5.954
     4   1 H      0.917     0.176     1.230     1.735
     5   1 H      0.805     0.325     0.651     1.267

 Mol. C6AA /au·bohr⁶  :        247.720814
 Mol. C8AA /au·bohr⁸  :       5348.485673
 Mol. α(0) /au        :         23.118221


Wiberg/Mayer (AO) data.
largest (>0.10) Wiberg bond orders for each atom
          total WBO             WBO to atom ...
     1  C   3.024        O    3 1.336    O    2 1.006    H    4 0.681
     2  O   1.961        C    1 1.006    H    5 0.867
     3  O   1.458        C    1 1.336
     4  H   0.721        C    1 0.681
     5  H   0.877        O    2 0.867

MOs/occ written to file <molden.input>


molecular dipole:
                 x           y           z       tot (Debye)
 q only:        0.591      -0.428      -0.510
   full:        0.710      -0.450      -0.498       2.484
molecular quadrupole (traceless):
                xx          xy          yy          xz          yz          zz
 q only:        1.044       3.857      -0.639      -0.111      -0.002      -0.405
  q+dip:        0.797       5.610      -0.246      -0.689       0.013      -0.551
   full:        0.975       5.775      -0.302      -0.498       0.045      -0.673

           -------------------------------------------------
          |                Geometry Summary                 |
           -------------------------------------------------

      molecular mass/u    :       46.0254272
   center of mass at/Å    :       -0.1801151       0.2074234       0.1116283
  moments of inertia/u·Å² :        0.5935909E+01   0.4920727E+02   0.5290641E+02
rotational constants/cm⁻¹ :        0.2839941E+01   0.3425842E+00   0.3186312E+00

 * 2 selected distances

     #   Z        #   Z                                     value/Å
     1   6 C      2   8 O                                 1.3807475 (max)
     2   8 O      5   1 H                                 0.9679015 (min)

 * 2 distinct bonds (by element types)

   Z      Z             #   av. dist./Å        max./Å        min./Å
   1 H    8 O           1     0.9679015     0.9679015     0.9679015
   6 C    8 O           1     1.3807475     1.3807475     1.3807475
Molecule has no symmetry elements
It seems to be the C1 point group

           -------------------------------------------------
          |               Frequency Printout                |
           -------------------------------------------------
 projected vibrational frequencies (cm-1)
eigval :       -0.00    -0.00    -0.00     0.00     0.00     0.00
eigval :      192.14   505.82   702.74  1013.43  1065.16  1162.17
eigval :     1416.83  2442.72  3450.99
 reduced masses (amu)
   1:  7.54   2: 14.84   3: 13.82   4: 14.09   5: 15.42   6: 14.30   7:  2.84   8: 14.41
   9:  4.80  10:  8.53  11:  7.76  12:  3.47  13: 12.72  14:  1.67  15:  1.87
 IR intensities (amu)
   1:  0.25   2:  0.22   3:  0.28   4:  0.11   5:  0.15   6:  0.35   7:  0.55   8:  0.49
   9:  0.24  10:  0.84  11:  0.81  12:  0.48  13:  1.13  14:  0.18  15:  0.28
 Raman intensities (amu)
   1:  0.00   2:  0.00   3:  0.00   4:  0.00   5:  0.00   6:  0.00   7:  0.00   8:  0.00
   9:  0.00  10:  0.00  11:  0.00  12:  0.00  13:  0.00  14:  0.00  15:  0.00
 output can be read by thermo (or use thermo option).
 writing <g98.out> molden fake output.
 recommended (thermochemical) frequency scaling factor: 1.0
           -------------------------------------------------
          |             Thermodynamic Functions             |
           -------------------------------------------------

c1  symmetry found (for desy threshold:  0.10E+00) used in thermo

          ...................................................
          :                      SETUP                      :
          :.................................................:
          :  # frequencies                           9      :
          :  # imaginary freq.                       0      :
          :  linear?                             false      :
          :  only rotor calc.                    false      :
          :  symmetry                               c1      :
          :  rotational number                       1      :
          :  scaling factor                  1.0000000      :
          :  rotor cutoff                   50.0000000 cm⁻¹ :
          :  imag. cutoff                  -20.0000000 cm⁻¹ :
          :.................................................:

    mode    ω/cm⁻¹     T·S(HO)/kcal·mol⁻¹    T·S(FR)/kcal·mol⁻¹   T·S(vib)
   ------------------------------------------------------------------------
       1    192.14    -0.00000 ( 99.54%)     0.01170 (  0.46%)     0.00005
   ------------------------------------------------------------------------

   temp. (K)  partition function   enthalpy   heat capacity  entropy
                                   cal/mol     cal/K/mol   cal/K/mol   J/K/mol
 298.15  VIB   1.91                  624.152      4.919      3.380
         ROT  0.950E+04              888.752      2.981     21.182
         INT  0.181E+05             1512.904      7.900     24.561
         TR   0.302E+27             1481.254      4.968     37.388
         TOT                        2994.1580    12.8678    61.9490   259.1948

   temp. (K)  partition function   enthalpy   heat capacity  entropy
                                   cal/mol     cal/K/mol   cal/K/mol   J/K/mol
 120.00  VIB   1.11                   64.798      1.505      0.757
         ROT  0.242E+04              357.707      2.981     18.469
         INT  0.270E+04              422.505      4.486     19.225
         TR   0.771E+26              596.178      4.968     32.869
         TOT                        1018.6831     9.4537    52.0941   217.9619

   temp. (K)  partition function   enthalpy   heat capacity  entropy
                                   cal/mol     cal/K/mol   cal/K/mol   J/K/mol
 100.00  VIB   1.07                   38.026      1.171      0.514
         ROT  0.184E+04              298.089      2.981     17.925
         INT  0.197E+04              336.115      4.152     18.439
         TR   0.587E+26              496.815      4.968     31.963
         TOT                         832.9300     9.1204    50.4023   210.8833

   temp. (K)  partition function   enthalpy   heat capacity  entropy
                                   cal/mol     cal/K/mol   cal/K/mol   J/K/mol
  80.00  VIB   1.03                   18.076      0.818      0.293
         ROT  0.132E+04              238.471      2.981     17.260
         INT  0.136E+04              256.547      3.799     17.553
         TR   0.420E+26              397.452      4.968     30.855
         TOT                         653.9994     8.7672    48.4079   202.5386

   temp. (K)  partition function   enthalpy   heat capacity  entropy
                                   cal/mol     cal/K/mol   cal/K/mol   J/K/mol
  60.00  VIB   1.01                    5.544      0.431      0.115
         ROT   857.                  178.853      2.981     16.402
         INT   866.                  184.397      3.412     16.517
         TR   0.273E+26              298.089      4.968     29.427
         TOT                         482.4864     8.3801    45.9437   192.2283

   temp. (K)  partition function   enthalpy   heat capacity  entropy
                                   cal/mol     cal/K/mol   cal/K/mol   J/K/mol
  40.00  VIB   1.00                    0.548      0.095      0.016
         ROT   467.                  119.236      2.981     15.194
         INT   467.                  119.784      3.076     15.210
         TR   0.148E+26              198.726      4.968     27.413
         TOT                         318.5096     8.0438    42.6235   178.3366

   temp. (K)  partition function   enthalpy   heat capacity  entropy
                                   cal/mol     cal/K/mol   cal/K/mol   J/K/mol
  20.00  VIB   1.00                    0.001      0.000     -0.002
         ROT   165.                   59.618      2.981     13.128
         INT   165.                   59.618      2.981     13.125
         TR   0.525E+25               99.363      4.968     23.971
         TOT                         158.9813     7.9494    37.0965   155.2117

   temp. (K)  partition function   enthalpy   heat capacity  entropy
                                   cal/mol     cal/K/mol   cal/K/mol   J/K/mol
  10.00  VIB   1.00                    0.000      0.000     -0.006
         ROT   58.3                   29.809      2.981     11.061
         INT   58.3                   29.809      2.981     11.056
         TR   0.186E+25               49.681      4.968     20.529
         TOT                          79.4904     7.9490    31.5850   132.1518

       T/K    H(0)-H(T)+PV         H(T)/Eh          T*S/Eh         G(T)/Eh
   ------------------------------------------------------------------------
    298.15    0.477149E-02    0.320002E-01    0.294340E-01    0.256618E-02
    120.00    0.162337E-02    0.288521E-01    0.996208E-02    0.188900E-01
    100.00    0.132736E-02    0.285560E-01    0.803212E-02    0.205239E-01
     80.00    0.104221E-02    0.282709E-01    0.617143E-02    0.220995E-01
     60.00    0.768891E-03    0.279976E-01    0.439295E-02    0.236046E-01
     40.00    0.507577E-03    0.277363E-01    0.271699E-02    0.250193E-01
     20.00    0.253353E-03    0.274820E-01    0.118234E-02    0.262997E-01
     10.00    0.126676E-03    0.273554E-01    0.503340E-03    0.268520E-01 (used)
   ------------------------------------------------------------------------

         :::::::::::::::::::::::::::::::::::::::::::::::::::::
         ::                  THERMODYNAMIC                  ::
         :::::::::::::::::::::::::::::::::::::::::::::::::::::
         :: total free energy         -11.076617856311 Eh   ::
         ::.................................................::
         :: total energy              -11.103469870567 Eh   ::
         :: zero point energy           0.027228677894 Eh   ::
         :: G(RRHO) w/o ZPVE           -0.000376663638 Eh   ::
         :: G(RRHO) contrib.            0.026852014256 Eh   ::
         :::::::::::::::::::::::::::::::::::::::::::::::::::::

optimized geometry written to: xtbopt.xyz


           -------------------------------------------------
          | TOTAL ENERGY              -11.103469870567 Eh   |
          | TOTAL ENTHALPY            -11.076114516657 Eh   |
          | TOTAL FREE ENERGY         -11.076617856311 Eh   |
          | GRADIENT NORM               0.000932585714 Eh/α |
          | HOMO-LUMO GAP               9.696414031208 eV   |
           -------------------------------------------------

------------------------------------------------------------------------
 * finished run on 2020/05/12 at 11:43:52.411     
------------------------------------------------------------------------
 total:
 * wall-time:     0 d,  0 h,  0 min,  0.106 sec
 *  cpu-time:     0 d,  0 h,  0 min,  0.105 sec
 * ratio c/w:     0.990 speedup
 SCF:
 * wall-time:     0 d,  0 h,  0 min,  0.003 sec
 *  cpu-time:     0 d,  0 h,  0 min,  0.003 sec
 * ratio c/w:     0.999 speedup
 ANC optimizer:
 * wall-time:     0 d,  0 h,  0 min,  0.041 sec
 *  cpu-time:     0 d,  0 h,  0 min,  0.040 sec
 * ratio c/w:     0.983 speedup
 numerical hessian:
 * wall-time:     0 d,  0 h,  0 min,  0.047 sec
 *  cpu-time:     0 d,  0 h,  0 min,  0.047 sec
 * ratio c/w:     0.998 speedup

