5
 energy: -11.103469870637 gnorm: 0.000932551052 xtb: 6.2.2 (9d81278992624c895f80dd42a50cac0aa55982e2)
C        -0.34971191442815    0.02325159349688   -0.22178656735783
O         0.89439560441239   -0.27574588904140    0.29711672409665
O        -1.19070188881805    0.89549316853944    0.20837176852693
H        -0.91388652940387   -0.95894962468147   -0.20157651859562
H         1.55990572823768    0.31595075168132   -0.08212540667362
