5
 energy: -11.084781428280 gnorm: 0.125132309887 xtb: 6.2.2 (9d81278992624c895f80dd42a50cac0aa55982e2)
C        -0.34933900000000    0.05662100000000   -0.27406700000000
O         0.83341600000000    0.07652000000000    0.46434800000000
O        -1.28855900000000    0.89030000000000    0.33078000000000
H        -0.74681700000000   -0.97923300000000   -0.31339500000000
H         1.55130000000000   -0.04420800000000   -0.20766600000000
5
 energy: -11.097375039101 gnorm: 0.068622240244 xtb: 6.2.2 (9d81278992624c895f80dd42a50cac0aa55982e2)
C        -0.35475295295195    0.08359932754665   -0.20894079602801
O         0.86998800739597    0.07567221061892    0.45119923279744
O        -1.32192964591392    0.85263566529257    0.29210724655579
H        -0.75976364062064   -0.94811871212053   -0.31898822440847
H         1.56645923209054   -0.06378849133762   -0.21537745891675
5
 energy: -11.101362282560 gnorm: 0.030212978620 xtb: 6.2.2 (9d81278992624c895f80dd42a50cac0aa55982e2)
C        -0.36069903323177    0.12564387606233   -0.17701001877929
O         0.88184806925145    0.04036723476923    0.43348132487263
O        -1.33317042633530    0.80717380539070    0.25554715163442
H        -0.76964032095933   -0.91549374454366   -0.29614370208363
H         1.58166271127494   -0.05769117167860   -0.21587475564413
5
 energy: -11.101967707542 gnorm: 0.007655153148 xtb: 6.2.2 (9d81278992624c895f80dd42a50cac0aa55982e2)
C        -0.35620656370677    0.13067669695547   -0.17532243687834
O         0.88368031827821    0.02207656853382    0.43695046328434
O        -1.34862568988888    0.81870462753591    0.25286335827476
H        -0.76347548976233   -0.91969185296180   -0.29180784558074
H         1.58462842507977   -0.05176604006340   -0.22268353910001
5
 energy: -11.102171771914 gnorm: 0.006143049371 xtb: 6.2.2 (9d81278992624c895f80dd42a50cac0aa55982e2)
C        -0.35437226478532    0.12879766299152   -0.17455676055784
O         0.88026248522094   -0.00438806419352    0.43947859110799
O        -1.34197809225718    0.82691598939848    0.24563166734490
H        -0.77094424296095   -0.92566075478726   -0.28514308457545
H         1.58703311478250   -0.02566483340922   -0.22541041331960
5
 energy: -11.102285336711 gnorm: 0.017933946751 xtb: 6.2.2 (9d81278992624c895f80dd42a50cac0aa55982e2)
C        -0.35170333650719    0.12038397063574   -0.17526346982260
O         0.87431081676802   -0.05588747414235    0.43978106178909
O        -1.32365729514524    0.84187467681028    0.23245826286953
H        -0.79185307377950   -0.93686138216239   -0.27181127165086
H         1.59290388866390    0.03049020885871   -0.22516458318516
5
 energy: -11.102420331187 gnorm: 0.008066773194 xtb: 6.2.2 (9d81278992624c895f80dd42a50cac0aa55982e2)
C        -0.35258489535400    0.12139836543487   -0.17683072924595
O         0.87499029945421   -0.04517453527398    0.43509364283470
O        -1.32450905166283    0.83856445499311    0.23657540512531
H        -0.78890534612556   -0.93540760764313   -0.27402750307748
H         1.59100999368818    0.02061932248913   -0.22081081563659
5
 energy: -11.102554191486 gnorm: 0.005158129473 xtb: 6.2.2 (9d81278992624c895f80dd42a50cac0aa55982e2)
C        -0.35237040980514    0.11516761654063   -0.17897871935158
O         0.87461129511967   -0.06051977025185    0.42843615641402
O        -1.31627722480517    0.84285908197867    0.23428259735189
H        -0.79965853575809   -0.93847999742986   -0.26964446793106
H         1.59369587524874    0.04097306916240   -0.21409556648326
5
 energy: -11.102816170835 gnorm: 0.015399810714 xtb: 6.2.2 (9d81278992624c895f80dd42a50cac0aa55982e2)
C        -0.35074136817227    0.08882761875806   -0.18481055423191
O         0.87410383155819   -0.12900039078277    0.40838275751540
O        -1.28617938599677    0.86148096731824    0.22083148276406
H        -0.84276267354848   -0.94813688914095   -0.25077455392576
H         1.60558059615933    0.12682869384742   -0.19362913212179
5
 energy: -11.102969881603 gnorm: 0.005495882533 xtb: 6.2.2 (9d81278992624c895f80dd42a50cac0aa55982e2)
C        -0.35058869433524    0.08535636260325   -0.18518196314007
O         0.87732537139511   -0.12935925770510    0.40397213113262
O        -1.28650315612581    0.86026070949426    0.22092803493084
H        -0.84336604148241   -0.94393576819113   -0.25009843739546
H         1.60313352054834    0.12767795379872   -0.18961976552793
5
 energy: -11.103122833089 gnorm: 0.010952406830 xtb: 6.2.2 (9d81278992624c895f80dd42a50cac0aa55982e2)
C        -0.34901422270560    0.06309987615128   -0.18962269206271
O         0.88193122542351   -0.17701582893579    0.38313300505140
O        -1.26553242221489    0.87035915893129    0.21150035407473
H        -0.86918819563805   -0.94246553087289   -0.23566872303872
H         1.60180461513503    0.18602232472612   -0.16934194402470
5
 energy: -11.103214455664 gnorm: 0.004959032822 xtb: 6.2.2 (9d81278992624c895f80dd42a50cac0aa55982e2)
C        -0.34861547809128    0.06016662945204   -0.19119455066683
O         0.88273630643496   -0.18303435047380    0.37793367355334
O        -1.25927883012944    0.87127428962447    0.21079386128445
H        -0.86934379108451   -0.94195646934653   -0.23356779810633
H         1.59450279287026    0.19354990074381   -0.16396518606463
5
 energy: -11.103309436899 gnorm: 0.007312648180 xtb: 6.2.2 (9d81278992624c895f80dd42a50cac0aa55982e2)
C        -0.34781646606900    0.04614645332781   -0.19662319007127
O         0.88502971480082   -0.21566427827895    0.35993253640138
O        -1.23712644370213    0.88025016226279    0.20619664209258
H        -0.88404194229137   -0.94640384057684   -0.22428801192236
H         1.58395613726168    0.23567150326520   -0.14521797650032
5
 energy: -11.103388978949 gnorm: 0.003793574079 xtb: 6.2.2 (9d81278992624c895f80dd42a50cac0aa55982e2)
C        -0.34832372203326    0.03962176920172   -0.20195549530440
O         0.88702578507817   -0.23125356630723    0.34670900431128
O        -1.22190959877482    0.88670595616522    0.20623539925851
H        -0.89218166073108   -0.95369768761361   -0.22033322569468
H         1.57539019646100    0.25862352855390   -0.13065568257070
5
 energy: -11.103427506099 gnorm: 0.003527335705 xtb: 6.2.2 (9d81278992624c895f80dd42a50cac0aa55982e2)
C        -0.34904822272738    0.03472883640018   -0.20848787728183
O         0.88955026652842   -0.24676217787375    0.33239466055451
O        -1.21114940153154    0.89039064182088    0.20645249023374
H        -0.90014992758268   -0.95707812853241   -0.21437427145339
H         1.57079828531318    0.27872082818510   -0.11598500205304
5
 energy: -11.103439974853 gnorm: 0.004472602354 xtb: 6.2.2 (9d81278992624c895f80dd42a50cac0aa55982e2)
C        -0.35029012093772    0.03375839613504   -0.21556249493105
O         0.89129366450711   -0.25333994259972    0.31986577187031
O        -1.20569085797415    0.89133658946335    0.20925814554928
H        -0.90329887066317   -0.95892767752467   -0.21004603195989
H         1.56798718506793    0.28717263452600   -0.10351539052864
5
 energy: -11.103442323717 gnorm: 0.006059379420 xtb: 6.2.2 (9d81278992624c895f80dd42a50cac0aa55982e2)
C        -0.35083172391493    0.02388809300416   -0.22496903586006
O         0.89416649931438   -0.27786961195543    0.29752007614661
O        -1.18962796312886    0.89664675795791    0.20920214558716
H        -0.91520036233217   -0.96116520845131   -0.20038368426824
H         1.56149455006158    0.31849996944468   -0.08136950160547
5
 energy: -11.103462023370 gnorm: 0.001061117013 xtb: 6.2.2 (9d81278992624c895f80dd42a50cac0aa55982e2)
C        -0.35001819598333    0.02951037975976   -0.21745943812111
O         0.89213444242567   -0.26235028843582    0.31229661007573
O        -1.20062043302682    0.89283927149219    0.20841448214545
H        -0.90723848852204   -0.95817749535422   -0.20667743535110
H         1.56574367510652    0.29817813253809   -0.09657421874897
5
 energy: -11.103467185030 gnorm: 0.000908897853 xtb: 6.2.2 (9d81278992624c895f80dd42a50cac0aa55982e2)
C        -0.34995696592074    0.02657980576617   -0.21966015476022
O         0.89309209815139   -0.26888598555348    0.30525372959603
O        -1.19605576837032    0.89411914097040    0.20839511123754
H        -0.91038886812284   -0.95848470434044   -0.20412606590308
H         1.56331050426251    0.30667174315735   -0.08986262017027
5
 energy: -11.103469870321 gnorm: 0.000932350375 xtb: 6.2.2 (9d81278992624c895f80dd42a50cac0aa55982e2)
C        -0.34971126198512    0.02325014950194   -0.22178774750294
O         0.89439601106376   -0.27574172456473    0.29711936486986
O        -1.19070730494042    0.89548657035520    0.20836917509485
H        -0.91388080470250   -0.95895405794258   -0.20158138233352
H         1.55990436056427    0.31595906265017   -0.08211941012823
