[Molden Format]
[Title]
[Atoms] AU
C      1     6 -0.66085967947329E+00  0.43939139593560E-01 -0.41911583154165E+00
O      2     8  0.16901625825955E+01 -0.52108416193357E+00  0.56146918349562E+00
O      3     8 -0.22501002571767E+01  0.16922366780074E+01  0.39376553808630E+00
H      4     1 -0.17269950893277E+01 -0.18121519898294E+01 -0.38092437795913E+00
H      5     1  0.29477943331081E+01  0.59706033415215E+00 -0.15519451208773E+00
[GTO]
           1 0
 s           4   1.0000000000000000     
   51.049363095579913      -0.16312063210127389     
   8.7911227406887544      -0.19911024581000730     
  0.70640422258929825       0.31882047753655751     
  0.26922813413411617       0.12706504184240380     
 p           4   1.0000000000000000     
   5.8263656140800002       0.73716451545209605     
   1.5106896018720002       0.68216371614850257     
  0.53256483288000001       0.35783053929253711     
  0.21202323690600003        5.3983030275847881E-002

           2 0
 s           4   1.0000000000000000     
   69.137961906196551      -0.20478756370077797     
   11.906129132707308      -0.24997023136827334     
  0.95670827744340703       0.40025880240639616     
  0.36462520496073686       0.15952206667693555     
 p           4   1.0000000000000000     
   8.2124193257781641        1.1321556799186829     
   2.1293576997098116        1.0476840782254817     
  0.75066448202360914       0.54956508217158984     
  0.29885246543283073        8.2908486592766617E-002

           3 0
 s           4   1.0000000000000000     
   69.137961906196551      -0.20478756370077797     
   11.906129132707308      -0.24997023136827334     
  0.95670827744340703       0.40025880240639616     
  0.36462520496073686       0.15952206667693555     
 p           4   1.0000000000000000     
   8.2124193257781641        1.1321556799186829     
   2.1293576997098116        1.0476840782254817     
  0.75066448202360914       0.54956508217158984     
  0.29885246543283073        8.2908486592766617E-002

           4 0
 s           3   1.0000000000000000     
   3.3702276975336001       0.27359110588908298     
  0.61389118221497996       0.26460540653860526     
  0.16614291148415999        8.2465947534082318E-002

           5 0
 s           3   1.0000000000000000     
   3.3702276975336001       0.27359110588908298     
  0.61389118221497996       0.26460540653860526     
  0.16614291148415999        8.2465947534082318E-002

[MO]
Sym=     1a
Ene=  -0.73675737540275255     
Spin= Alpha
Occup=     2.00000000
           1  0.26626326313473325     
           2  0.13858163217189040     
           3  -4.4284919770080618E-003
           4   7.7244522483785522E-002
           5  0.73203054758755248     
           6  -7.7999928476769329E-002
           7   4.8968506575239011E-002
           8  -6.3660958462669767E-002
           9  0.11627288435497680     
          10   7.4342216332463157E-002
          11  -4.9144462053770897E-002
          12  -6.8711661459271486E-003
          13   3.4607213110165007E-002
          14  0.13708805176060992     
Sym=     2a
Ene=  -0.71689182460763301     
Spin= Alpha
Occup=     2.00000000
           1  0.26767497652761213     
           2 -0.18469253059619303     
           3  0.15094331661265667     
           4   6.1159055639210369E-002
           5 -0.23991496824101985     
           6  -8.8349035501020842E-002
           7   2.2557210724354727E-002
           8   1.9934586059003265E-002
           9  0.67575836057149730     
          10  0.10752177530210880     
          11 -0.13252899404827048     
          12  -7.0088454983523535E-002
          13   4.8567174379034503E-002
          14  -6.6257242074815620E-002
Sym=     3a
Ene=  -0.65116825204313156     
Spin= Alpha
Occup=     2.00000000
           1  0.30047146120839874     
           2   9.7747273544085994E-002
           3 -0.18806402160612681     
           4   6.0252907742425463E-002
           5 -0.15197342938361799     
           6 -0.52412193557477471     
           7 -0.15429472382583678     
           8  -2.7986154472812826E-002
           9 -0.34782192579840410     
          10   8.9959945558875792E-002
          11 -0.14309217590738935     
          12   4.4986580387820531E-003
          13  0.17227408387375739     
          14 -0.27326123508574846     
Sym=     4a
Ene=  -0.59675580436637032     
Spin= Alpha
Occup=     2.00000000
           1 -0.25229254502602749     
           2  -4.1491510690730850E-002
           3 -0.19264013461503440     
           4  0.17302755466764411     
           5  0.32846821571003770     
           6  -8.2336228762104779E-002
           7 -0.43332847099901767     
           8  0.34519236554275690     
           9  0.36729741135041299     
          10 -0.29854406425774160     
          11  0.13715819855822403     
          12  0.24113636832649030     
          13   3.3760599658956042E-003
          14 -0.20861250166331655     
Sym=     5a
Ene=  -0.58218916372946028     
Spin= Alpha
Occup=     2.00000000
           1  -9.7022002338152225E-002
           2  0.35620958442449940     
           3  0.21653352617032406     
           4  0.16986329991264668     
           5 -0.10908621685574700     
           6 -0.35672023672159070     
           7  0.25418218946922350     
           8  -4.4444489968056928E-003
           9  0.16767722600201132     
          10  0.16516568071279558     
          11  0.35191778164604298     
          12  0.21294458415538481     
          13 -0.29929308423282247     
          14 -0.10323823527042178     
Sym=     6a
Ene=  -0.55826701018208591     
Spin= Alpha
Occup=     2.00000000
           1   5.9833802571375903E-002
           2  0.17014982891714078     
           3 -0.18525992212556622     
           4 -0.27728751350615599     
           5 -0.13873983365427481     
           6  -7.0371650751061512E-002
           7 -0.10069417481150118     
           8 -0.59428811648044533     
           9  0.33445276039748900     
          10 -0.36504180955176607     
          11  0.32721302525160756     
          12  -3.3440835665684239E-002
          13   9.8393628555901877E-002
          14   4.3982696634645262E-002
Sym=     7a
Ene=  -0.52163985927916257     
Spin= Alpha
Occup=     2.00000000
           1  -5.2963862063384569E-002
           2  -3.5135683049889781E-002
           3 -0.21374419388180141     
           4  0.25297940436254179     
           5 -0.21938804935249070     
           6   1.7564959936575669E-002
           7  0.43690139305166359     
           8 -0.12175654802517386     
           9   4.2204031138942270E-002
          10 -0.22585984563241190     
          11 -0.29239412022375055     
          12  0.60099888925488421     
          13  0.15249082494467364     
          14  0.18381840968347624     
Sym=     8a
Ene=  -0.47988513359454382     
Spin= Alpha
Occup=     2.00000000
           1  -2.6305695514417572E-002
           2  -2.5741637919716145E-002
           3   7.3914802751055442E-002
           4  0.10114767965046331     
           5  -1.8323208842155790E-002
           6  0.23050082996478252     
           7 -0.54453580865351470     
           8 -0.45586461492383840     
           9  -3.0227200138140772E-002
          10  0.49376646847114236     
          11  -8.8800162596654492E-002
          12  0.42669158009370878     
          13  -8.4135881512324887E-002
          14   3.4942688442268126E-003
Sym=     9a
Ene=  -0.43342205807101558     
Spin= Alpha
Occup=     1.00000000
           1  -8.5192092133164726E-002
           2   7.7876021475331944E-002
           3  0.20552376207794856     
           4  0.10176666551504773     
           5  0.10332335824053560     
           6 -0.15759694990135031     
           7 -0.14320480477405512     
           8 -0.27878624228854765     
           9  -4.4979079929531153E-003
          10 -0.43615364173683902     
          11 -0.62690975536903848     
          12 -0.18268580558654149     
          13 -0.46652588423758062     
          14  -8.4748208206307227E-002
Sym=    10a
Ene=  -0.30347667964665181     
Spin= Alpha
Occup=     1.00000000
           1 -0.36224829839369271     
           2 -0.16489232596943598     
           3 -0.19540823254843384     
           4  0.76510975534196812     
           5  -6.1908071354307682E-002
           6  -5.4072314963828215E-002
           7   2.7748342531164011E-002
           8 -0.33364332558838405     
           9  -1.1477194149697452E-002
          10  0.10218766518201694     
          11  0.19001370926749800     
          12 -0.53225065370945801     
          13  0.13676425795586594     
          14  0.12230263612139930     
Sym=    11a
Ene=    5.2859979196370449E-002
Spin= Alpha
Occup=     0.00000000
           1 -0.54078011670476078     
           2 -0.44960348603345718     
           3  -8.3951960966498901E-002
           4 -0.34981349674248396     
           5  0.76163344425618329     
           6 -0.12912961926385280     
           7  0.51314933616082892     
           8 -0.39115623117536963     
           9  0.10696422212954154     
          10  0.27492834658088738     
          11  -8.6658483457127386E-002
          12   5.4489252512544356E-002
          13   6.3069933102542899E-002
          14 -0.75065460881870349     
Sym=    12a
Ene=    9.5768191907626338E-002
Spin= Alpha
Occup=     0.00000000
           1  0.28506686950176985     
           2 -0.48421100576574261     
           3 -0.83895180250103263     
           4 -0.17079078808637935     
           5  -7.6119564121333028E-002
           6 -0.28868380545421685     
           7   2.1036074614104772E-002
           8   7.2439354970979919E-002
           9  0.14091611638213511     
          10  0.24724878176862614     
          11   4.4546887112927570E-002
          12  -2.1151052590896460E-002
          13 -0.97824536507857096     
          14  0.39163695716329266     
Sym=    13a
Ene=   0.17854797725148672     
Spin= Alpha
Occup=     0.00000000
           1 -0.77172973508640019     
           2 -0.13880308654607199     
           3  0.26570616197262492     
           4 -0.36859747592643083     
           5 -0.12178287533415065     
           6 -0.81380496664486246     
           7 -0.24728791859803900     
           8   8.8335868258792624E-002
           9  0.11638573374605986     
          10  0.17992965916163198     
          11 -0.19344893817806369     
          12   3.3110468155110352E-002
          13  0.40458580236957331     
          14  0.80308148704268945     
Sym=    14a
Ene=   0.37129628665135284     
Spin= Alpha
Occup=     0.00000000
           1  0.44636610832532020     
           2 -0.91180692948608155     
           3  0.62065622611983562     
           4  0.17427411675826862     
           5  0.21480855562687112     
           6 -0.30948987044610854     
           7  -6.7595990178912643E-002
           8 -0.18886247803590822     
           9 -0.64116241346120995     
          10 -0.47307090025648613     
          11  0.56136311490084001     
          12  0.31387888798446251     
          13  -9.9916699731016634E-002
          14  0.12289360756482465     
