$hessian                                                                        
        0.4816795370  -0.1107645913  -0.0383221735  -0.1893070903   0.0129599468
       -0.0632164459  -0.2089719119   0.1881831862   0.0985078572  -0.0483124147
       -0.0914529771   0.0154804215  -0.0350881201   0.0010744354  -0.0124496593
       -0.1107645913   0.3447352404   0.0969853847   0.0274016559  -0.0449520450
        0.0082274391   0.1627661320  -0.1964837451  -0.1078549888  -0.0673700376
       -0.1149546685   0.0100228330  -0.0120331590   0.0116552182  -0.0073806681
       -0.0383221735   0.0969853847   0.2068891334  -0.0945032040   0.0327969699
       -0.0943972902   0.1264342604  -0.1336290120  -0.1054753397   0.0036035178
        0.0099908446  -0.0193817358   0.0027875993  -0.0061441872   0.0123652324
       -0.1893070903   0.0274016559  -0.0945032040   0.4758657401   0.1079325364
       -0.0087896726  -0.0626855440   0.0397370486   0.0065883737  -0.0337406976
       -0.0056540205  -0.0099179729  -0.1901324082  -0.1694172204   0.1066224759
        0.0129599468  -0.0449520450   0.0327969699   0.1079325364   0.2374681653
       -0.1459217861   0.0465781384  -0.0168045670   0.0023227477  -0.0132518511
       -0.0008915834  -0.0105678008  -0.1542187705  -0.1748199699   0.1213698693
       -0.0632164459   0.0082274391  -0.0943972902  -0.0087896726  -0.1459217861
        0.1545255797  -0.0147308908   0.0203643838   0.0260430763  -0.0068732921
        0.0005889447   0.0015170638   0.0936103015   0.1167410184  -0.0876884296
       -0.2089719119   0.1627661320   0.1264342604  -0.0626855440   0.0465781384
       -0.0147308908   0.2661486908  -0.2355133178  -0.1050458496   0.0043723066
        0.0238736689  -0.0100667507   0.0011364585   0.0022953785   0.0034092306
        0.1881831862  -0.1964837451  -0.1336290120   0.0397370486  -0.0168045670
        0.0203643838  -0.2355133178   0.2725949790   0.1231373258   0.0077571175
       -0.0559612643  -0.0066781606  -0.0001640344  -0.0033454027  -0.0031945371
        0.0985078572  -0.1078549888  -0.1054753397   0.0065883737   0.0023227477
        0.0260430763  -0.1050458496   0.1231373258   0.0774202646   0.0005306083
       -0.0161695086   0.0052433288  -0.0005809896  -0.0014355761  -0.0032313300
       -0.0483124147  -0.0673700376   0.0036035178  -0.0337406976  -0.0132518511
       -0.0068732921   0.0043723066   0.0077571175   0.0005306083   0.0830256005
        0.0749228793   0.0044180318  -0.0053447948  -0.0020581080  -0.0016788658
       -0.0914529771  -0.1149546685   0.0099908446  -0.0056540205  -0.0008915834
        0.0005889447   0.0238736689  -0.0559612643  -0.0161695086   0.0749228793
        0.1720476035   0.0066260752  -0.0016895506  -0.0002400873  -0.0010363559
        0.0154804215   0.0100228330  -0.0193817358  -0.0099179729  -0.0105678008
        0.0015170638  -0.0100667507  -0.0066781606   0.0052433288   0.0044180318
        0.0066260752   0.0125132462   0.0000862703   0.0005970532   0.0001080970
       -0.0350881201  -0.0120331590   0.0027875993  -0.1901324082  -0.1542187705
        0.0936103015   0.0011364585  -0.0001640344  -0.0005809896  -0.0053447948
       -0.0016895506   0.0000862703   0.2294288645   0.1681055145  -0.0959031814
        0.0010744354   0.0116552182  -0.0061441872  -0.1694172204  -0.1748199699
        0.1167410184   0.0022953785  -0.0033454027  -0.0014355761  -0.0020581080
       -0.0002400873   0.0005970532   0.1681055145   0.1667502417  -0.1097583082
       -0.0124496593  -0.0073806681   0.0123652324   0.1066224759   0.1213698693
       -0.0876884296   0.0034092306  -0.0031945371  -0.0032313300  -0.0016788658
       -0.0010363559   0.0001080970  -0.0959031814  -0.1097583082   0.0784464302
