 Entering Gaussian System
 *********************************************
 Gaussian 98:
 frequency output generated by the xtb code
 *********************************************
                         Standard orientation:
 --------------------------------------------------------------------
  Center     Atomic     Atomic              Coordinates (Angstroms)
  Number     Number      Type              X           Y           Z
 --------------------------------------------------------------------
    1          6             0       -2.467405   -0.149782   -0.025828
    2          7             0       -1.274331   -0.082245   -0.011936
    3          6             0        1.239703    0.079547    0.011861
    4          6             0       -0.026306   -0.005100    0.000053
    5          6             0        2.528339    0.157580    0.025850
 --------------------------------------------------------------------
     1 basis functions        1 primitive gaussians
     1 alpha electrons        1 beta electrons

 Harmonic frequencies (cm**-1), IR intensities (KM/Mole),
 Raman scattering activities (A**4/amu), Raman depolarization ratios,
 reduced masses (AMU), force constants (mDyne/A) and normal coordinates:
                      1                      2                      3
                        a                      a                      a 
 Frequencies --   117.8861               185.0658               262.9095
 Red. masses --    12.0836                12.0857                12.7853
 Frc consts  --     0.0000                 0.0000                 0.0000
 IR Inten    --     0.4948                 0.4122                 0.0496
 Raman Activ --     0.0000                 0.0000                 0.0000
 Depolar     --     0.0000                 0.0000                 0.0000
 Atom AN      X      Y      Z        X      Y      Z        X      Y      Z
   1   6    -0.03   0.51  -0.06    -0.00  -0.01   0.21     0.02  -0.36   0.11
   2   7     0.01  -0.19   0.02    -0.01   0.09   0.17    -0.04   0.60  -0.18
   3   6     0.02  -0.30   0.03     0.01  -0.13  -0.62     0.04  -0.60   0.18
   4   6     0.03  -0.55   0.07     0.01  -0.04  -0.38    -0.00   0.05  -0.01
   5   6    -0.03   0.54  -0.06    -0.01   0.10   0.60    -0.01   0.27  -0.08
                      4                      5                      6
                        a                      a                      a 
 Frequencies --   392.0674               400.2626               829.5229
 Red. masses --    12.7565                12.4834                12.4075
 Frc consts  --     0.0000                 0.0000                 0.0000
 IR Inten    --     0.1108                 0.1420                 0.0867
 Raman Activ --     0.0000                 0.0000                 0.0000
 Depolar     --     0.0000                 0.0000                 0.0000
 Atom AN      X      Y      Z        X      Y      Z        X      Y      Z
   1   6     0.00  -0.03  -0.27     0.01  -0.16   0.00     0.53   0.03   0.01
   2   7    -0.01   0.03   0.61    -0.03   0.49  -0.00     0.44   0.03   0.00
   3   6    -0.00  -0.03   0.37    -0.03   0.47   0.00    -0.37  -0.03  -0.00
   4   6     0.00   0.01  -0.64     0.05  -0.70  -0.01    -0.02   0.00  -0.00
   5   6     0.00   0.01  -0.12     0.00  -0.13   0.00    -0.62  -0.04  -0.01
                      7                      8                      9
                        a                      a                      a 
 Frequencies --  1561.9262              1953.8906              1978.7176
 Red. masses --    12.0183                12.9750                12.1876
 Frc consts  --     0.0000                 0.0000                 0.0000
 IR Inten    --     0.1399                 0.5313                 0.8284
 Raman Activ --     0.0000                 0.0000                 0.0000
 Depolar     --     0.0000                 0.0000                 0.0000
 Atom AN      X      Y      Z        X      Y      Z        X      Y      Z
   1   6     0.43   0.02   0.00    -0.43  -0.02  -0.01    -0.39  -0.02  -0.00
   2   7    -0.06  -0.00  -0.00     0.69   0.04   0.01     0.30   0.02   0.00
   3   6    -0.42  -0.02  -0.00     0.19   0.01   0.00    -0.68  -0.04  -0.01
   4   6    -0.54  -0.03  -0.01    -0.54  -0.03  -0.01     0.47   0.03   0.00
   5   6     0.59   0.04   0.01     0.03   0.00   0.00     0.27   0.02   0.00
