 Entering Gaussian System
 *********************************************
 Gaussian 98:
 frequency output generated by the xtb code
 *********************************************
                         Standard orientation:
 --------------------------------------------------------------------
  Center     Atomic     Atomic              Coordinates (Angstroms)
  Number     Number      Type              X           Y           Z
 --------------------------------------------------------------------
    1          6             0        0.555646    0.015857    0.006670
    2          6             0       -0.687985   -0.022075   -0.010050
    3          6             0        1.872476    0.051170    0.030633
    4          1             0       -1.740139   -0.044952   -0.027253
 --------------------------------------------------------------------
     1 basis functions        1 primitive gaussians
     1 alpha electrons        1 beta electrons

 Harmonic frequencies (cm**-1), IR intensities (KM/Mole),
 Raman scattering activities (A**4/amu), Raman depolarization ratios,
 reduced masses (AMU), force constants (mDyne/A) and normal coordinates:
                      1                      2                      3
                        a                      a                      a 
 Frequencies --   279.9903               280.0203               519.5135
 Red. masses --    10.8671                10.8675                 3.7096
 Frc consts  --     0.0000                 0.0000                 0.0000
 IR Inten    --     0.2475                 0.2458                 0.1542
 Raman Activ --     0.0000                 0.0000                 0.0000
 Depolar     --     0.0000                 0.0000                 0.0000
 Atom AN      X      Y      Z        X      Y      Z        X      Y      Z
   1   6    -0.02   0.44   0.67     0.01  -0.67   0.44    -0.00   0.18  -0.07
   2   6     0.01  -0.16  -0.24    -0.01   0.24  -0.16     0.01  -0.42   0.17
   3   6     0.01  -0.23  -0.35    -0.00   0.35  -0.23    -0.00   0.01  -0.00
   4   1     0.01  -0.18  -0.27    -0.00   0.27  -0.18    -0.01   0.80  -0.33
                      4                      5                      6
                        a                      a                      a 
 Frequencies --   519.5892              1262.3300              1906.9844
 Red. masses --     3.7101                11.6373                11.4675
 Frc consts  --     0.0000                 0.0000                 0.0000
 IR Inten    --     0.1606                 0.1501                 0.6637
 Raman Activ --     0.0000                 0.0000                 0.0000
 Depolar     --     0.0000                 0.0000                 0.0000
 Atom AN      X      Y      Z        X      Y      Z        X      Y      Z
   1   6    -0.00   0.07   0.18     0.18   0.00   0.01    -0.80  -0.02  -0.01
   2   6     0.01  -0.17  -0.42     0.55   0.02   0.01     0.51   0.02   0.01
   3   6    -0.00   0.00   0.01    -0.79  -0.02  -0.01     0.22   0.01   0.00
   4   1    -0.02   0.33   0.80     0.18   0.00   0.00     0.22   0.01   0.01
                      7
                        a 
 Frequencies --  3340.7718
 Red. masses --     2.2240
 Frc consts  --     0.0000
 IR Inten    --     0.0173
 Raman Activ --     0.0000
 Depolar     --     0.0000
 Atom AN      X      Y      Z        X      Y      Z        X      Y      Z
   1   6     0.05   0.00   0.00
   2   6    -0.33  -0.01  -0.01
   3   6     0.00   0.00   0.00
   4   1     0.94   0.02   0.02
