4
 energy: -6.653013595158 gnorm: 0.000699324186 xtb: 6.2.2 (9d81278992624c895f80dd42a50cac0aa55982e2)
C         0.55564642436183    0.01585743092806    0.00667032348055
C        -0.68798491568125   -0.02207513487841   -0.01004994939587
C         1.87247617711423    0.05116997482162    0.03063344173629
H        -1.74013868579132   -0.04495227086429   -0.02725281581747
