$hessian                                                                        
        1.0943785668   0.0311505757   0.0164139495  -0.6889956412  -0.0198842402
       -0.0090889605  -0.4008652319  -0.0106227272  -0.0071749789  -0.0044333331
       -0.0005812433  -0.0007366271
        0.0311505757   0.0282925604   0.0004737770  -0.0206678399  -0.0195170278
       -0.0002799927  -0.0103428560  -0.0120996527  -0.0001908127  -0.0001378595
        0.0033383044  -0.0000182530
        0.0164139495   0.0004737770   0.0276330515  -0.0085780605  -0.0002570081
       -0.0190251025  -0.0077019259  -0.0002088462  -0.0119572616  -0.0001325416
       -0.0000067071   0.0033405662
       -0.6889956412  -0.0206678399  -0.0085780605   1.1986990351   0.0320054746
        0.0169841359  -0.1309007008  -0.0036336512  -0.0023701428  -0.3788362687
       -0.0077017340  -0.0058581751
       -0.0198842402  -0.0195170278  -0.0002570081   0.0320054746   0.0292050659
        0.0004614039  -0.0040061087   0.0035943818  -0.0000695123  -0.0081158718
       -0.0132892449  -0.0001310692
       -0.0090889605  -0.0002799927  -0.0190251025   0.0169841359   0.0004614039
        0.0285790892  -0.0019687446  -0.0000542176   0.0036701184  -0.0059269388
       -0.0001271768  -0.0132198355
       -0.4008652319  -0.0103428560  -0.0077019259  -0.1309007008  -0.0040061087
       -0.0019687446   0.5357280435   0.0144015778   0.0096391199  -0.0040171410
       -0.0001193441   0.0004672711
       -0.0106227272  -0.0120996527  -0.0002088462  -0.0036336512   0.0035943818
       -0.0000542176   0.0144015778   0.0068132112   0.0002617989  -0.0001464495
        0.0016852917   0.0000127357
       -0.0071749789  -0.0001908127  -0.0119572616  -0.0023701428  -0.0000695123
        0.0036701184   0.0096391199   0.0002617989   0.0065981858  -0.0000949735
       -0.0000027279   0.0016964852
       -0.0044333331  -0.0001378595  -0.0001325416  -0.3788362687  -0.0081158718
       -0.0059269388  -0.0040171410  -0.0001464495  -0.0000949735   0.3872909883
        0.0084022975   0.0061275930
       -0.0005812433   0.0033383044  -0.0000067071  -0.0077017340  -0.0132892449
       -0.0001271768  -0.0001193441   0.0016852917  -0.0000027279   0.0084022975
        0.0082650574   0.0001366083
       -0.0007366271  -0.0000182530   0.0033405662  -0.0058581751  -0.0001310692
       -0.0132198355   0.0004672711   0.0000127357   0.0016964852   0.0061275930
        0.0001366083   0.0081797334
