[Molden Format]
[Title]
[Atoms] AU
C      1     6  0.35431006854376E+01 -0.24040187934013E-01  0.16567588515516E+00
C      2     6  0.11418549266709E+01  0.16934673209594E+00 -0.42417509557443E+00
C      3     6 -0.12202844939719E+01 -0.13603515675937E+00  0.31369151747401E+00
N      4     7 -0.34646730078559E+01 -0.92713873893811E-02 -0.55190417322179E-01
[GTO]
           1 0
 s           4   1.0000000000000000     
   51.049363095579913      -0.16312063210127389     
   8.7911227406887544      -0.19911024581000730     
  0.70640422258929825       0.31882047753655751     
  0.26922813413411617       0.12706504184240380     
 p           4   1.0000000000000000     
   5.8263656140800002       0.73716451545209605     
   1.5106896018720002       0.68216371614850257     
  0.53256483288000001       0.35783053929253711     
  0.21202323690600003        5.3983030275847881E-002

           2 0
 s           4   1.0000000000000000     
   51.049363095579913      -0.16312063210127389     
   8.7911227406887544      -0.19911024581000730     
  0.70640422258929825       0.31882047753655751     
  0.26922813413411617       0.12706504184240380     
 p           4   1.0000000000000000     
   5.8263656140800002       0.73716451545209605     
   1.5106896018720002       0.68216371614850257     
  0.53256483288000001       0.35783053929253711     
  0.21202323690600003        5.3983030275847881E-002

           3 0
 s           4   1.0000000000000000     
   51.049363095579913      -0.16312063210127389     
   8.7911227406887544      -0.19911024581000730     
  0.70640422258929825       0.31882047753655751     
  0.26922813413411617       0.12706504184240380     
 p           4   1.0000000000000000     
   5.8263656140800002       0.73716451545209605     
   1.5106896018720002       0.68216371614850257     
  0.53256483288000001       0.35783053929253711     
  0.21202323690600003        5.3983030275847881E-002

           4 0
 s           4   1.0000000000000000     
   63.594024466941008      -0.19234388414721629     
   10.951417231523665      -0.23478107924953728     
  0.87999310257376984       0.37593753901700888     
  0.33538715296521110       0.14982889271862770     
 p           4   1.0000000000000000     
   7.2965040481495080       0.97658666315667420     
   1.8918745450712575       0.90372226730345739     
  0.66694432110824120       0.47404958461536373     
  0.26552202674130870        7.1516067715011844E-002

[MO]
Sym=     1a
Ene=  -0.69406893872186426     
Spin= Alpha
Occup=     2.00000000
           1 -0.19898016726074852     
           2  0.11113357615240503     
           3  -3.6977094960688097E-003
           4   1.3242143550159475E-002
           5 -0.41551241755655915     
           6   7.3602486542993353E-002
           7   2.2702463808114044E-002
           8  -5.8541433342164891E-002
           9 -0.49051462001016977     
          10  -3.2281122920733638E-003
          11  -2.6231427836292710E-002
          12   6.6920111114322417E-002
          13 -0.30455492123994293     
          14 -0.17073490702733560     
          15   2.2456704181603249E-003
          16  -9.2052859106779190E-003
Sym=     2a
Ene=  -0.68119662536858305     
Spin= Alpha
Occup=     2.00000000
           1 -0.37254679339259955     
           2  0.14277221842028712     
           3  -8.5272954529670552E-003
           4   2.7277914772182124E-002
           5 -0.36635614014619794     
           6 -0.16570074197884332     
           7   1.8051338883211906E-002
           8  -5.2584683328270557E-002
           9  0.18303247278248419     
          10 -0.27136182357961569     
          11   4.8529120240324870E-003
          12  -1.8402934109453963E-002
          13  0.38238106648325759     
          14  0.14154161154707717     
          15  -8.9768790706884274E-003
          16   2.5527266428489306E-002
Sym=     3a
Ene=  -0.62899962500889950     
Spin= Alpha
Occup=     2.00000000
           1  0.44197789797839232     
           2  -3.8884689623896851E-002
           3   1.3503468711206138E-002
           4  -3.6971304087275843E-002
           5 -0.10468773522723884     
           6  0.41149174303307334     
           7   1.1492664130849478E-002
           8  -1.6745136064628227E-002
           9 -0.19060832771088798     
          10 -0.34193078584818265     
          11  -2.4442200048391961E-002
          12   5.7535041882066880E-002
          13  0.35914044039974063     
          14   9.3369301944081079E-003
          15  -1.8657659474654521E-002
          16   4.8384931111718994E-002
Sym=     4a
Ene=  -0.54721719416082315     
Spin= Alpha
Occup=     2.00000000
           1   3.6808983910064605E-004
           2   2.2540369546972211E-003
           3 -0.17905375360756506     
           4  -6.8467096566327407E-002
           5   7.5951925484943068E-004
           6   4.5032732968373372E-003
           7 -0.37225376767317037     
           8 -0.14223995314302923     
           9   9.1424174536736439E-004
          10   3.8382941819397939E-003
          11 -0.50262121944976135     
          12 -0.19199784112279089     
          13   2.5437188428406766E-004
          14   2.9301604039844420E-003
          15 -0.46744575259766247     
          16 -0.17851355061754240     
Sym=     5a
Ene=  -0.54123615766394750     
Spin= Alpha
Occup=     2.00000000
           1  -6.3700034677731679E-002
           2  -3.8599709997005158E-003
           3   7.3512640124619069E-002
           4 -0.19262135324913701     
           5  0.16561540717855316     
           6  -2.5747747375754540E-003
           7  0.14725402767773491     
           8 -0.38545820979374018     
           9 -0.20550198910476841     
          10  -2.8439218468612224E-002
          11  0.18345822545583773     
          12 -0.48092038893544142     
          13  0.13161191278491438     
          14  -2.1128341536381330E-002
          15  0.15373576954458343     
          16 -0.40296563441988514     
Sym=     6a
Ene=  -0.49027744118893318     
Spin= Alpha
Occup=     1.99999899
           1  0.39956037543922562     
           2  0.32013545572276092     
           3  -6.8729812587130252E-003
           4   3.5019477998929995E-002
           5 -0.20184361873991713     
           6  -2.0495108627034448E-003
           7   1.9384337140197005E-002
           8  -4.3537352020612305E-002
           9  0.16558453926295888     
          10 -0.12137498306872345     
          11   4.3217681824918891E-002
          12 -0.11863171329333268     
          13 -0.54591348875940060     
          14  0.56485985179685427     
          15   4.4461069221048324E-002
          16 -0.11264202331234587     
Sym=     7a
Ene=  -0.47961230272966154     
Spin= Alpha
Occup=     1.92954738
           1 -0.30821886157732514     
           2 -0.19979067961738922     
           3  0.15416238853195399     
           4 -0.41393475032460259     
           5  0.18202021433403176     
           6  0.13179588929296757     
           7  0.14309929570127292     
           8 -0.37362244211947554     
           9   5.6985425378460179E-002
          10 -0.13610651947716326     
          11  -6.1909485755511494E-002
          12  0.16060905094903302     
          13 -0.27063247592588613     
          14  0.22027055573943374     
          15 -0.15436052072409884     
          16  0.41138095818613291     
Sym=     8a
Ene=  -0.47471055866903716     
Spin= Alpha
Occup=     1.07045363
           1   2.2020993419682167E-003
           2   8.4898968630037347E-003
           3 -0.50277543886084519     
           4 -0.19050942126509565     
           5  -7.6406653639311925E-004
           6   5.7088194306669730E-003
           7 -0.49047067748606088     
           8 -0.18641945854095410     
           9   3.3267492293212941E-004
          10  -1.4767835150057810E-003
          11  0.13609678346619758     
          12   5.0973933943656194E-002
          13  -1.5103105133502887E-003
          14  -6.6320915608364373E-004
          15  0.50740897897063819     
          16  0.19202738494140104     
Sym=     9a
Ene=  -0.44359043925829017     
Spin= Alpha
Occup=     1.00000000
           1 -0.39555460930398545     
           2 -0.57621162392047454     
           3  -8.3883097843500801E-002
           4  0.19956503905985337     
           5  -3.9939829045378163E-002
           6  0.23697163294541587     
           7 -0.10346152260458884     
           8  0.27901826144896275     
           9  -7.2045650364945202E-002
          10 -0.16997436041028666     
          11   2.5374543884443674E-002
          12  -6.9489580082639418E-002
          13 -0.17225966847886443     
          14  0.34369140673350668     
          15  0.11582144909744668     
          16 -0.29948923140121064     
Sym=    10a
Ene=  -0.33882067192169329     
Spin= Alpha
Occup=     0.98672651
           1   4.4273471972938398E-002
           2 -0.11218456880800767     
           3 -0.25447612308419781     
           4  0.65807931199278158     
           5  0.17080734439197912     
           6  -8.3807800983919004E-002
           7  0.10802245631697757     
           8 -0.28376435341725248     
           9 -0.20523081818145794     
          10 -0.11455303628739692     
          11  0.14433579739752772     
          12 -0.37543783090202953     
          13  -4.9137462705567729E-002
          14   1.3232654939168370E-002
          15 -0.19946536872817397     
          16  0.51697896859457193     
Sym=    11a
Ene=  -0.33063391877476656     
Spin= Alpha
Occup=     0.01327349
           1   2.3412828836059075E-004
           2  -9.7683427363220911E-003
           3  0.66696979751160801     
           4  0.25715872364536102     
           5   6.6810106102908559E-004
           6   4.2474536337655739E-003
           7 -0.33773686844002410     
           8 -0.13016951367244345     
           9  -9.4511156749701737E-005
          10   2.8512956062745152E-003
          11 -0.44417279059093295     
          12 -0.17054955846005473     
          13   1.4348933114634516E-004
          14  -3.1027446536230235E-003
          15  0.52191098629796973     
          16  0.20054597172342273     
Sym=    12a
Ene=  -0.20022558347413980     
Spin= Alpha
Occup=     0.00000000
           1  -1.0738013658772331E-002
           2   1.7380657211266456E-003
           3 -0.17147139144954374     
           4  0.44810466413544819     
           5  0.18268892250629248     
           6   4.4016856986028856E-002
           7  0.23975022397185072     
           8 -0.62519147205539416     
           9  0.17143647995493669     
          10  -1.4028901772656498E-002
          11 -0.25310838374372219     
          12  0.66384296476460192     
          13  -5.9705413823775639E-003
          14  -1.5169449619318605E-002
          15  0.17090952036060597     
          16 -0.44871820933523676     
Sym=    13a
Ene=  -0.16948517875076333     
Spin= Alpha
Occup=     0.00000000
           1  -4.1963228416938808E-004
           2  -3.7432839015649508E-003
           3  0.43511051046364352     
           4  0.16549486294321289     
           5   2.3364499668108666E-003
           6   7.5211632728282574E-003
           7 -0.68922098081239103     
           8 -0.26202022757792393     
           9  -2.5678617809203773E-003
          10  -6.0062251489033953E-003
          11  0.71101802547744242     
          12  0.27270663820064517     
          13   3.9745874688600254E-004
          14   4.6153869746337790E-003
          15 -0.42211710326007440     
          16 -0.16186449109442289     
Sym=    14a
Ene=   0.18929754196877577     
Spin= Alpha
Occup=     0.00000000
           1 -0.33448654240782255     
           2  0.57401800888902166     
           3  -2.0014614942710758E-003
           4   2.1702295639847685E-002
           5  0.91636454256566935     
           6 -0.11980434204850848     
           7 -0.11771807423968804     
           8  0.31442324166125080     
           9 -0.88872179166747334     
          10 -0.13482979681811202     
          11 -0.10364558568201344     
          12  0.25789290252797864     
          13  0.30341472074270837     
          14  0.51761486051516625     
          15   1.2238214765796226E-002
          16  -1.9463357931767292E-002
Sym=    15a
Ene=   0.64904990637566828     
Spin= Alpha
Occup=     0.00000000
           1  0.65617470762432584     
           2 -0.73442519950659468     
           3   6.2707793194756167E-002
           4 -0.19062595838217758     
           5 -0.53049134325621561     
           6 -0.92406028079790814     
           7   7.1110301101316997E-002
           8 -0.21518885323072237     
           9 -0.72627904208542071     
          10  0.40988921972131598     
          11 -0.10631204365069309     
          12  0.28468216863792922     
          13  0.48146457988076147     
          14  0.56631370221366506     
          15  -1.1778907098351398E-002
          16   4.0120473519232584E-002
Sym=    16a
Ene=   0.96155380905915455     
Spin= Alpha
Occup=     0.00000000
           1 -0.35024282068182450     
           2  0.29538941911787975     
           3  -5.9761996995499334E-002
           4  0.16756351357304772     
           5 -0.39618226216416036     
           6  0.97421761421676001     
           7   9.2510009818119437E-002
           8 -0.21247380971111707     
           9   6.6996768676942958E-002
          10   1.3347193526967189     
          11   6.2312298259449478E-002
          12 -0.13548435626786773     
          13  0.68092928634934413     
          14  0.62459703033234504     
          15  -6.9059953221868586E-002
          16  0.18974038624393452     
