 Entering Gaussian System
 *********************************************
 Gaussian 98:
 frequency output generated by the xtb code
 *********************************************
                         Standard orientation:
 --------------------------------------------------------------------
  Center     Atomic     Atomic              Coordinates (Angstroms)
  Number     Number      Type              X           Y           Z
 --------------------------------------------------------------------
    1          6             0        1.874928   -0.012722    0.087672
    2          6             0        0.604244    0.089614   -0.224464
    3          6             0       -0.645747   -0.071987    0.165998
    4          7             0       -1.833426   -0.004906   -0.029206
 --------------------------------------------------------------------
     1 basis functions        1 primitive gaussians
     1 alpha electrons        1 beta electrons

 Harmonic frequencies (cm**-1), IR intensities (KM/Mole),
 Raman scattering activities (A**4/amu), Raman depolarization ratios,
 reduced masses (AMU), force constants (mDyne/A) and normal coordinates:
                      1                      2                      3
                        a                      a                      a 
 Frequencies --    82.4211               240.4388               369.0097
 Red. masses --    12.5400                12.4776                12.2743
 Frc consts  --     0.0000                 0.0000                 0.0000
 IR Inten    --     0.4805                 0.2858                 0.3570
 Raman Activ --     0.0000                 0.0000                 0.0000
 Depolar     --     0.0000                 0.0000                 0.0000
 Atom AN      X      Y      Z        X      Y      Z        X      Y      Z
   1   6     0.01  -0.42  -0.16    -0.10  -0.17   0.46    -0.31  -0.07   0.18
   2   6    -0.00   0.35   0.13     0.08   0.17  -0.47    -0.14   0.21  -0.54
   3   6    -0.01   0.59   0.22     0.07   0.19  -0.47     0.13  -0.21   0.56
   4   7     0.00  -0.48  -0.18    -0.04  -0.17   0.45     0.30   0.07  -0.19
                      4                      5                      6
                        a                      a                      a 
 Frequencies --  1002.5147              1462.2416              1887.6247
 Red. masses --    12.4319                12.3835                12.4910
 Frc consts  --     0.0000                 0.0000                 0.0000
 IR Inten    --     0.5329                 1.4198                 0.6199
 Raman Activ --     0.0000                 0.0000                 0.0000
 Depolar     --     0.0000                 0.0000                 0.0000
 Atom AN      X      Y      Z        X      Y      Z        X      Y      Z
   1   6    -0.65   0.04  -0.12     0.46  -0.03   0.09    -0.14   0.02  -0.05
   2   6    -0.18  -0.12   0.32    -0.74  -0.01  -0.01     0.39   0.01  -0.01
   3   6     0.34   0.11  -0.27    -0.18   0.05  -0.13    -0.77   0.00  -0.03
   4   7     0.45  -0.02   0.06     0.43  -0.01   0.04     0.48  -0.03   0.08
