5
 energy: -11.076437361232 gnorm: 0.106450045737 xtb: 6.2.2 (9d81278992624c895f80dd42a50cac0aa55982e2)
C        -0.00638700000000   -0.06495100000000    0.00751800000000
O         1.19981300000000    0.60928300000000   -0.17494200000000
O        -1.05610300000000    0.85205400000000    0.00579600000000
H         0.01350700000000   -0.60244800000000    0.97781300000000
H        -0.15083000000000   -0.79393700000000   -0.81618500000000
5
 energy: -11.086245429965 gnorm: 0.055565912847 xtb: 6.2.2 (9d81278992624c895f80dd42a50cac0aa55982e2)
C        -0.00538903616702   -0.05480250546543    0.00634330249510
O         1.14308470487555    0.62110169972140   -0.17100685767630
O        -0.99826253089522    0.85154321189885    0.00055209670674
H         0.01133925613434   -0.61447274102112    0.96690725424905
H        -0.15077239394765   -0.80336866513370   -0.80279579577459
5
 energy: -11.089231174177 gnorm: 0.020035251371 xtb: 6.2.2 (9d81278992624c895f80dd42a50cac0aa55982e2)
C        -0.00307198114876   -0.03123999407948    0.00361597208780
O         1.08706050781073    0.64836078865248   -0.16878431518045
O        -0.93810659386948    0.86629980912647   -0.00653354166364
H         0.00589297749167   -0.64985085481811    0.94644631403811
H        -0.15177491028415   -0.83356874888137   -0.77474442928181
5
 energy: -11.089636731930 gnorm: 0.005114920471 xtb: 6.2.2 (9d81278992624c895f80dd42a50cac0aa55982e2)
C        -0.00264295275620   -0.02687755949667    0.00311102616194
O         1.10185379852981    0.64988400185218   -0.17030202682998
O        -0.95229336721141    0.87094137776113   -0.00572941046378
H         0.00504858369918   -0.65549504869831    0.94348999844779
H        -0.15196606226138   -0.83845177141833   -0.77056958731598
5
 energy: -11.089672176667 gnorm: 0.001951838819 xtb: 6.2.2 (9d81278992624c895f80dd42a50cac0aa55982e2)
C        -0.00216090995080   -0.02197748168199    0.00254383158162
O         1.10301052933249    0.65189503623646   -0.17062263675138
O        -0.95303477245410    0.87315701244133   -0.00589798802333
H         0.00433673794328   -0.66036506540256    0.94114532177499
H        -0.15215158487087   -0.84270850159325   -0.76716852858190
5
 energy: -11.089675299570 gnorm: 0.000563308547 xtb: 6.2.2 (9d81278992624c895f80dd42a50cac0aa55982e2)
C        -0.00191835774161   -0.01951011651497    0.00225824059303
O         1.10348254323561    0.65194195265584   -0.17067088066296
O        -0.95348703274489    0.87330237866919   -0.00587207242527
H         0.00421039041644   -0.66168928852347    0.94135174290312
H        -0.15228754316554   -0.84404392628658   -0.76706703040793
