$hessian                                                                        
        0.4383017322  -0.0006584016  -0.0179387355  -0.2256497149  -0.1276578296
        0.0324026308  -0.1683757158   0.1362637251  -0.0010190685  -0.0209907328
        0.0026909901  -0.0013829801  -0.0232855687  -0.0106384839  -0.0120618467
       -0.0006584016   0.4503670015  -0.0221695442  -0.1518218552  -0.1389793530
        0.0265171623   0.1604523315  -0.2016772879   0.0045890858   0.0023362598
       -0.0413061950   0.0561395965  -0.0103083345  -0.0684041656  -0.0650763003
       -0.0179387355  -0.0221695442   0.2461399942   0.0349833697   0.0243092702
       -0.0267514010  -0.0036044171   0.0067954030  -0.0213223177  -0.0009452595
        0.0602663311  -0.1137245770  -0.0124949576  -0.0692014601  -0.0843416985
       -0.2256497149  -0.1518218552   0.0349833697   0.3456726571   0.1772376945
       -0.0482633923  -0.0868102274   0.0212478854   0.0056388156  -0.0141772166
       -0.0212330236   0.0135652401  -0.0190354982  -0.0254307011  -0.0059240331
       -0.1276578296  -0.1389793530   0.0243092702   0.1772376945   0.1609795749
       -0.0307029848   0.0022413284   0.0231864610  -0.0027288094  -0.0234198566
       -0.0205413160   0.0121532983  -0.0284013367  -0.0246453670  -0.0030307744
        0.0324026308   0.0265171623  -0.0267514010  -0.0482633923  -0.0307029848
        0.0332636391   0.0076722182  -0.0044559590  -0.0006146143   0.0205407485
        0.0155664431  -0.0074431581  -0.0123522052  -0.0069246616   0.0015455343
       -0.1683757158   0.1604523315  -0.0036044171  -0.0868102274   0.0022413284
        0.0076722182   0.2699868362  -0.2034928361  -0.0006833894  -0.0094377951
        0.0208592361  -0.0099632535  -0.0053630980   0.0199399400   0.0065788418
        0.1362637251  -0.2016772879   0.0067954030   0.0212478854   0.0231864610
       -0.0044559590  -0.2034928361   0.2438056897  -0.0046481310   0.0223955651
       -0.0300293933   0.0109644132   0.0235856605  -0.0352854695  -0.0086557262
       -0.0010190685   0.0045890858  -0.0213223177   0.0056388156  -0.0027288094
       -0.0006146143  -0.0006833894  -0.0046481310   0.0260867732  -0.0160107977
        0.0160676899  -0.0026567607   0.0120744400  -0.0132798353  -0.0014930804
       -0.0209907328   0.0023362598  -0.0009452595  -0.0141772166  -0.0234198566
        0.0205407485  -0.0094377951   0.0223955651  -0.0160107977   0.0411782892
       -0.0013633275   0.0005223817   0.0034274553   0.0000513592  -0.0041070730
        0.0026909901  -0.0413061950   0.0602663311  -0.0212330236  -0.0205413160
        0.0155664431   0.0208592361  -0.0300293933   0.0160676899  -0.0013633275
        0.0893027918  -0.0816684385  -0.0009538751   0.0025741125  -0.0102320255
       -0.0013829801   0.0561395965  -0.1137245770   0.0135652401   0.0121532983
       -0.0074431581  -0.0099632535   0.0109644132  -0.0026567607   0.0005223817
       -0.0816684385   0.1575321525  -0.0027413881   0.0024111305  -0.0337076567
       -0.0232855687  -0.0103083345  -0.0124949576  -0.0190354982  -0.0284013367
       -0.0123522052  -0.0053630980   0.0235856605   0.0120744400   0.0034274553
       -0.0009538751  -0.0027413881   0.0442567096   0.0160778858   0.0155141110
       -0.0106384839  -0.0684041656  -0.0692014601  -0.0254307011  -0.0246453670
       -0.0069246616   0.0199399400  -0.0352854695  -0.0132798353   0.0000513592
        0.0025741125   0.0024111305   0.0160778858   0.1257608896   0.0869948265
       -0.0120618467  -0.0650763003  -0.0843416985  -0.0059240331  -0.0030307744
        0.0015455343   0.0065788418  -0.0086557262  -0.0014930804  -0.0041070730
       -0.0102320255  -0.0337076567   0.0155141110   0.0869948265   0.1179969012
