[Molden Format]
[Title]
[Atoms] AU
C      1     6 -0.36253485522427E-02 -0.36868747022208E-01  0.42675328507624E-02
O      2     8  0.20852849213788E+01  0.12319801439523E+01 -0.32253062120573E+00
O      3     8 -0.18018205858434E+01  0.16503115815175E+01 -0.11093198388367E-01
H      4     1  0.79561464327609E-02 -0.12504083558077E+01  0.17788989705729E+01
H      5     1 -0.28779513340598E+00 -0.15950127329140E+01 -0.14495426838329E+01
[GTO]
           1 0
 s           4   1.0000000000000000     
   51.049363095579913      -0.16312063210127389     
   8.7911227406887544      -0.19911024581000730     
  0.70640422258929825       0.31882047753655751     
  0.26922813413411617       0.12706504184240380     
 p           4   1.0000000000000000     
   5.8263656140800002       0.73716451545209605     
   1.5106896018720002       0.68216371614850257     
  0.53256483288000001       0.35783053929253711     
  0.21202323690600003        5.3983030275847881E-002

           2 0
 s           4   1.0000000000000000     
   69.137961906196551      -0.20478756370077797     
   11.906129132707308      -0.24997023136827334     
  0.95670827744340703       0.40025880240639616     
  0.36462520496073686       0.15952206667693555     
 p           4   1.0000000000000000     
   8.2124193257781641        1.1321556799186829     
   2.1293576997098116        1.0476840782254817     
  0.75066448202360914       0.54956508217158984     
  0.29885246543283073        8.2908486592766617E-002

           3 0
 s           4   1.0000000000000000     
   69.137961906196551      -0.20478756370077797     
   11.906129132707308      -0.24997023136827334     
  0.95670827744340703       0.40025880240639616     
  0.36462520496073686       0.15952206667693555     
 p           4   1.0000000000000000     
   8.2124193257781641        1.1321556799186829     
   2.1293576997098116        1.0476840782254817     
  0.75066448202360914       0.54956508217158984     
  0.29885246543283073        8.2908486592766617E-002

           4 0
 s           3   1.0000000000000000     
   3.3702276975336001       0.27359110588908298     
  0.61389118221497996       0.26460540653860526     
  0.16614291148415999        8.2465947534082318E-002

           5 0
 s           3   1.0000000000000000     
   3.3702276975336001       0.27359110588908298     
  0.61389118221497996       0.26460540653860526     
  0.16614291148415999        8.2465947534082318E-002

[MO]
Sym=     1a
Ene=  -0.76414453453234044     
Spin= Alpha
Occup=     2.00000000
           1  0.42136562776416686     
           2   1.6809575007954131E-002
           3  0.17092440536980333     
           4  -1.9784394750426464E-002
           5  0.39332722908716167     
           6 -0.17399220910191129     
           7  -7.6685254950089612E-002
           8   2.4124548857748233E-002
           9  0.39332787861996199     
          10  0.15542212915876172     
          11 -0.11213723624111886     
          12  -2.2684170484828584E-003
          13   5.1729848483797282E-002
          14   5.1729857529272436E-002
Sym=     2a
Ene=  -0.73298211398723567     
Spin= Alpha
Occup=     2.00000000
           1   2.9535874596908872E-007
           2  0.34382315873350527     
           3  -3.7002136949522216E-002
           4  -2.7547295007023177E-002
           5  0.55583851198793011     
           6  -2.1763615688908139E-002
           7  -9.9990987841137857E-002
           8   1.2666885896766431E-002
           9 -0.55583816992140767     
          10  -1.8456100063475108E-003
          11  0.10253194821510955     
          12  -1.0775125661362612E-002
          13  -2.6014706510355533E-008
          14  -3.5932997186702854E-008
Sym=     3a
Ene=  -0.66747997812663085     
Spin= Alpha
Occup=     2.00000000
           1  0.35493148873870617     
           2  -2.7564309315624730E-002
           3 -0.28027700407903672     
           4   3.2441877844599482E-002
           5 -0.39289931564184249     
           6 -0.12605994397555398     
           7 -0.20945789969135803     
           8   3.3905579682769124E-002
           9 -0.39289971826383463     
          10   8.2652389963826289E-002
          11 -0.23191974969848647     
          12   1.7183547895307291E-002
          13  0.23430994670994151     
          14  0.23430998280401075     
Sym=     4a
Ene=  -0.62268121711199931     
Spin= Alpha
Occup=     2.00000000
           1   2.8335233930229635E-008
           2   4.8001694731923054E-002
           3   5.5930850586128060E-002
           4  0.52399106037816667     
           5  -5.2317608001000260E-008
           6   3.5082967241683652E-002
           7   4.0878089837137803E-002
           8  0.38296782666700419     
           9   2.1303281351238397E-008
          10   3.5082953961036958E-002
          11   4.0877987801742538E-002
          12  0.38296820646638519     
          13  0.22898826315668697     
          14 -0.22898821273751499     
Sym=     5a
Ene=  -0.60786492560570893     
Spin= Alpha
Occup=     2.00000000
           1   1.6127017338341616E-002
           2   3.5594345554336528E-002
           3  0.36193078235239229     
           4  -4.1893242072539735E-002
           5 -0.34872361007304659     
           6 -0.45473134027467671     
           7   7.6468399452069805E-002
           8   3.3494753905481789E-002
           9 -0.34872325790955938     
          10  0.46009011905575670     
          11  -2.1985033130793672E-002
          12  -3.9801200515042677E-002
          13 -0.16464894580356848     
          14 -0.16464898126588720     
Sym=     6a
Ene=  -0.58788592852935695     
Spin= Alpha
Occup=     2.00000000
           1  -2.8620042261433347E-007
           2 -0.36625319638123377     
           3   3.9416308425450158E-002
           4   2.9344350640978276E-002
           5  0.34989412961131960     
           6  0.30152186981108198     
           7  0.42691736226792865     
           8  -7.3191047375372575E-002
           9 -0.34989374361655062     
          10  0.21211383147605750     
          11 -0.48219457741336780     
          12   3.2038159851220334E-002
          13   5.3138118457262829E-009
          14   8.4588196826814985E-008
Sym=     7a
Ene=  -0.49460668726718016     
Spin= Alpha
Occup=     2.00000000
           1   1.0941755131747697E-009
           2  -1.1128314813054030E-008
           3   4.4606960944478977E-008
           4  -2.0299297979248704E-007
           5   1.0472259030711088E-007
           6  -6.4707561522210771E-002
           7  -7.5396420564026026E-002
           8 -0.70635321124203121     
           9   6.1717178873078767E-008
          10   6.4707514671967434E-002
          11   7.5396054533057283E-002
          12  0.70635298480981401     
          13  -7.9887869428709284E-008
          14  -7.1013856192081804E-008
Sym=     8a
Ene=  -0.48698380510951328     
Spin= Alpha
Occup=     1.99999984
           1  -2.9299630328295155E-002
           2   1.7650142135351592E-002
           3  0.17946907736251611     
           4  -2.0773451526841836E-002
           5  -1.6084424049359149E-002
           6  0.11871144428987260     
           7 -0.63111219223862403     
           8   5.6490288193073848E-002
           9  -1.6084632877125075E-002
          10 -0.23906004336142314     
          11 -0.59260921079766082     
          12   8.5154801744720579E-002
          13 -0.25693605904520983     
          14 -0.25693606957966419     
Sym=     9a
Ene=  -0.45726806966716804     
Spin= Alpha
Occup=     1.00000016
           1  -2.3033451872410620E-008
           2   9.5412788320517056E-002
           3  -1.0268330975634803E-002
           4  -7.6445795539500675E-003
           5   2.5858702178441498E-002
           6 -0.58115640205139540     
           7  0.44221571064816395     
           8   6.0364798429083585E-003
           9  -2.5859082440236034E-002
          10 -0.65505252224476085     
          11 -0.30917435363499624     
          12   9.3009448581595669E-002
          13  -2.5200181951733491E-008
          14   7.5114302008849275E-008
Sym=    10a
Ene=  -0.43370855631965233     
Spin= Alpha
Occup=     1.00000000
           1  -6.8769892486434015E-009
           2  -2.6012485938353841E-002
           3  -3.0309283200859249E-002
           4 -0.28395396358152886     
           5  -6.9310783525732398E-008
           6   5.1024397703559467E-002
           7   5.9452649393456437E-002
           8  0.55698552041786131     
           9   4.1543341208096139E-008
          10   5.1024426689627964E-002
          11   5.9452782223452863E-002
          12  0.55698566795320614     
          13 -0.43064393236042187     
          14  0.43064392246032029     
Sym=    11a
Ene=    6.4679176203480071E-002
Spin= Alpha
Occup=     0.00000000
           1 -0.98010855401729569     
           2   6.3950336693922111E-002
           3  0.65028260907890312     
           4  -7.5269394882191698E-002
           5   1.1563053190107199E-002
           6  -6.1508360141742179E-002
           7 -0.16902815185534470     
           8   2.3676695653831341E-002
           9   1.1560550491976492E-002
          10   2.7319834468652736E-002
          11 -0.17858506832884488     
          12   1.6559425556735740E-002
          13  0.73241304278690100     
          14  0.73241338905896525     
Sym=    12a
Ene=    7.7317854548760057E-002
Spin= Alpha
Occup=     0.00000000
           1   2.3215860849817408E-007
           2   9.4130343376206307E-002
           3  0.10967893008725733     
           4   1.0275333989523725     
           5  -1.0517221834659905E-008
           6  -2.2160781791400880E-002
           7  -2.5821351035390353E-002
           8 -0.24190900956678554     
           9   2.9890328495634625E-009
          10  -2.2160798258706524E-002
          11  -2.5821363810521001E-002
          12 -0.24190885056254982     
          13 -0.77385145760434360     
          14  0.77385112399071732     
Sym=    13a
Ene=   0.19345382969911812     
Spin= Alpha
Occup=     0.00000000
           1   2.5461248077716436E-006
           2  -1.1003873516062685     
           3  0.11842184562034670     
           4   8.8163999635131246E-002
           5  0.46385947319018850     
           6 -0.41221784882424772     
           7 -0.43654381158796862     
           8   8.4359219292417950E-002
           9 -0.46385921931237684     
          10 -0.31861732252657005     
          11  0.51519718364142686     
          12  -2.5804327763395973E-002
          13  -2.2902950604404476E-006
          14  -2.2558322507118126E-006
Sym=    14a
Ene=   0.30598671239626035     
Spin= Alpha
Occup=     0.00000000
           1  0.75369193190355488     
           2   9.1532696872055633E-002
           3  0.93072171405738391     
           4 -0.10773052436308354     
           5 -0.46644872915272395     
           6  0.59720216214679223     
           7  0.19457716714728981     
           8  -7.5477719277935729E-002
           9 -0.46644923701094404     
          10 -0.54682214374859428     
          11  0.31769781714808626     
          12   1.6182193157681154E-002
          13  0.13217476452773433     
          14  0.13217475063120648     
