 Entering Gaussian System
 *********************************************
 Gaussian 98:
 frequency output generated by the xtb code
 *********************************************
                         Standard orientation:
 --------------------------------------------------------------------
  Center     Atomic     Atomic              Coordinates (Angstroms)
  Number     Number      Type              X           Y           Z
 --------------------------------------------------------------------
    1          6             0       -0.001918   -0.019510    0.002258
    2          8             0        1.103485    0.651936   -0.170676
    3          8             0       -0.953482    0.873307   -0.005870
    4          1             0        0.004210   -0.661688    0.941353
    5          1             0       -0.152295   -0.844044   -0.767065
 --------------------------------------------------------------------
     1 basis functions        1 primitive gaussians
     1 alpha electrons        1 beta electrons

 Harmonic frequencies (cm**-1), IR intensities (KM/Mole),
 Raman scattering activities (A**4/amu), Raman depolarization ratios,
 reduced masses (AMU), force constants (mDyne/A) and normal coordinates:
                      1                      2                      3
                        a                      a                      a 
 Frequencies --   515.1457               733.6283              1013.2785
 Red. masses --    14.9738                 6.1156                 1.6334
 Frc consts  --     0.0000                 0.0000                 0.0000
 IR Inten    --     0.5447                 0.0262                 0.0020
 Raman Activ --     0.0000                 0.0000                 0.0000
 Depolar     --     0.0000                 0.0000                 0.0000
 Atom AN      X      Y      Z        X      Y      Z        X      Y      Z
   1   6    -0.04  -0.43   0.05    -0.06  -0.06  -0.60     0.00   0.00   0.00
   2   8    -0.57   0.27   0.02     0.02   0.02   0.19    -0.01  -0.02  -0.14
   3   8     0.61   0.15  -0.07     0.02   0.02   0.19     0.01   0.02   0.14
   4   1    -0.01  -0.09   0.02     0.07   0.47   0.24    -0.69   0.07   0.05
   5   1    -0.01  -0.10  -0.00    -0.02  -0.41   0.34     0.69  -0.07  -0.06
                      4                      5                      6
                        a                      a                      a 
 Frequencies --  1155.5050              1181.3269              1214.6289
 Red. masses --     2.6757                 6.5983                13.4447
 Frc consts  --     0.0000                 0.0000                 0.0000
 IR Inten    --     0.0299                 0.3167                 0.9650
 Raman Activ --     0.0000                 0.0000                 0.0000
 Depolar     --     0.0000                 0.0000                 0.0000
 Atom AN      X      Y      Z        X      Y      Z        X      Y      Z
   1   6    -0.30   0.03   0.02    -0.06  -0.57   0.07     0.75  -0.08  -0.06
   2   8    -0.05  -0.14   0.02     0.22   0.13  -0.03    -0.38  -0.24   0.06
   3   8    -0.02   0.14  -0.01    -0.19   0.17  -0.00    -0.32   0.32  -0.00
   4   1     0.65  -0.07  -0.05     0.07   0.42   0.29     0.09  -0.01  -0.01
   5   1     0.65  -0.07  -0.05     0.01   0.35  -0.38     0.09  -0.01  -0.01
                      7                      8                      9
                        a                      a                      a 
 Frequencies --  1286.7789              2350.2001              2483.1119
 Red. masses --     8.8051                 1.6842                 1.3464
 Frc consts  --     0.0000                 0.0000                 0.0000
 IR Inten    --     0.6995                 0.0484                 0.1556
 Raman Activ --     0.0000                 0.0000                 0.0000
 Depolar     --     0.0000                 0.0000                 0.0000
 Atom AN      X      Y      Z        X      Y      Z        X      Y      Z
   1   6     0.04   0.44  -0.05    -0.02  -0.03  -0.24    -0.02  -0.16   0.02
   2   8    -0.35  -0.25   0.06    -0.00  -0.00  -0.02    -0.03  -0.03   0.01
   3   8     0.29  -0.32   0.01    -0.00  -0.00  -0.02     0.02  -0.03   0.00
   4   1     0.06   0.42   0.19    -0.00  -0.42   0.54    -0.01   0.33  -0.61
   5   1     0.02   0.36  -0.28     0.09   0.53   0.43     0.09   0.45   0.52
