 Entering Gaussian System
 *********************************************
 Gaussian 98:
 frequency output generated by the xtb code
 *********************************************
                         Standard orientation:
 --------------------------------------------------------------------
  Center     Atomic     Atomic              Coordinates (Angstroms)
  Number     Number      Type              X           Y           Z
 --------------------------------------------------------------------
    1          8             0        1.786266    0.348386    0.111335
    2          6             0        0.663245    0.131397    0.042313
    3          6             0       -1.841976   -0.361533   -0.115887
    4          6             0       -0.607536   -0.118250   -0.037762
 --------------------------------------------------------------------
     1 basis functions        1 primitive gaussians
     1 alpha electrons        1 beta electrons

 Harmonic frequencies (cm**-1), IR intensities (KM/Mole),
 Raman scattering activities (A**4/amu), Raman depolarization ratios,
 reduced masses (AMU), force constants (mDyne/A) and normal coordinates:
                      1                      2                      3
                        a                      a                      a 
 Frequencies --   178.9725               179.0647               552.1539
 Red. masses --    12.7302                12.7288                12.3462
 Frc consts  --     0.0000                 0.0000                 0.0000
 IR Inten    --     0.4449                 0.4446                 0.5896
 Raman Activ --     0.0000                 0.0000                 0.0000
 Depolar     --     0.0000                 0.0000                 0.0000
 Atom AN      X      Y      Z        X      Y      Z        X      Y      Z
   1   8     0.08  -0.42  -0.01    -0.02  -0.01   0.42     0.05  -0.29   0.00
   2   6    -0.08   0.38   0.01     0.02   0.01  -0.39    -0.15   0.75  -0.00
   3   6     0.10  -0.52  -0.01    -0.03  -0.02   0.53    -0.03   0.13  -0.00
   4   6    -0.12   0.61   0.01     0.03   0.02  -0.62     0.11  -0.55   0.00
                      4                      5                      6
                        a                      a                      a 
 Frequencies --   552.2875               994.9123              1975.5409
 Red. masses --    12.3464                13.5397                12.5026
 Frc consts  --     0.0000                 0.0000                 0.0000
 IR Inten    --     0.5896                 0.1545                 0.0655
 Raman Activ --     0.0000                 0.0000                 0.0000
 Depolar     --     0.0000                 0.0000                 0.0000
 Atom AN      X      Y      Z        X      Y      Z        X      Y      Z
   1   8     0.02   0.00  -0.29    -0.61  -0.12  -0.04    -0.34  -0.07  -0.02
   2   6    -0.05  -0.01   0.76    -0.27  -0.06  -0.02     0.28   0.05   0.02
   3   6    -0.01  -0.00   0.14     0.64   0.13   0.04    -0.56  -0.11  -0.04
   4   6     0.03   0.01  -0.56     0.33   0.06   0.02     0.67   0.13   0.04
                      7
                        a 
 Frequencies --  2318.1350
 Red. masses --    12.7526
 Frc consts  --     0.0000
 IR Inten    --     3.8366
 Raman Activ --     0.0000
 Depolar     --     0.0000
 Atom AN      X      Y      Z        X      Y      Z        X      Y      Z
   1   8     0.42   0.08   0.03
   2   6    -0.77  -0.15  -0.05
   3   6    -0.14  -0.03  -0.01
   4   6     0.42   0.08   0.03
