$hessian                                                                        
        1.0825303585   0.2056636032   0.0654188639  -1.0263758460  -0.1910066296
       -0.0606787198   0.0239124825   0.0051809284   0.0016691338  -0.0794397958
       -0.0200879824  -0.0064100809
        0.2056636032   0.0587826614   0.0126506122  -0.1908946159  -0.0750328651
       -0.0117211042   0.0051863947  -0.0015007492   0.0003275447  -0.0198388986
        0.0177358659  -0.0012572098
        0.0654188639   0.0126506122   0.0230457921  -0.0606658569  -0.0117254388
       -0.0418991200   0.0016851228   0.0003303956  -0.0024112942  -0.0064010838
       -0.0012709361   0.0212826869
       -1.0263758460  -0.1908946159  -0.0606658569   1.6085357155   0.2964531858
        0.0944250093  -0.0919972833  -0.0202914764  -0.0065203723  -0.4910328735
       -0.0848986799  -0.0272392843
       -0.1910066296  -0.0750328651  -0.0117254388   0.2964531858   0.1402791716
        0.0183472561  -0.0203041826   0.0073258492  -0.0012815272  -0.0853077708
       -0.0725325950  -0.0053403953
       -0.0606787198  -0.0117211042  -0.0418991200   0.0944250093   0.0183472561
        0.0885856977  -0.0065670927  -0.0012899896   0.0108988977  -0.0272319357
       -0.0053133490  -0.0576042646
        0.0239124825   0.0051863947   0.0016851228  -0.0919972833  -0.0203041826
       -0.0065670927   0.7801434907   0.1525292689   0.0489933413  -0.7121636813
       -0.1373209322  -0.0441168460
        0.0051809284  -0.0015007492   0.0003303956  -0.0202914764   0.0073258492
       -0.0012899896   0.1525292689   0.0366573612   0.0096601274  -0.1374384023
       -0.0424573600  -0.0087016140
        0.0016691338   0.0003275447  -0.0024112942  -0.0065203723  -0.0012815272
        0.0108988977   0.0489933413   0.0096601274   0.0096840250  -0.0441484317
       -0.0087004003  -0.0181691621
       -0.0794397958  -0.0198388986  -0.0064010838  -0.4910328735  -0.0853077708
       -0.0272319357  -0.7121636813  -0.1374384023  -0.0441484317   1.2829844301
        0.2423761896   0.0777882330
       -0.0200879824   0.0177358659  -0.0012709361  -0.0848986799  -0.0725325950
       -0.0053133490  -0.1373209322  -0.0424573600  -0.0087004003   0.2423761896
        0.0972045138   0.0152860283
       -0.0064100809  -0.0012572098   0.0212826869  -0.0272392843  -0.0053403953
       -0.0576042646  -0.0441168460  -0.0087016140  -0.0181691621   0.0777882330
        0.0152860283   0.0544889979
