 Entering Gaussian System, Link 0=g16
 Input=C4H5_2X.com
 Output=C4H5_2X.log
 Initial command:
 /home/spantaleone/g16/l1.exe "/scratch/cnt0027/pag0797/spantaleone/GAUSSIAN/gauss_scratch/Gau-14032.inp" -scrdir="/scratch/cnt0027/pag0797/spantaleone/GAUSSIAN/gauss_scratch/"
 Entering Link 1 = /home/spantaleone/g16/l1.exe PID=     14033.
  
 Copyright (c) 1988-2017, Gaussian, Inc.  All Rights Reserved.
  
 This is part of the Gaussian(R) 16 program.  It is based on
 the Gaussian(R) 09 system (copyright 2009, Gaussian, Inc.),
 the Gaussian(R) 03 system (copyright 2003, Gaussian, Inc.),
 the Gaussian(R) 98 system (copyright 1998, Gaussian, Inc.),
 the Gaussian(R) 94 system (copyright 1995, Gaussian, Inc.),
 the Gaussian 92(TM) system (copyright 1992, Gaussian, Inc.),
 the Gaussian 90(TM) system (copyright 1990, Gaussian, Inc.),
 the Gaussian 88(TM) system (copyright 1988, Gaussian, Inc.),
 the Gaussian 86(TM) system (copyright 1986, Carnegie Mellon
 University), and the Gaussian 82(TM) system (copyright 1983,
 Carnegie Mellon University). Gaussian is a federally registered
 trademark of Gaussian, Inc.
  
 This software contains proprietary and confidential information,
 including trade secrets, belonging to Gaussian, Inc.
  
 This software is provided under written license and may be
 used, copied, transmitted, or stored only in accord with that
 written license.
  
 The following legend is applicable only to US Government
 contracts under FAR:
  
                    RESTRICTED RIGHTS LEGEND
  
 Use, reproduction and disclosure by the US Government is
 subject to restrictions as set forth in subparagraphs (a)
 and (c) of the Commercial Computer Software - Restricted
 Rights clause in FAR 52.227-19.
  
 Gaussian, Inc.
 340 Quinnipiac St., Bldg. 40, Wallingford CT 06492
  
  
 ---------------------------------------------------------------
 Warning -- This program may not be used in any manner that
 competes with the business of Gaussian, Inc. or will provide
 assistance to any competitor of Gaussian, Inc.  The licensee
 of this program is prohibited from giving any competitor of
 Gaussian, Inc. access to this program.  By using this program,
 the user acknowledges that Gaussian, Inc. is engaged in the
 business of creating and licensing software in the field of
 computational chemistry and represents and warrants to the
 licensee that it is not a competitor of Gaussian, Inc. and that
 it will not use this program in any manner prohibited above.
 ---------------------------------------------------------------
  

 Cite this work as:
 Gaussian 16, Revision B.01,
 M. J. Frisch, G. W. Trucks, H. B. Schlegel, G. E. Scuseria, 
 M. A. Robb, J. R. Cheeseman, G. Scalmani, V. Barone, 
 G. A. Petersson, H. Nakatsuji, X. Li, M. Caricato, A. V. Marenich, 
 J. Bloino, B. G. Janesko, R. Gomperts, B. Mennucci, H. P. Hratchian, 
 J. V. Ortiz, A. F. Izmaylov, J. L. Sonnenberg, D. Williams-Young, 
 F. Ding, F. Lipparini, F. Egidi, J. Goings, B. Peng, A. Petrone, 
 T. Henderson, D. Ranasinghe, V. G. Zakrzewski, J. Gao, N. Rega, 
 G. Zheng, W. Liang, M. Hada, M. Ehara, K. Toyota, R. Fukuda, 
 J. Hasegawa, M. Ishida, T. Nakajima, Y. Honda, O. Kitao, H. Nakai, 
 T. Vreven, K. Throssell, J. A. Montgomery, Jr., J. E. Peralta, 
 F. Ogliaro, M. J. Bearpark, J. J. Heyd, E. N. Brothers, K. N. Kudin, 
 V. N. Staroverov, T. A. Keith, R. Kobayashi, J. Normand, 
 K. Raghavachari, A. P. Rendell, J. C. Burant, S. S. Iyengar, 
 J. Tomasi, M. Cossi, J. M. Millam, M. Klene, C. Adamo, R. Cammi, 
 J. W. Ochterski, R. L. Martin, K. Morokuma, O. Farkas, 
 J. B. Foresman, and D. J. Fox, Gaussian, Inc., Wallingford CT, 2016.
 
 ******************************************
 Gaussian 16:  ES64L-G16RevB.01 20-Dec-2017
                12-Oct-2020 
 ******************************************
 %nosave
 %nproc=8
 Will use up to    8 processors via shared memory.
 %mem=2gb
 %chk=input
 ----------------------------------------------------------------
 #P M062X/cc-pvtz nosymm opt(noeigentest) optcyc=120 freq scf=xqc
 ----------------------------------------------------------------
 1/6=120,11=1,18=20,19=15,26=3,38=1/1,3;
 2/9=110,12=2,15=1,17=6,18=5,40=1/2;
 3/5=16,6=1,11=2,25=1,30=1,71=1,74=-55/1,2,3;
 4//1;
 5/5=2,8=3,13=1,38=5/2,8;
 6/7=2,8=2,9=2,10=2,28=1/1;
 7/30=1/1,2,3,16;
 1/6=120,11=1,18=20,19=15,26=3/3(2);
 2/9=110,15=1/2;
 99//99;
 2/9=110,15=1/2;
 3/5=16,6=1,11=2,25=1,30=1,71=1,74=-55/1,2,3;
 4/5=5,16=3,69=1/1;
 5/5=2,8=3,13=1,38=5/2,8;
 7/30=1/1,2,3,16;
 1/6=120,11=1,18=20,19=15,26=3/3(-5);
 2/9=110,15=1/2;
 6/7=2,8=2,9=2,10=2,19=2,28=1/1;
 99/9=1/99;
 Leave Link    1 at Mon Oct 12 17:22:51 2020, MaxMem=   268435456 cpu:               0.4 elap:               0.1
 (Enter /home/spantaleone/g16/l101.exe)
 -----
 Title
 -----
 Symbolic Z-matrix:
 Charge =  0 Multiplicity = 2
 C
 C                    1    B1
 C                    2    B2       1    A2
 H                    1    B3       2    A3       3    D3       0
 H                    1    B4       2    A4       3    D4       0
 C                    3    B5       2    A5       1    D5       0
 H                    3    B6       2    A6       1    D6       0
 H                    6    B7       3    A7       2    D7       0
 H                    2    B8       1    A8       3    D8       0
       Variables:
  B1                    1.33494                  
  B2                    2.43328                  
  A2                  149.37572                  
  B3                    1.08522                  
  A3                  119.97249                  
  D3                  180.00108                  
  B4                    1.08609                  
  A4                  121.17946                  
  D4                    0.00093                  
  B5                    1.33161                  
  A5                   31.56421                  
  D5                  359.9983                   
  B6                    1.08516                  
  A6                  152.10855                  
  D6                  359.99872                  
  B7                    1.08672                  
  A7                  119.40152                  
  D7                  179.99977                  
  B8                    1.08692                  
  A8                  119.07061                  
  D8                  179.9989                   
 
 ITRead=  0  0  0  0  0  0  0  0  0
 MicOpt= -1 -1 -1 -1 -1 -1 -1 -1 -1
 NAtoms=      9 NQM=        9 NQMF=       0 NMMI=      0 NMMIF=      0
                NMic=       0 NMicF=      0.
                    Isotopes and Nuclear Properties:
 (Nuclear quadrupole moments (NQMom) in fm**2, nuclear magnetic moments (NMagM)
  in nuclear magnetons)

  Atom         1           2           3           4           5           6           7           8           9
 IAtWgt=          12          12          12           1           1          12           1           1           1
 AtmWgt=  12.0000000  12.0000000  12.0000000   1.0078250   1.0078250  12.0000000   1.0078250   1.0078250   1.0078250
 NucSpn=           0           0           0           1           1           0           1           1           1
 AtZEff=  -0.0000000  -0.0000000  -0.0000000  -0.0000000  -0.0000000  -0.0000000  -0.0000000  -0.0000000  -0.0000000
 NQMom=    0.0000000   0.0000000   0.0000000   0.0000000   0.0000000   0.0000000   0.0000000   0.0000000   0.0000000
 NMagM=    0.0000000   0.0000000   0.0000000   2.7928460   2.7928460   0.0000000   2.7928460   2.7928460   2.7928460
 AtZNuc=   6.0000000   6.0000000   6.0000000   1.0000000   1.0000000   6.0000000   1.0000000   1.0000000   1.0000000
 Leave Link  101 at Mon Oct 12 17:22:52 2020, MaxMem=   268435456 cpu:               2.0 elap:               0.3
 (Enter /home/spantaleone/g16/l103.exe)

 GradGradGradGradGradGradGradGradGradGradGradGradGradGradGradGradGradGrad
 Berny optimization.
 Initialization pass.
                           ----------------------------
                           !    Initial Parameters    !
                           ! (Angstroms and Degrees)  !
 --------------------------                            --------------------------
 ! Name  Definition              Value          Derivative Info.                !
 --------------------------------------------------------------------------------
 ! R1    R(1,2)                  1.3349         estimate D2E/DX2                !
 ! R2    R(1,4)                  1.0852         estimate D2E/DX2                !
 ! R3    R(1,5)                  1.0861         estimate D2E/DX2                !
 ! R4    R(2,6)                  1.4739         estimate D2E/DX2                !
 ! R5    R(2,9)                  1.0869         estimate D2E/DX2                !
 ! R6    R(3,6)                  1.3316         estimate D2E/DX2                !
 ! R7    R(3,7)                  1.0852         estimate D2E/DX2                !
 ! R8    R(6,8)                  1.0867         estimate D2E/DX2                !
 ! A1    A(2,1,4)              119.9725         estimate D2E/DX2                !
 ! A2    A(2,1,5)              121.1795         estimate D2E/DX2                !
 ! A3    A(4,1,5)              118.848          estimate D2E/DX2                !
 ! A4    A(1,2,6)              121.152          estimate D2E/DX2                !
 ! A5    A(1,2,9)              119.0706         estimate D2E/DX2                !
 ! A6    A(6,2,9)              119.7774         estimate D2E/DX2                !
 ! A7    A(6,3,7)              120.5443         estimate D2E/DX2                !
 ! A8    A(2,6,3)              120.2121         estimate D2E/DX2                !
 ! A9    A(2,6,8)              120.3864         estimate D2E/DX2                !
 ! A10   A(3,6,8)              119.4015         estimate D2E/DX2                !
 ! D1    D(4,1,2,6)           -179.9999         estimate D2E/DX2                !
 ! D2    D(4,1,2,9)              0.0            estimate D2E/DX2                !
 ! D3    D(5,1,2,6)              0.0            estimate D2E/DX2                !
 ! D4    D(5,1,2,9)            179.9998         estimate D2E/DX2                !
 ! D5    D(1,2,6,3)            179.999          estimate D2E/DX2                !
 ! D6    D(1,2,6,8)             -0.0008         estimate D2E/DX2                !
 ! D7    D(9,2,6,3)             -0.0009         estimate D2E/DX2                !
 ! D8    D(9,2,6,8)            179.9994         estimate D2E/DX2                !
 ! D9    D(7,3,6,2)           -179.9998         estimate D2E/DX2                !
 ! D10   D(7,3,6,8)              0.0            estimate D2E/DX2                !
 --------------------------------------------------------------------------------
 Trust Radius=3.00D-01 FncErr=1.00D-07 GrdErr=1.00D-06 EigMax=2.50D+02 EigMin=1.00D-04
 Number of steps in this run=    100 maximum allowed number of steps=    100.
 GradGradGradGradGradGradGradGradGradGradGradGradGradGradGradGradGradGrad

 Leave Link  103 at Mon Oct 12 17:22:52 2020, MaxMem=   268435456 cpu:               0.1 elap:               0.0
 (Enter /home/spantaleone/g16/l202.exe)
                          Input orientation:                          
 ---------------------------------------------------------------------
 Center     Atomic      Atomic             Coordinates (Angstroms)
 Number     Number       Type             X           Y           Z
 ---------------------------------------------------------------------
      1          6           0        0.000000    0.000000    0.000000
      2          6           0        0.000000    0.000000    1.334940
      3          6           0        1.239528    0.000000    3.428841
      4          1           0       -0.940089    0.000018   -0.542159
      5          1           0        0.929204   -0.000015   -0.562291
      6          6           0        1.261372   -0.000021    2.097410
      7          1           0        2.164934   -0.000011    3.995582
      8          1           0        2.216747   -0.000049    1.579513
      9          1           0       -0.949992    0.000018    1.863060
 ---------------------------------------------------------------------
                    Distance matrix (angstroms):
                    1          2          3          4          5
     1  C    0.000000
     2  C    1.334940   0.000000
     3  C    3.646009   2.433280   0.000000
     4  H    1.085220   2.099349   4.529853   0.000000
     5  H    1.086090   2.112559   4.003178   1.869401   0.000000
     6  C    2.447486   1.473913   1.331610   3.437114   2.680363
     7  H    4.544405   3.430154   1.085160   5.498387   4.722418
     8  H    2.721916   2.230198   2.091644   3.803564   2.499018
     9  H    2.091286   1.086920   2.691777   2.405239   3.068176
                    6          7          8          9
     6  C    0.000000
     7  H    2.102256   0.000000
     8  H    1.086720   2.416624   0.000000
     9  H    2.223746   3.774972   3.179408   0.000000
 Symmetry turned off by external request.
 Stoichiometry    C4H5(2)
 Framework group  C1[X(C4H5)]
 Deg. of freedom    21
 Full point group                 C1      NOp   1
 Rotational constants (GHZ):          45.5147777           4.7123841           4.2702615
 Leave Link  202 at Mon Oct 12 17:22:52 2020, MaxMem=   268435456 cpu:               0.1 elap:               0.0
 (Enter /home/spantaleone/g16/l301.exe)
 Standard basis: CC-pVTZ (5D, 7F)
 Ernie: Thresh=  0.10000D-02 Tol=  0.10000D-05 Strict=F.
 Ernie:  12 primitive shells out of 144 were deleted.
   190 basis functions,   293 primitive gaussians,   215 cartesian basis functions
    15 alpha electrons       14 beta electrons
       nuclear repulsion energy        96.7038857845 Hartrees.
 IExCor= 4336 DFT=T Ex+Corr=M062X ExCW=0 ScaHFX=  0.540000
 ScaDFX=  1.000000  1.000000  1.000000  1.000000 ScalE2=  1.000000  1.000000
 IRadAn=      5 IRanWt=     -1 IRanGd=            0 ICorTp=0 IEmpDi=  4
 NAtoms=    9 NActive=    9 NUniq=    9 SFac= 1.00D+00 NAtFMM=   60 NAOKFM=F Big=F
 Integral buffers will be    131072 words long.
 Raffenetti 2 integral format.
 Two-electron integral symmetry is turned off.
 Leave Link  301 at Mon Oct 12 17:22:52 2020, MaxMem=   268435456 cpu:               0.5 elap:               0.1
 (Enter /home/spantaleone/g16/l302.exe)
 NPDir=0 NMtPBC=     1 NCelOv=     1 NCel=       1 NClECP=     1 NCelD=      1
         NCelK=      1 NCelE2=     1 NClLst=     1 CellRange=     0.0.
 One-electron integrals computed using PRISM.
 NBasis=   190 RedAO= T EigKep=  3.58D-04  NBF=   190
 NBsUse=   190 1.00D-06 EigRej= -1.00D+00 NBFU=   190
 Precomputing XC quadrature grid using
 IXCGrd= 4 IRadAn=           5 IRanWt=          -1 IRanGd=           0 AccXCQ= 0.00D+00.
 Generated NRdTot=       0 NPtTot=           0 NUsed=           0 NTot=          32
 NSgBfM=   215   215   215   215   215 MxSgAt=     9 MxSgA2=     9.
 Leave Link  302 at Mon Oct 12 17:22:52 2020, MaxMem=   268435456 cpu:               1.9 elap:               0.2
 (Enter /home/spantaleone/g16/l303.exe)
 DipDrv:  MaxL=1.
 Leave Link  303 at Mon Oct 12 17:22:52 2020, MaxMem=   268435456 cpu:               0.4 elap:               0.1
 (Enter /home/spantaleone/g16/l401.exe)
 ExpMin= 1.03D-01 ExpMax= 8.24D+03 ExpMxC= 2.81D+02 IAcc=3 IRadAn=         5 AccDes= 0.00D+00
 Harris functional with IExCor= 1009 and IRadAn=       5 diagonalized for initial guess.
 HarFok:  IExCor= 1009 AccDes= 0.00D+00 IRadAn=         5 IDoV= 1 UseB2=F ITyADJ=14
 ICtDFT=  3500011 ScaDFX=  1.000000  1.000000  1.000000  1.000000
 FoFCou: FMM=F IPFlag=           0 FMFlag=      100000 FMFlg1=           0
         NFxFlg=           0 DoJE=T BraDBF=F KetDBF=T FulRan=T
         wScrn=  0.000000 ICntrl=       500 IOpCl=  0 I1Cent=   200000004 NGrid=           0
         NMat0=    1 NMatS0=      1 NMatT0=    0 NMatD0=    1 NMtDS0=    0 NMtDT0=    0
 Symmetry not used in FoFCou.
 Harris En= -155.216370439679    
 JPrj=0 DoOrth=F DoCkMO=F.
 Initial guess <Sx>= 0.0000 <Sy>= 0.0000 <Sz>= 0.5000 <S**2>= 0.7500 S= 0.5000
 Leave Link  401 at Mon Oct 12 17:22:53 2020, MaxMem=   268435456 cpu:               6.7 elap:               0.9
 (Enter /home/spantaleone/g16/l502.exe)
 Two-electron integral symmetry not used.
 UHF open shell SCF:
 Using DIIS extrapolation, IDIIS=  1040.
 NGot=   268435456 LenX=   268339784 LenY=   268293118
 Requested convergence on RMS density matrix=1.00D-08 within  32 cycles.
 Requested convergence on MAX density matrix=1.00D-06.
 Requested convergence on             energy=1.00D-06.
 No special actions if energy rises.
 Fock matrices will be formed incrementally for  20 cycles.
 Integral accuracy reduced to 1.0D-05 until final iterations.

 Cycle   1  Pass 0  IDiag  1:
 FoFJK:  IHMeth= 1 ICntrl=       0 DoSepK=F KAlg= 0 I1Cent=           0 FoldK=F
 IRaf= 980000000 NMat=       1 IRICut=       1 DoRegI=T DoRafI=F ISym2E= 0 IDoP0=0 IntGTp=1.
 FoFCou: FMM=F IPFlag=           0 FMFlag=      100000 FMFlg1=           0
         NFxFlg=           0 DoJE=F BraDBF=F KetDBF=F FulRan=T
         wScrn=  0.000000 ICntrl=         0 IOpCl=  1 I1Cent=           0 NGrid=           0
         NMat0=    1 NMatS0=      1 NMatT0=    0 NMatD0=    1 NMtDS0=    0 NMtDT0=    0
 Symmetry not used in FoFCou.
 E= -155.137253755365    
 DIIS: error= 3.20D-02 at cycle   1 NSaved=   1.
 NSaved= 1 IEnMin= 1 EnMin= -155.137253755365     IErMin= 1 ErrMin= 3.20D-02
 ErrMax= 3.20D-02  0.00D+00 EMaxC= 1.00D-01 BMatC= 5.77D-01 BMatP= 5.77D-01
 IDIUse=3 WtCom= 6.80D-01 WtEn= 3.20D-01
 Coeff-Com:  0.100D+01
 Coeff-En:   0.100D+01
 Coeff:      0.100D+01
 Gap=     0.393 Goal=   None    Shift=    0.000
 Gap=     0.186 Goal=   None    Shift=    0.000
 GapD=    0.186 DampG=1.000 DampE=0.500 DampFc=0.5000 IDamp=-1.
 Damping current iteration by 5.00D-01
 RMSDP=2.14D-03 MaxDP=5.40D-02              OVMax= 1.81D-01

 Cycle   2  Pass 0  IDiag  1:
 RMSU=  1.06D-03    CP:  9.92D-01
 E= -155.208259790307     Delta-E=       -0.071006034942 Rises=F Damp=T
 DIIS: error= 6.75D-03 at cycle   2 NSaved=   2.
 NSaved= 2 IEnMin= 2 EnMin= -155.208259790307     IErMin= 2 ErrMin= 6.75D-03
 ErrMax= 6.75D-03  0.00D+00 EMaxC= 1.00D-01 BMatC= 4.16D-02 BMatP= 5.77D-01
 IDIUse=3 WtCom= 9.32D-01 WtEn= 6.75D-02
 Coeff-Com: -0.151D+00 0.115D+01
 Coeff-En:   0.000D+00 0.100D+01
 Coeff:     -0.141D+00 0.114D+01
 Gap=     0.309 Goal=   None    Shift=    0.000
 Gap=     0.244 Goal=   None    Shift=    0.000
 RMSDP=8.21D-04 MaxDP=4.11D-02 DE=-7.10D-02 OVMax= 1.21D-01

 Cycle   3  Pass 0  IDiag  1:
 RMSU=  8.10D-04    CP:  9.97D-01  1.11D+00
 E= -155.271310619769     Delta-E=       -0.063050829462 Rises=F Damp=F
 DIIS: error= 6.53D-03 at cycle   3 NSaved=   3.
 NSaved= 3 IEnMin= 3 EnMin= -155.271310619769     IErMin= 3 ErrMin= 6.53D-03
 ErrMax= 6.53D-03  0.00D+00 EMaxC= 1.00D-01 BMatC= 1.51D-02 BMatP= 4.16D-02
 IDIUse=3 WtCom= 9.35D-01 WtEn= 6.53D-02
 Coeff-Com: -0.103D+00 0.453D+00 0.650D+00
 Coeff-En:   0.000D+00 0.000D+00 0.100D+01
 Coeff:     -0.967D-01 0.423D+00 0.673D+00
 Gap=     0.301 Goal=   None    Shift=    0.000
 Gap=     0.221 Goal=   None    Shift=    0.000
 RMSDP=3.10D-04 MaxDP=1.44D-02 DE=-6.31D-02 OVMax= 4.55D-02

 Cycle   4  Pass 0  IDiag  1:
 RMSU=  2.89D-04    CP:  9.96D-01  1.19D+00  9.05D-01
 E= -155.274764832710     Delta-E=       -0.003454212940 Rises=F Damp=F
 DIIS: error= 2.83D-03 at cycle   4 NSaved=   4.
 NSaved= 4 IEnMin= 4 EnMin= -155.274764832710     IErMin= 4 ErrMin= 2.83D-03
 ErrMax= 2.83D-03  0.00D+00 EMaxC= 1.00D-01 BMatC= 3.38D-03 BMatP= 1.51D-02
 IDIUse=3 WtCom= 9.72D-01 WtEn= 2.83D-02
 Coeff-Com: -0.218D-01 0.422D-01 0.335D+00 0.645D+00
 Coeff-En:   0.000D+00 0.000D+00 0.112D+00 0.888D+00
 Coeff:     -0.212D-01 0.410D-01 0.328D+00 0.652D+00
 Gap=     0.301 Goal=   None    Shift=    0.000
 Gap=     0.226 Goal=   None    Shift=    0.000
 RMSDP=9.86D-05 MaxDP=5.06D-03 DE=-3.45D-03 OVMax= 1.85D-02

 Cycle   5  Pass 0  IDiag  1:
 RMSU=  6.79D-05    CP:  9.96D-01  1.19D+00  9.70D-01  8.32D-01
 E= -155.275766431552     Delta-E=       -0.001001598843 Rises=F Damp=F
 DIIS: error= 6.48D-04 at cycle   5 NSaved=   5.
 NSaved= 5 IEnMin= 5 EnMin= -155.275766431552     IErMin= 5 ErrMin= 6.48D-04
 ErrMax= 6.48D-04  0.00D+00 EMaxC= 1.00D-01 BMatC= 1.04D-04 BMatP= 3.38D-03
 IDIUse=3 WtCom= 9.94D-01 WtEn= 6.48D-03
 Coeff-Com:  0.671D-02-0.268D-01-0.388D-01 0.743D-02 0.105D+01
 Coeff-En:   0.000D+00 0.000D+00 0.000D+00 0.000D+00 0.100D+01
 Coeff:      0.666D-02-0.267D-01-0.385D-01 0.738D-02 0.105D+01
 Gap=     0.301 Goal=   None    Shift=    0.000
 Gap=     0.227 Goal=   None    Shift=    0.000
 RMSDP=5.72D-05 MaxDP=2.29D-03 DE=-1.00D-03 OVMax= 8.19D-03

 Cycle   6  Pass 0  IDiag  1:
 RMSU=  2.68D-05    CP:  9.96D-01  1.20D+00  9.94D-01  9.37D-01  1.52D+00
 E= -155.275893473587     Delta-E=       -0.000127042034 Rises=F Damp=F
 DIIS: error= 4.45D-04 at cycle   6 NSaved=   6.
 NSaved= 6 IEnMin= 6 EnMin= -155.275893473587     IErMin= 6 ErrMin= 4.45D-04
 ErrMax= 4.45D-04  0.00D+00 EMaxC= 1.00D-01 BMatC= 3.94D-05 BMatP= 1.04D-04
 IDIUse=3 WtCom= 9.96D-01 WtEn= 4.45D-03
 Coeff-Com:  0.618D-02-0.155D-01-0.839D-01-0.143D+00 0.268D+00 0.969D+00
 Coeff-En:   0.000D+00 0.000D+00 0.000D+00 0.000D+00 0.000D+00 0.100D+01
 Coeff:      0.616D-02-0.154D-01-0.835D-01-0.143D+00 0.267D+00 0.969D+00
 Gap=     0.302 Goal=   None    Shift=    0.000
 Gap=     0.226 Goal=   None    Shift=    0.000
 RMSDP=3.88D-05 MaxDP=1.65D-03 DE=-1.27D-04 OVMax= 7.09D-03

 Cycle   7  Pass 0  IDiag  1:
 RMSU=  1.76D-05    CP:  9.96D-01  1.20D+00  1.00D+00  9.91D-01  1.90D+00
                    CP:  1.53D+00
 E= -155.275951046704     Delta-E=       -0.000057573118 Rises=F Damp=F
 DIIS: error= 3.03D-04 at cycle   7 NSaved=   7.
 NSaved= 7 IEnMin= 7 EnMin= -155.275951046704     IErMin= 7 ErrMin= 3.03D-04
 ErrMax= 3.03D-04  0.00D+00 EMaxC= 1.00D-01 BMatC= 1.20D-05 BMatP= 3.94D-05
 IDIUse=3 WtCom= 9.97D-01 WtEn= 3.03D-03
 Coeff-Com: -0.713D-03 0.381D-02-0.684D-02-0.295D-01-0.220D+00 0.208D+00
 Coeff-Com:  0.105D+01
 Coeff-En:   0.000D+00 0.000D+00 0.000D+00 0.000D+00 0.000D+00 0.000D+00
 Coeff-En:   0.100D+01
 Coeff:     -0.711D-03 0.380D-02-0.682D-02-0.294D-01-0.219D+00 0.207D+00
 Coeff:      0.105D+01
 Gap=     0.302 Goal=   None    Shift=    0.000
 Gap=     0.226 Goal=   None    Shift=    0.000
 RMSDP=2.59D-05 MaxDP=1.10D-03 DE=-5.76D-05 OVMax= 5.38D-03

 Cycle   8  Pass 0  IDiag  1:
 RMSU=  8.33D-06    CP:  9.96D-01  1.20D+00  1.01D+00  1.00D+00  2.11D+00
                    CP:  2.13D+00  1.60D+00
 E= -155.275974317135     Delta-E=       -0.000023270430 Rises=F Damp=F
 DIIS: error= 1.72D-04 at cycle   8 NSaved=   8.
 NSaved= 8 IEnMin= 8 EnMin= -155.275974317135     IErMin= 8 ErrMin= 1.72D-04
 ErrMax= 1.72D-04  0.00D+00 EMaxC= 1.00D-01 BMatC= 3.80D-06 BMatP= 1.20D-05
 IDIUse=3 WtCom= 9.98D-01 WtEn= 1.72D-03
 Coeff-Com: -0.210D-02 0.588D-02 0.245D-01 0.383D-01-0.127D+00-0.280D+00
 Coeff-Com:  0.192D+00 0.115D+01
 Coeff-En:   0.000D+00 0.000D+00 0.000D+00 0.000D+00 0.000D+00 0.000D+00
 Coeff-En:   0.000D+00 0.100D+01
 Coeff:     -0.210D-02 0.587D-02 0.244D-01 0.383D-01-0.126D+00-0.279D+00
 Coeff:      0.191D+00 0.115D+01
 Gap=     0.302 Goal=   None    Shift=    0.000
 Gap=     0.226 Goal=   None    Shift=    0.000
 RMSDP=1.92D-05 MaxDP=8.07D-04 DE=-2.33D-05 OVMax= 4.01D-03

 Cycle   9  Pass 0  IDiag  1:
 RMSU=  4.50D-06    CP:  9.96D-01  1.20D+00  1.01D+00  1.01D+00  2.24D+00
                    CP:  2.54D+00  2.22D+00  1.55D+00
 E= -155.275982933163     Delta-E=       -0.000008616028 Rises=F Damp=F
 DIIS: error= 1.21D-04 at cycle   9 NSaved=   9.
 NSaved= 9 IEnMin= 9 EnMin= -155.275982933163     IErMin= 9 ErrMin= 1.21D-04
 ErrMax= 1.21D-04  0.00D+00 EMaxC= 1.00D-01 BMatC= 1.61D-06 BMatP= 3.80D-06
 IDIUse=3 WtCom= 9.99D-01 WtEn= 1.21D-03
 Coeff-Com: -0.628D-03 0.139D-02 0.125D-01 0.251D-01-0.161D-02-0.200D+00
 Coeff-Com: -0.190D+00 0.604D+00 0.750D+00
 Coeff-En:   0.000D+00 0.000D+00 0.000D+00 0.000D+00 0.000D+00 0.000D+00
 Coeff-En:   0.000D+00 0.000D+00 0.100D+01
 Coeff:     -0.627D-03 0.139D-02 0.125D-01 0.251D-01-0.161D-02-0.200D+00
 Coeff:     -0.190D+00 0.603D+00 0.750D+00
 Gap=     0.302 Goal=   None    Shift=    0.000
 Gap=     0.226 Goal=   None    Shift=    0.000
 RMSDP=8.55D-06 MaxDP=3.18D-04 DE=-8.62D-06 OVMax= 1.93D-03

 Initial convergence to 1.0D-05 achieved.  Increase integral accuracy.
 Cycle  10  Pass 1  IDiag  1:
 E= -155.275994889708     Delta-E=       -0.000011956545 Rises=F Damp=F
 DIIS: error= 4.51D-05 at cycle   1 NSaved=   1.
 NSaved= 1 IEnMin= 1 EnMin= -155.275994889708     IErMin= 1 ErrMin= 4.51D-05
 ErrMax= 4.51D-05  0.00D+00 EMaxC= 1.00D-01 BMatC= 1.25D-06 BMatP= 1.25D-06
 IDIUse=1 WtCom= 1.00D+00 WtEn= 0.00D+00
 Coeff-Com:  0.100D+01
 Coeff:      0.100D+01
 Gap=     0.302 Goal=   None    Shift=    0.000
 Gap=     0.226 Goal=   None    Shift=    0.000
 RMSDP=8.55D-06 MaxDP=3.18D-04 DE=-1.20D-05 OVMax= 4.51D-04

 Cycle  11  Pass 1  IDiag  1:
 RMSU=  6.00D-06    CP:  1.00D+00
 E= -155.275995263135     Delta-E=       -0.000000373428 Rises=F Damp=F
 DIIS: error= 4.03D-05 at cycle   2 NSaved=   2.
 NSaved= 2 IEnMin= 2 EnMin= -155.275995263135     IErMin= 2 ErrMin= 4.03D-05
 ErrMax= 4.03D-05  0.00D+00 EMaxC= 1.00D-01 BMatC= 1.72D-07 BMatP= 1.25D-06
 IDIUse=1 WtCom= 1.00D+00 WtEn= 0.00D+00
 Coeff-Com:  0.692D-01 0.931D+00
 Coeff:      0.692D-01 0.931D+00
 Gap=     0.302 Goal=   None    Shift=    0.000
 Gap=     0.226 Goal=   None    Shift=    0.000
 RMSDP=1.64D-06 MaxDP=8.66D-05 DE=-3.73D-07 OVMax= 3.67D-04

 Cycle  12  Pass 1  IDiag  1:
 RMSU=  1.51D-06    CP:  1.00D+00  1.11D+00
 E= -155.275995369079     Delta-E=       -0.000000105944 Rises=F Damp=F
 DIIS: error= 3.52D-05 at cycle   3 NSaved=   3.
 NSaved= 3 IEnMin= 3 EnMin= -155.275995369079     IErMin= 3 ErrMin= 3.52D-05
 ErrMax= 3.52D-05  0.00D+00 EMaxC= 1.00D-01 BMatC= 1.57D-07 BMatP= 1.72D-07
 IDIUse=1 WtCom= 1.00D+00 WtEn= 0.00D+00
 Coeff-Com: -0.720D-01 0.504D+00 0.568D+00
 Coeff:     -0.720D-01 0.504D+00 0.568D+00
 Gap=     0.302 Goal=   None    Shift=    0.000
 Gap=     0.226 Goal=   None    Shift=    0.000
 RMSDP=8.80D-07 MaxDP=4.91D-05 DE=-1.06D-07 OVMax= 2.11D-04

 Cycle  13  Pass 1  IDiag  1:
 RMSU=  7.99D-07    CP:  1.00D+00  1.16D+00  1.15D+00
 E= -155.275995443485     Delta-E=       -0.000000074406 Rises=F Damp=F
 DIIS: error= 1.82D-05 at cycle   4 NSaved=   4.
 NSaved= 4 IEnMin= 4 EnMin= -155.275995443485     IErMin= 4 ErrMin= 1.82D-05
 ErrMax= 1.82D-05  0.00D+00 EMaxC= 1.00D-01 BMatC= 2.40D-08 BMatP= 1.57D-07
 IDIUse=1 WtCom= 1.00D+00 WtEn= 0.00D+00
 Coeff-Com:  0.162D-03-0.429D+00-0.194D+00 0.162D+01
 Coeff:      0.162D-03-0.429D+00-0.194D+00 0.162D+01
 Gap=     0.302 Goal=   None    Shift=    0.000
 Gap=     0.226 Goal=   None    Shift=    0.000
 RMSDP=1.52D-06 MaxDP=6.17D-05 DE=-7.44D-08 OVMax= 3.14D-04

 Cycle  14  Pass 1  IDiag  1:
 RMSU=  3.97D-07    CP:  1.00D+00  1.23D+00  1.91D+00  2.00D+00
 E= -155.275995505306     Delta-E=       -0.000000061821 Rises=F Damp=F
 DIIS: error= 8.39D-06 at cycle   5 NSaved=   5.
 NSaved= 5 IEnMin= 5 EnMin= -155.275995505306     IErMin= 5 ErrMin= 8.39D-06
 ErrMax= 8.39D-06  0.00D+00 EMaxC= 1.00D-01 BMatC= 8.05D-09 BMatP= 2.40D-08
 IDIUse=1 WtCom= 1.00D+00 WtEn= 0.00D+00
 Coeff-Com:  0.264D-01-0.359D+00-0.283D+00 0.665D+00 0.951D+00
 Coeff:      0.264D-01-0.359D+00-0.283D+00 0.665D+00 0.951D+00
 Gap=     0.302 Goal=   None    Shift=    0.000
 Gap=     0.226 Goal=   None    Shift=    0.000
 RMSDP=9.10D-07 MaxDP=3.57D-05 DE=-6.18D-08 OVMax= 1.87D-04

 Cycle  15  Pass 1  IDiag  1:
 RMSU=  2.06D-07    CP:  1.00D+00  1.27D+00  2.32D+00  2.67D+00  1.43D+00
 E= -155.275995521854     Delta-E=       -0.000000016548 Rises=F Damp=F
 DIIS: error= 3.09D-06 at cycle   6 NSaved=   6.
 NSaved= 6 IEnMin= 6 EnMin= -155.275995521854     IErMin= 6 ErrMin= 3.09D-06
 ErrMax= 3.09D-06  0.00D+00 EMaxC= 1.00D-01 BMatC= 1.18D-09 BMatP= 8.05D-09
 IDIUse=1 WtCom= 1.00D+00 WtEn= 0.00D+00
 Coeff-Com:  0.493D-02 0.176D-01-0.898D-02-0.210D+00 0.176D+00 0.102D+01
 Coeff:      0.493D-02 0.176D-01-0.898D-02-0.210D+00 0.176D+00 0.102D+01
 Gap=     0.302 Goal=   None    Shift=    0.000
 Gap=     0.226 Goal=   None    Shift=    0.000
 RMSDP=3.33D-07 MaxDP=1.22D-05 DE=-1.65D-08 OVMax= 6.75D-05

 Cycle  16  Pass 1  IDiag  1:
 RMSU=  8.13D-08    CP:  1.00D+00  1.28D+00  2.46D+00  2.89D+00  1.77D+00
                    CP:  1.40D+00
 E= -155.275995524175     Delta-E=       -0.000000002321 Rises=F Damp=F
 DIIS: error= 1.08D-06 at cycle   7 NSaved=   7.
 NSaved= 7 IEnMin= 7 EnMin= -155.275995524175     IErMin= 7 ErrMin= 1.08D-06
 ErrMax= 1.08D-06  0.00D+00 EMaxC= 1.00D-01 BMatC= 2.51D-10 BMatP= 1.18D-09
 IDIUse=1 WtCom= 1.00D+00 WtEn= 0.00D+00
 Coeff-Com: -0.550D-02 0.837D-01 0.642D-01-0.174D+00-0.204D+00 0.127D+00
 Coeff-Com:  0.111D+01
 Coeff:     -0.550D-02 0.837D-01 0.642D-01-0.174D+00-0.204D+00 0.127D+00
 Coeff:      0.111D+01
 Gap=     0.302 Goal=   None    Shift=    0.000
 Gap=     0.226 Goal=   None    Shift=    0.000
 RMSDP=1.43D-07 MaxDP=6.41D-06 DE=-2.32D-09 OVMax= 2.80D-05

 Cycle  17  Pass 1  IDiag  1:
 RMSU=  3.99D-08    CP:  1.00D+00  1.29D+00  2.51D+00  2.97D+00  1.93D+00
                    CP:  1.72D+00  1.52D+00
 E= -155.275995524624     Delta-E=       -0.000000000448 Rises=F Damp=F
 DIIS: error= 6.08D-07 at cycle   8 NSaved=   8.
 NSaved= 8 IEnMin= 8 EnMin= -155.275995524624     IErMin= 8 ErrMin= 6.08D-07
 ErrMax= 6.08D-07  0.00D+00 EMaxC= 1.00D-01 BMatC= 5.85D-11 BMatP= 2.51D-10
 IDIUse=1 WtCom= 1.00D+00 WtEn= 0.00D+00
 Coeff-Com: -0.232D-02 0.177D-01 0.175D-01-0.575D-02-0.838D-01-0.145D+00
 Coeff-Com:  0.278D+00 0.924D+00
 Coeff:     -0.232D-02 0.177D-01 0.175D-01-0.575D-02-0.838D-01-0.145D+00
 Coeff:      0.278D+00 0.924D+00
 Gap=     0.302 Goal=   None    Shift=    0.000
 Gap=     0.226 Goal=   None    Shift=    0.000
 RMSDP=5.14D-08 MaxDP=2.77D-06 DE=-4.48D-10 OVMax= 1.03D-05

 Cycle  18  Pass 1  IDiag  1:
 RMSU=  2.07D-08    CP:  1.00D+00  1.29D+00  2.52D+00  3.00D+00  1.96D+00
                    CP:  1.83D+00  1.85D+00  1.35D+00
 E= -155.275995524698     Delta-E=       -0.000000000075 Rises=F Damp=F
 DIIS: error= 3.58D-07 at cycle   9 NSaved=   9.
 NSaved= 9 IEnMin= 9 EnMin= -155.275995524698     IErMin= 9 ErrMin= 3.58D-07
 ErrMax= 3.58D-07  0.00D+00 EMaxC= 1.00D-01 BMatC= 2.15D-11 BMatP= 5.85D-11
 IDIUse=1 WtCom= 1.00D+00 WtEn= 0.00D+00
 Coeff-Com:  0.469D-03-0.156D-01-0.979D-02 0.481D-01 0.181D-01-0.110D+00
 Coeff-Com: -0.202D+00 0.444D+00 0.827D+00
 Coeff:      0.469D-03-0.156D-01-0.979D-02 0.481D-01 0.181D-01-0.110D+00
 Coeff:     -0.202D+00 0.444D+00 0.827D+00
 Gap=     0.302 Goal=   None    Shift=    0.000
 Gap=     0.226 Goal=   None    Shift=    0.000
 RMSDP=2.56D-08 MaxDP=1.31D-06 DE=-7.45D-11 OVMax= 5.50D-06

 Cycle  19  Pass 1  IDiag  1:
 RMSU=  9.96D-09    CP:  1.00D+00  1.29D+00  2.52D+00  3.00D+00  1.98D+00
                    CP:  1.87D+00  2.01D+00  1.69D+00  1.07D+00
 E= -155.275995524713     Delta-E=       -0.000000000015 Rises=F Damp=F
 DIIS: error= 1.01D-07 at cycle  10 NSaved=  10.
 NSaved=10 IEnMin=10 EnMin= -155.275995524713     IErMin=10 ErrMin= 1.01D-07
 ErrMax= 1.01D-07  0.00D+00 EMaxC= 1.00D-01 BMatC= 3.11D-12 BMatP= 2.15D-11
 IDIUse=1 WtCom= 1.00D+00 WtEn= 0.00D+00
 Coeff-Com:  0.551D-03-0.790D-02-0.616D-02 0.147D-01 0.213D-01-0.414D-02
 Coeff-Com: -0.101D+00-0.437D-01 0.250D+00 0.876D+00
 Coeff:      0.551D-03-0.790D-02-0.616D-02 0.147D-01 0.213D-01-0.414D-02
 Coeff:     -0.101D+00-0.437D-01 0.250D+00 0.876D+00
 Gap=     0.302 Goal=   None    Shift=    0.000
 Gap=     0.226 Goal=   None    Shift=    0.000
 RMSDP=8.61D-09 MaxDP=3.58D-07 DE=-1.53D-11 OVMax= 1.22D-06

 SCF Done:  E(UM062X) =  -155.275995525     A.U. after   19 cycles
            NFock= 19  Conv=0.86D-08     -V/T= 2.0065
 <Sx>= 0.0000 <Sy>= 0.0000 <Sz>= 0.5000 <S**2>= 0.7737 S= 0.5118
 <L.S>= 0.000000000000E+00
 KE= 1.542755457919D+02 PE=-5.528456346983D+02 EE= 1.465902075972D+02
 Annihilation of the first spin contaminant:
 S**2 before annihilation     0.7737,   after     0.7501
 Leave Link  502 at Mon Oct 12 17:23:43 2020, MaxMem=   268435456 cpu:             395.7 elap:              49.5
 (Enter /home/spantaleone/g16/l508.exe)
 QCSCF skips out because SCF is already converged.
 Leave Link  508 at Mon Oct 12 17:23:43 2020, MaxMem=   268435456 cpu:               0.0 elap:               0.0
 (Enter /home/spantaleone/g16/l601.exe)
 Copying SCF densities to generalized density rwf, IOpCl= 1 IROHF=0.

 **********************************************************************

            Population analysis using the SCF Density.

 **********************************************************************

 Alpha  occ. eigenvalues --  -10.57181 -10.55452 -10.55172 -10.53782  -0.91512
 Alpha  occ. eigenvalues --   -0.83614  -0.68398  -0.62867  -0.54617  -0.52444
 Alpha  occ. eigenvalues --   -0.45968  -0.42775  -0.39910  -0.33117  -0.30158
 Alpha virt. eigenvalues --    0.00033   0.08930   0.09521   0.09686   0.11391
 Alpha virt. eigenvalues --    0.15479   0.16261   0.21941   0.27190   0.29065
 Alpha virt. eigenvalues --    0.31736   0.32651   0.34189   0.35407   0.37014
 Alpha virt. eigenvalues --    0.40717   0.41252   0.45232   0.46093   0.46497
 Alpha virt. eigenvalues --    0.47164   0.49441   0.51772   0.53757   0.55066
 Alpha virt. eigenvalues --    0.55358   0.56823   0.62400   0.64876   0.66431
 Alpha virt. eigenvalues --    0.69267   0.70116   0.72451   0.75627   0.77320
 Alpha virt. eigenvalues --    0.80463   0.89119   0.92897   0.93831   0.96383
 Alpha virt. eigenvalues --    0.99811   1.01181   1.02343   1.05064   1.07126
 Alpha virt. eigenvalues --    1.10969   1.14657   1.17035   1.21439   1.23150
 Alpha virt. eigenvalues --    1.25250   1.26607   1.27893   1.30522   1.36651
 Alpha virt. eigenvalues --    1.40049   1.41838   1.42727   1.43465   1.46401
 Alpha virt. eigenvalues --    1.50930   1.53711   1.59363   1.68741   1.75122
 Alpha virt. eigenvalues --    1.89094   2.03854   2.09062   2.10943   2.18279
 Alpha virt. eigenvalues --    2.25693   2.25831   2.29088   2.29803   2.35685
 Alpha virt. eigenvalues --    2.40391   2.43533   2.44300   2.45417   2.47752
 Alpha virt. eigenvalues --    2.55166   2.61553   2.63546   2.65312   2.72113
 Alpha virt. eigenvalues --    2.72382   2.75659   2.77438   2.77727   2.80435
 Alpha virt. eigenvalues --    2.83512   2.86877   2.88525   2.89781   2.91342
 Alpha virt. eigenvalues --    2.94474   2.96212   2.97551   3.01845   3.02855
 Alpha virt. eigenvalues --    3.04563   3.05293   3.07663   3.08624   3.12934
 Alpha virt. eigenvalues --    3.14492   3.17555   3.17630   3.19228   3.22135
 Alpha virt. eigenvalues --    3.26320   3.27542   3.29218   3.33527   3.36550
 Alpha virt. eigenvalues --    3.43665   3.44972   3.49451   3.50229   3.52292
 Alpha virt. eigenvalues --    3.56954   3.61965   3.64009   3.68168   3.71449
 Alpha virt. eigenvalues --    3.74492   3.74699   3.78495   3.80692   3.83008
 Alpha virt. eigenvalues --    3.85661   3.88973   3.90336   3.93998   3.94962
 Alpha virt. eigenvalues --    3.96388   4.00945   4.05883   4.13201   4.13605
 Alpha virt. eigenvalues --    4.19796   4.28096   4.29719   4.32717   4.34779
 Alpha virt. eigenvalues --    4.37652   4.40887   4.45937   4.46402   4.60582
 Alpha virt. eigenvalues --    4.65618   4.69426   4.71877   4.73079   4.85291
 Alpha virt. eigenvalues --    4.88717   4.93416   4.94327   5.00989   5.05234
 Alpha virt. eigenvalues --    5.09026   5.11311   5.23001   5.29549   5.35773
 Alpha virt. eigenvalues --    5.40033   5.71388   5.79293   5.84631   5.93894
 Alpha virt. eigenvalues --    6.32858  10.20821  11.13940  13.29992  14.15944
  Beta  occ. eigenvalues --  -10.56084 -10.55525 -10.55091 -10.53820  -0.90761
  Beta  occ. eigenvalues --   -0.82277  -0.67252  -0.61462  -0.53566  -0.51203
  Beta  occ. eigenvalues --   -0.45375  -0.42244  -0.39483  -0.28817
  Beta virt. eigenvalues --   -0.06184   0.01272   0.08489   0.09605   0.09716
  Beta virt. eigenvalues --    0.10159   0.14805   0.15932   0.20408   0.25381
  Beta virt. eigenvalues --    0.27947   0.31667   0.32738   0.34163   0.35858
  Beta virt. eigenvalues --    0.37005   0.41023   0.41081   0.42391   0.44940
  Beta virt. eigenvalues --    0.46100   0.46911   0.49528   0.53012   0.53418
  Beta virt. eigenvalues --    0.54999   0.55602   0.57083   0.62787   0.64190
  Beta virt. eigenvalues --    0.66181   0.68844   0.70333   0.72188   0.76426
  Beta virt. eigenvalues --    0.77107   0.80649   0.89040   0.92851   0.93719
  Beta virt. eigenvalues --    0.96573   0.99711   1.01054   1.02404   1.05092
  Beta virt. eigenvalues --    1.07145   1.09296   1.14533   1.16359   1.20908
  Beta virt. eigenvalues --    1.22830   1.25104   1.25950   1.27730   1.30136
  Beta virt. eigenvalues --    1.36250   1.40269   1.41447   1.41516   1.43285
  Beta virt. eigenvalues --    1.46318   1.50875   1.53449   1.57859   1.67902
  Beta virt. eigenvalues --    1.75086   1.89310   2.04017   2.09738   2.11560
  Beta virt. eigenvalues --    2.20204   2.25593   2.26564   2.29502   2.29757
  Beta virt. eigenvalues --    2.35648   2.41040   2.43385   2.45093   2.45915
  Beta virt. eigenvalues --    2.49450   2.55061   2.61671   2.64059   2.65972
  Beta virt. eigenvalues --    2.72278   2.73047   2.75591   2.77717   2.78333
  Beta virt. eigenvalues --    2.81409   2.84184   2.87587   2.88320   2.90118
  Beta virt. eigenvalues --    2.94558   2.94866   2.96754   2.97754   3.01849
  Beta virt. eigenvalues --    3.02695   3.04805   3.06414   3.08688   3.09887
  Beta virt. eigenvalues --    3.14075   3.16027   3.18323   3.19394   3.20085
  Beta virt. eigenvalues --    3.22179   3.26363   3.28748   3.29408   3.34095
  Beta virt. eigenvalues --    3.37087   3.44056   3.45506   3.49624   3.50466
  Beta virt. eigenvalues --    3.52377   3.56885   3.61929   3.64514   3.68320
  Beta virt. eigenvalues --    3.71473   3.74662   3.74674   3.78426   3.80811
  Beta virt. eigenvalues --    3.83000   3.85649   3.88931   3.90324   3.94439
  Beta virt. eigenvalues --    3.94687   3.96354   4.00759   4.06084   4.13016
  Beta virt. eigenvalues --    4.13789   4.19813   4.28694   4.29373   4.32959
  Beta virt. eigenvalues --    4.34873   4.37642   4.40701   4.45945   4.47808
  Beta virt. eigenvalues --    4.60606   4.66192   4.70623   4.72181   4.73886
  Beta virt. eigenvalues --    4.86571   4.89204   4.94026   4.94755   5.01126
  Beta virt. eigenvalues --    5.06871   5.09316   5.11286   5.23104   5.29826
  Beta virt. eigenvalues --    5.35558   5.41148   5.72497   5.79579   5.84473
  Beta virt. eigenvalues --    5.93879   6.32770  10.21064  11.13761  13.30016
  Beta virt. eigenvalues --   14.15883
          Condensed to atoms (all electrons):
               1          2          3          4          5          6
     1  C    5.020245   0.566598   0.001550   0.418500   0.416286  -0.063380
     2  C    0.566598   4.920706  -0.063161  -0.052813  -0.063148   0.355074
     3  C    0.001550  -0.063161   5.401160  -0.000427   0.000477   0.552872
     4  H    0.418500  -0.052813  -0.000427   0.561090  -0.035907   0.006801
     5  H    0.416286  -0.063148   0.000477  -0.035907   0.560279  -0.004647
     6  C   -0.063380   0.355074   0.552872   0.006801  -0.004647   4.922685
     7  H   -0.000600   0.008715   0.387369   0.000023  -0.000039  -0.070364
     8  H    0.001386  -0.045518  -0.051342  -0.000198   0.004051   0.410262
     9  H   -0.044168   0.408024   0.005453  -0.009017   0.005810  -0.045710
               7          8          9
     1  C   -0.000600   0.001386  -0.044168
     2  C    0.008715  -0.045518   0.408024
     3  C    0.387369  -0.051342   0.005453
     4  H    0.000023  -0.000198  -0.009017
     5  H   -0.000039   0.004051   0.005810
     6  C   -0.070364   0.410262  -0.045710
     7  H    0.549864  -0.008749  -0.000133
     8  H   -0.008749   0.534621   0.004163
     9  H   -0.000133   0.004163   0.541158
          Atomic-Atomic Spin Densities.
               1          2          3          4          5          6
     1  C   -0.063827  -0.008807   0.001990  -0.000508  -0.000210   0.001946
     2  C   -0.008807   0.082439  -0.021556   0.000337  -0.000216   0.023982
     3  C    0.001990  -0.021556   1.194601  -0.000044  -0.000207  -0.065207
     4  H   -0.000508   0.000337  -0.000044   0.005315  -0.000115  -0.000054
     5  H   -0.000210  -0.000216  -0.000207  -0.000115   0.000952   0.001803
     6  C    0.001946   0.023982  -0.065207  -0.000054   0.001803  -0.150802
     7  H   -0.000095   0.000562  -0.018733   0.000003  -0.000030   0.007618
     8  H    0.001413  -0.009034  -0.015962  -0.000110   0.000766   0.012983
     9  H   -0.000376  -0.008905   0.004576  -0.000058  -0.000265   0.006859
               7          8          9
     1  C   -0.000095   0.001413  -0.000376
     2  C    0.000562  -0.009034  -0.008905
     3  C   -0.018733  -0.015962   0.004576
     4  H    0.000003  -0.000110  -0.000058
     5  H   -0.000030   0.000766  -0.000265
     6  C    0.007618   0.012983   0.006859
     7  H    0.045931  -0.007096  -0.000470
     8  H   -0.007096   0.075826   0.001096
     9  H   -0.000470   0.001096  -0.006190
 Mulliken charges and spin densities:
               1          2
     1  C   -0.316417  -0.068474
     2  C   -0.034478   0.058803
     3  C   -0.233953   1.079459
     4  H    0.111947   0.004766
     5  H    0.116837   0.002479
     6  C   -0.063594  -0.160871
     7  H    0.133914   0.027690
     8  H    0.151323   0.059882
     9  H    0.134419  -0.003733
 Sum of Mulliken charges =  -0.00000   1.00000
 Mulliken charges and spin densities with hydrogens summed into heavy atoms:
               1          2
     1  C   -0.087632  -0.061230
     2  C    0.099942   0.055070
     3  C   -0.100039   1.107149
     6  C    0.087730  -0.100989
 Electronic spatial extent (au):  <R**2>=            630.9593
 Charge=             -0.0000 electrons
 Dipole moment (field-independent basis, Debye):
    X=              0.5549    Y=             -0.0000    Z=             -0.3994  Tot=              0.6838
 Quadrupole moment (field-independent basis, Debye-Ang):
   XX=            -20.8310   YY=            -28.2736   ZZ=            -25.3526
   XY=             -0.0001   XZ=              1.6154   YZ=             -0.0000
 Traceless Quadrupole moment (field-independent basis, Debye-Ang):
   XX=              3.9880   YY=             -3.4545   ZZ=             -0.5335
   XY=             -0.0001   XZ=              1.6154   YZ=             -0.0000
 Octapole moment (field-independent basis, Debye-Ang**2):
  XXX=            -39.5276  YYY=              0.0005  ZZZ=           -126.2334  XYY=            -17.8670
  XXY=             -0.0001  XXZ=            -32.7728  XZZ=             -8.4365  YZZ=              0.0001
  YYZ=            -46.8547  XYZ=             -0.0002
 Hexadecapole moment (field-independent basis, Debye-Ang**3):
 XXXX=           -155.0583 YYYY=            -33.5721 ZZZZ=           -717.1583 XXXY=              0.0001
 XXXZ=           -110.6351 YYYX=              0.0008 YYYZ=              0.0010 ZZZX=            -98.2973
 ZZZY=              0.0008 XXYY=            -39.0356 XXZZ=           -115.1927 YYZZ=           -138.7912
 XXYZ=             -0.0002 YYXZ=            -50.6124 ZZXY=             -0.0002
 N-N= 9.670388578450D+01 E-N=-5.528456270411D+02  KE= 1.542755457919D+02
                          Isotropic Fermi Contact Couplings
        Atom                 a.u.       MegaHertz       Gauss      10(-4) cm-1
     1  C(13)             -0.01039     -11.68372      -4.16904      -3.89727
     2  C(13)              0.04932      55.44398      19.78379      18.49412
     3  C(13)              0.53717     603.88529     215.48129     201.43445
     4  H(1)               0.00093       4.16597       1.48652       1.38962
     5  H(1)               0.00091       4.06414       1.45018       1.35565
     6  C(13)             -0.01096     -12.32191      -4.39676      -4.11015
     7  H(1)               0.01799      80.42038      28.69599      26.82535
     8  H(1)               0.02570     114.88254      40.99295      38.32069
     9  H(1)              -0.00082      -3.67008      -1.30958      -1.22421
 --------------------------------------------------------
       Center         ----  Spin Dipole Couplings  ----
                      3XX-RR        3YY-RR        3ZZ-RR
 --------------------------------------------------------
     1   Atom        0.026778     -0.068731      0.041953
     2   Atom       -0.016113      0.008149      0.007965
     3   Atom        0.537258     -0.309373     -0.227885
     4   Atom       -0.003046     -0.001830      0.004877
     5   Atom       -0.003780     -0.002296      0.006076
     6   Atom        0.031785     -0.180130      0.148345
     7   Atom        0.049852     -0.055727      0.005876
     8   Atom       -0.002225     -0.011985      0.014210
     9   Atom        0.007605     -0.009507      0.001902
 --------------------------------------------------------
                        XY            XZ            YZ
 --------------------------------------------------------
     1   Atom       -0.000002      0.000089     -0.000000
     2   Atom        0.000001      0.027873     -0.000000
     3   Atom       -0.000028     -0.608795      0.000015
     4   Atom        0.000000     -0.001734      0.000000
     5   Atom        0.000000      0.003989     -0.000000
     6   Atom       -0.000005     -0.022425      0.000005
     7   Atom       -0.000001      0.052635     -0.000000
     8   Atom       -0.000000     -0.004757      0.000000
     9   Atom       -0.000000      0.009601      0.000000
 --------------------------------------------------------


 ---------------------------------------------------------------------------------
              Anisotropic Spin Dipole Couplings in Principal Axis System
 ---------------------------------------------------------------------------------

       Atom             a.u.   MegaHertz   Gauss  10(-4) cm-1        Axes

              Baa    -0.0687    -9.223    -3.291    -3.076  0.0000  1.0000  0.0000
     1 C(13)  Bbb     0.0268     3.593     1.282     1.199  1.0000 -0.0000 -0.0058
              Bcc     0.0420     5.630     2.009     1.878  0.0058 -0.0000  1.0000
 
              Baa    -0.0344    -4.621    -1.649    -1.541  0.8356 -0.0000 -0.5493
     2 C(13)  Bbb     0.0081     1.093     0.390     0.365  0.0000  1.0000 -0.0000
              Bcc     0.0263     3.528     1.259     1.177  0.5493  0.0000  0.8356
 
              Baa    -0.5643   -75.728   -27.022   -25.260  0.4837  0.0000  0.8752
     3 C(13)  Bbb    -0.3094   -41.515   -14.814   -13.848  0.0000  1.0000 -0.0000
              Bcc     0.8737   117.243    41.835    39.108  0.8752 -0.0000 -0.4837
 
              Baa    -0.0034    -1.819    -0.649    -0.607  0.9788 -0.0000  0.2049
     4 H(1)   Bbb    -0.0018    -0.976    -0.348    -0.326  0.0000  1.0000  0.0000
              Bcc     0.0052     2.796     0.998     0.933 -0.2049  0.0000  0.9788
 
              Baa    -0.0052    -2.770    -0.989    -0.924  0.9427 -0.0000 -0.3337
     5 H(1)   Bbb    -0.0023    -1.225    -0.437    -0.409  0.0000  1.0000 -0.0000
              Bcc     0.0075     3.995     1.426     1.333  0.3337 -0.0000  0.9427
 
              Baa    -0.1801   -24.172    -8.625    -8.063  0.0000  1.0000 -0.0000
     6 C(13)  Bbb     0.0276     3.706     1.323     1.236  0.9832 -0.0000  0.1826
              Bcc     0.1525    20.465     7.303     6.827 -0.1826  0.0000  0.9832
 
              Baa    -0.0557   -29.733   -10.610    -9.918  0.0000  1.0000 -0.0000
     7 H(1)   Bbb    -0.0292   -15.569    -5.555    -5.193 -0.5543  0.0000  0.8323
              Bcc     0.0849    45.302    16.165    15.111  0.8323 -0.0000  0.5543
 
              Baa    -0.0120    -6.394    -2.282    -2.133  0.0000  1.0000 -0.0000
     8 H(1)   Bbb    -0.0035    -1.869    -0.667    -0.623  0.9658 -0.0000  0.2594
              Bcc     0.0155     8.263     2.949     2.756 -0.2594  0.0000  0.9658
 
              Baa    -0.0095    -5.072    -1.810    -1.692  0.0000  1.0000 -0.0000
     9 H(1)   Bbb    -0.0053    -2.807    -1.002    -0.936 -0.5980  0.0000  0.8015
              Bcc     0.0148     7.880     2.812     2.628  0.8015 -0.0000  0.5980
 

 ---------------------------------------------------------------------------------

 No NMR shielding tensors so no spin-rotation constants.
 Leave Link  601 at Mon Oct 12 17:23:43 2020, MaxMem=   268435456 cpu:               2.5 elap:               0.4
 (Enter /home/spantaleone/g16/l701.exe)
 ... and contract with generalized density number  0.
 Compute integral first derivatives.
 Leave Link  701 at Mon Oct 12 17:23:43 2020, MaxMem=   268435456 cpu:               1.4 elap:               0.2
 (Enter /home/spantaleone/g16/l702.exe)
 L702 exits ... SP integral derivatives will be done elsewhere.
 Leave Link  702 at Mon Oct 12 17:23:44 2020, MaxMem=   268435456 cpu:               0.2 elap:               0.0
 (Enter /home/spantaleone/g16/l703.exe)
 Integral derivatives from FoFJK, PRISM(SPDF).
 Compute integral first derivatives, UseDBF=F ICtDFT=           0.
 Calling FoFJK, ICntrl=      2127 FMM=F ISym2X=0 I1Cent= 0 IOpClX= 1 NMat=1 NMatS=1 NMatT=0.
 FoFJK:  IHMeth= 1 ICntrl=    2127 DoSepK=F KAlg= 0 I1Cent=           0 FoldK=F
 IRaf=         0 NMat=       1 IRICut=       1 DoRegI=T DoRafI=F ISym2E= 0 IDoP0=0 IntGTp=1.
 FoFCou: FMM=F IPFlag=           0 FMFlag=      100000 FMFlg1=         800
         NFxFlg=           0 DoJE=F BraDBF=F KetDBF=F FulRan=T
         wScrn=  0.000000 ICntrl=      2127 IOpCl=  1 I1Cent=           0 NGrid=           0
         NMat0=    1 NMatS0=      1 NMatT0=    0 NMatD0=    1 NMtDS0=    0 NMtDT0=    0
 Symmetry not used in FoFCou.
 Leave Link  703 at Mon Oct 12 17:23:50 2020, MaxMem=   268435456 cpu:              48.5 elap:               6.1
 (Enter /home/spantaleone/g16/l716.exe)
 Dipole        = 2.18333177D-01-4.83869230D-06-1.57155177D-01
 -------------------------------------------------------------------
 Center     Atomic                   Forces (Hartrees/Bohr)
 Number     Number              X              Y              Z
 -------------------------------------------------------------------
      1        6          -0.005774308    0.000000142    0.005044234
      2        6           0.013523839   -0.000000364   -0.016469370
      3        6           0.030130251   -0.000001185   -0.026361594
      4        1           0.004172662   -0.000000082   -0.001459964
      5        1          -0.002978397   -0.000000064    0.000248925
      6        6          -0.034348109    0.000001259    0.024113904
      7        1          -0.008805713    0.000000365    0.013812241
      8        1          -0.001464402    0.000000024   -0.002099284
      9        1           0.005544177   -0.000000096    0.003170908
 -------------------------------------------------------------------
 Cartesian Forces:  Max     0.034348109 RMS     0.012503478
 Leave Link  716 at Mon Oct 12 17:23:50 2020, MaxMem=   268435456 cpu:               0.3 elap:               0.0
 (Enter /home/spantaleone/g16/l103.exe)

 GradGradGradGradGradGradGradGradGradGradGradGradGradGradGradGradGradGrad
 Berny optimization.
 FormGI is forming the generalized inverse of G from B-inverse, IUseBI=4.
 Internal  Forces:  Max     0.033582976 RMS     0.008309278
 Search for a local minimum.
 Step number   1 out of a maximum of  100
 All quantities printed in internal units (Hartrees-Bohrs-Radians)
 RMS Force = .83093D-02 SwitMx=.10000D-02 MixMth= 1
 Mixed Optimization -- RFO/linear search
 Second derivative matrix not updated -- first step.
 ITU=  0
     Eigenvalues ---    0.01111   0.01730   0.02024   0.02949   0.02949
     Eigenvalues ---    0.02993   0.16000   0.16000   0.16000   0.16000
     Eigenvalues ---    0.16000   0.22000   0.22000   0.35171   0.35194
     Eigenvalues ---    0.35268   0.35276   0.35371   0.35378   0.58354
     Eigenvalues ---    0.59127
 RFO step:  Lambda=-9.68897268D-03 EMin= 1.11102812D-02
 Linear search not attempted -- first point.
 Iteration  1 RMS(Cart)=  0.05723475 RMS(Int)=  0.00435015
 Iteration  2 RMS(Cart)=  0.00440079 RMS(Int)=  0.00000350
 Iteration  3 RMS(Cart)=  0.00000573 RMS(Int)=  0.00000001
 Iteration  4 RMS(Cart)=  0.00000000 RMS(Int)=  0.00000001
 ITry= 1 IFail=0 DXMaxC= 2.18D-01 DCOld= 1.00D+10 DXMaxT= 3.00D-01 DXLimC= 3.00D+00 Rises=F
 Variable       Old X    -DE/DX   Delta X   Delta X   Delta X     New X
                                 (Linear)    (Quad)   (Total)
    R1        2.52267  -0.00383   0.00000  -0.00646  -0.00646   2.51621
    R2        2.05077  -0.00288   0.00000  -0.00794  -0.00794   2.04283
    R3        2.05241  -0.00268   0.00000  -0.00739  -0.00739   2.04502
    R4        2.78529  -0.00750   0.00000  -0.02070  -0.02070   2.76460
    R5        2.05398  -0.00330   0.00000  -0.00914  -0.00914   2.04484
    R6        2.51638  -0.01290   0.00000  -0.02146  -0.02146   2.49492
    R7        2.05066  -0.00030   0.00000  -0.00081  -0.00081   2.04984
    R8        2.05360  -0.00029   0.00000  -0.00079  -0.00079   2.05281
    A1        2.09391   0.00367   0.00000   0.02162   0.02162   2.11553
    A2        2.11498  -0.00047   0.00000  -0.00277  -0.00277   2.11221
    A3        2.07429  -0.00320   0.00000  -0.01885  -0.01885   2.05544
    A4        2.11450   0.00869   0.00000   0.03783   0.03783   2.15234
    A5        2.07817   0.00127   0.00000   0.01416   0.01416   2.09234
    A6        2.09051  -0.00996   0.00000  -0.05200  -0.05200   2.03851
    A7        2.10390   0.03358   0.00000   0.19791   0.19791   2.30180
    A8        2.09810   0.01478   0.00000   0.06435   0.06435   2.16244
    A9        2.10114  -0.01000   0.00000  -0.04757  -0.04757   2.05357
   A10        2.08395  -0.00478   0.00000  -0.01678  -0.01678   2.06717
    D1       -3.14159  -0.00000   0.00000  -0.00000  -0.00000  -3.14159
    D2       -0.00000   0.00000   0.00000   0.00000   0.00000   0.00000
    D3       -0.00000   0.00000   0.00000   0.00000   0.00000   0.00000
    D4        3.14159   0.00000   0.00000   0.00000   0.00000  -3.14159
    D5        3.14157   0.00000   0.00000   0.00001   0.00001   3.14158
    D6       -0.00001   0.00000   0.00000   0.00000   0.00000  -0.00001
    D7       -0.00001   0.00000   0.00000   0.00001   0.00001  -0.00001
    D8        3.14158  -0.00000   0.00000   0.00000   0.00000   3.14158
    D9       -3.14159  -0.00000   0.00000  -0.00000  -0.00000  -3.14159
   D10       -0.00000   0.00000   0.00000   0.00000   0.00000   0.00000
         Item               Value     Threshold  Converged?
 Maximum Force            0.033583     0.000450     NO 
 RMS     Force            0.008309     0.000300     NO 
 Maximum Displacement     0.218148     0.001800     NO 
 RMS     Displacement     0.056068     0.001200     NO 
 Predicted change in Energy=-5.097133D-03
 Lowest energy point so far.  Saving SCF results.
 GradGradGradGradGradGradGradGradGradGradGradGradGradGradGradGradGradGrad

 Leave Link  103 at Mon Oct 12 17:23:50 2020, MaxMem=   268435456 cpu:               0.2 elap:               0.0
 (Enter /home/spantaleone/g16/l202.exe)
                          Input orientation:                          
 ---------------------------------------------------------------------
 Center     Atomic      Atomic             Coordinates (Angstroms)
 Number     Number       Type             X           Y           Z
 ---------------------------------------------------------------------
      1          6           0       -0.012973   -0.000000   -0.014515
      2          6           0        0.016106    0.000002    1.316687
      3          6           0        1.298012   -0.000004    3.412997
      4          1           0       -0.949543    0.000016   -0.554366
      5          1           0        0.902033   -0.000018   -0.592337
      6          6           0        1.255841   -0.000017    2.093419
      7          1           0        2.128315   -0.000014    4.111021
      8          1           0        2.194030   -0.000044    1.545831
      9          1           0       -0.910117    0.000020    1.876160
 ---------------------------------------------------------------------
                    Distance matrix (angstroms):
                    1          2          3          4          5
     1  C    0.000000
     2  C    1.331520   0.000000
     3  C    3.669676   2.457193   0.000000
     4  H    1.081019   2.105545   4.559767   0.000000
     5  H    1.082180   2.104576   4.024860   1.851965   0.000000
     6  C    2.460340   1.462961   1.320252   3.445937   2.708960
     7  H    4.648135   3.502817   1.084730   5.589189   4.860590
     8  H    2.702876   2.189945   2.071028   3.780592   2.498203
     9  H    2.092730   1.082081   2.690298   2.430846   3.062248
                    6          7          8          9
     6  C    0.000000
     7  H    2.198165   0.000000
     8  H    1.086301   2.566031   0.000000
     9  H    2.176827   3.771826   3.121673   0.000000
 Symmetry turned off by external request.
 Stoichiometry    C4H5(2)
 Framework group  C1[X(C4H5)]
 Deg. of freedom    21
 Full point group                 C1      NOp   1
 Rotational constants (GHZ):          48.7324449           4.6267952           4.2256045
 Leave Link  202 at Mon Oct 12 17:23:50 2020, MaxMem=   268435456 cpu:               0.0 elap:               0.0
 (Enter /home/spantaleone/g16/l301.exe)
 Standard basis: CC-pVTZ (5D, 7F)
 Ernie: Thresh=  0.10000D-02 Tol=  0.10000D-05 Strict=F.
 Ernie:  12 primitive shells out of 144 were deleted.
   190 basis functions,   293 primitive gaussians,   215 cartesian basis functions
    15 alpha electrons       14 beta electrons
       nuclear repulsion energy        96.7910855211 Hartrees.
 IExCor= 4336 DFT=T Ex+Corr=M062X ExCW=0 ScaHFX=  0.540000
 ScaDFX=  1.000000  1.000000  1.000000  1.000000 ScalE2=  1.000000  1.000000
 IRadAn=      5 IRanWt=     -1 IRanGd=            0 ICorTp=0 IEmpDi=  4
 NAtoms=    9 NActive=    9 NUniq=    9 SFac= 1.00D+00 NAtFMM=   60 NAOKFM=F Big=F
 Integral buffers will be    131072 words long.
 Raffenetti 2 integral format.
 Two-electron integral symmetry is turned off.
 Leave Link  301 at Mon Oct 12 17:23:50 2020, MaxMem=   268435456 cpu:               0.3 elap:               0.0
 (Enter /home/spantaleone/g16/l302.exe)
 NPDir=0 NMtPBC=     1 NCelOv=     1 NCel=       1 NClECP=     1 NCelD=      1
         NCelK=      1 NCelE2=     1 NClLst=     1 CellRange=     0.0.
 One-electron integrals computed using PRISM.
 NBasis=   190 RedAO= T EigKep=  3.43D-04  NBF=   190
 NBsUse=   190 1.00D-06 EigRej= -1.00D+00 NBFU=   190
 Precomputing XC quadrature grid using
 IXCGrd= 4 IRadAn=           5 IRanWt=          -1 IRanGd=           0 AccXCQ= 0.00D+00.
 Generated NRdTot=       0 NPtTot=           0 NUsed=           0 NTot=          32
 NSgBfM=   215   215   215   215   215 MxSgAt=     9 MxSgA2=     9.
 Leave Link  302 at Mon Oct 12 17:23:50 2020, MaxMem=   268435456 cpu:               1.7 elap:               0.2
 (Enter /home/spantaleone/g16/l303.exe)
 DipDrv:  MaxL=1.
 Leave Link  303 at Mon Oct 12 17:23:50 2020, MaxMem=   268435456 cpu:               0.3 elap:               0.0
 (Enter /home/spantaleone/g16/l401.exe)
 Initial guess from the checkpoint file:  "input.chk"
 B after Tr=    -0.005326    0.000002   -0.007880
         Rot=    0.999993   -0.000000   -0.003818   -0.000000 Ang=  -0.44 deg.
 Guess basis will be translated and rotated to current coordinates.
 JPrj=2 DoOrth=T DoCkMO=T.
 Initial guess <Sx>= 0.0000 <Sy>= 0.0000 <Sz>= 0.5000 <S**2>= 0.7736 S= 0.5117
 Generating alternative initial guess.
 ExpMin= 1.03D-01 ExpMax= 8.24D+03 ExpMxC= 2.81D+02 IAcc=3 IRadAn=         5 AccDes= 0.00D+00
 Harris functional with IExCor= 1009 and IRadAn=       5 diagonalized for initial guess.
 HarFok:  IExCor= 1009 AccDes= 0.00D+00 IRadAn=         5 IDoV= 1 UseB2=F ITyADJ=14
 ICtDFT=  3500011 ScaDFX=  1.000000  1.000000  1.000000  1.000000
 FoFCou: FMM=F IPFlag=           0 FMFlag=      100000 FMFlg1=           0
         NFxFlg=           0 DoJE=T BraDBF=F KetDBF=T FulRan=T
         wScrn=  0.000000 ICntrl=       500 IOpCl=  0 I1Cent=   200000004 NGrid=           0
         NMat0=    1 NMatS0=      1 NMatT0=    0 NMatD0=    1 NMtDS0=    0 NMtDT0=    0
 Symmetry not used in FoFCou.
 Harris En= -155.224937403113    
 Leave Link  401 at Mon Oct 12 17:23:51 2020, MaxMem=   268435456 cpu:               7.3 elap:               0.9
 (Enter /home/spantaleone/g16/l502.exe)
 Two-electron integral symmetry not used.
 UHF open shell SCF:
 Using DIIS extrapolation, IDIIS=  1040.
 NGot=   268435456 LenX=   268339784 LenY=   268293118
 Requested convergence on RMS density matrix=1.00D-08 within  32 cycles.
 Requested convergence on MAX density matrix=1.00D-06.
 Requested convergence on             energy=1.00D-06.
 No special actions if energy rises.
 Fock matrices will be formed incrementally for  20 cycles.
 Integral accuracy reduced to 1.0D-05 until final iterations.

 Cycle   1  Pass 0  IDiag  1:
 FoFJK:  IHMeth= 1 ICntrl=       0 DoSepK=F KAlg= 0 I1Cent=           0 FoldK=F
 IRaf= 980000000 NMat=       1 IRICut=       1 DoRegI=T DoRafI=F ISym2E= 0 IDoP0=0 IntGTp=1.
 FoFCou: FMM=F IPFlag=           0 FMFlag=      100000 FMFlg1=           0
         NFxFlg=           0 DoJE=F BraDBF=F KetDBF=F FulRan=T
         wScrn=  0.000000 ICntrl=         0 IOpCl=  1 I1Cent=           0 NGrid=           0
         NMat0=    1 NMatS0=      1 NMatT0=    0 NMatD0=    1 NMtDS0=    0 NMtDT0=    0
 Symmetry not used in FoFCou.
 E= -155.279222507205    
 DIIS: error= 3.71D-03 at cycle   1 NSaved=   1.
 NSaved= 1 IEnMin= 1 EnMin= -155.279222507205     IErMin= 1 ErrMin= 3.71D-03
 ErrMax= 3.71D-03  0.00D+00 EMaxC= 1.00D-01 BMatC= 1.08D-02 BMatP= 1.08D-02
 IDIUse=3 WtCom= 9.63D-01 WtEn= 3.71D-02
 Coeff-Com:  0.100D+01
 Coeff-En:   0.100D+01
 Coeff:      0.100D+01
 Gap=     1.020 Goal=   None    Shift=    0.000
 Gap=     0.988 Goal=   None    Shift=    0.000
 GapD=    0.988 DampG=2.000 DampE=1.000 DampFc=2.0000 IDamp=-1.
 RMSDP=2.58D-04 MaxDP=1.02D-02              OVMax= 2.30D-02

 Cycle   2  Pass 0  IDiag  1:
 RMSU=  2.58D-04    CP:  1.00D+00
 E= -155.281491726672     Delta-E=       -0.002269219467 Rises=F Damp=F
 DIIS: error= 7.23D-04 at cycle   2 NSaved=   2.
 NSaved= 2 IEnMin= 2 EnMin= -155.281491726672     IErMin= 2 ErrMin= 7.23D-04
 ErrMax= 7.23D-04  0.00D+00 EMaxC= 1.00D-01 BMatC= 2.85D-04 BMatP= 1.08D-02
 IDIUse=3 WtCom= 9.93D-01 WtEn= 7.23D-03
 Coeff-Com: -0.455D-01 0.105D+01
 Coeff-En:   0.000D+00 0.100D+01
 Coeff:     -0.452D-01 0.105D+01
 Gap=     0.302 Goal=   None    Shift=    0.000
 Gap=     0.240 Goal=   None    Shift=    0.000
 RMSDP=8.13D-05 MaxDP=4.02D-03 DE=-2.27D-03 OVMax= 8.19D-03

 Cycle   3  Pass 0  IDiag  1:
 RMSU=  6.77D-05    CP:  9.99D-01  1.17D+00
 E= -155.281622556872     Delta-E=       -0.000130830200 Rises=F Damp=F
 DIIS: error= 4.65D-04 at cycle   3 NSaved=   3.
 NSaved= 3 IEnMin= 3 EnMin= -155.281622556872     IErMin= 3 ErrMin= 4.65D-04
 ErrMax= 4.65D-04  0.00D+00 EMaxC= 1.00D-01 BMatC= 1.27D-04 BMatP= 2.85D-04
 IDIUse=3 WtCom= 9.95D-01 WtEn= 4.65D-03
 Coeff-Com: -0.372D-01 0.392D+00 0.646D+00
 Coeff-En:   0.000D+00 0.000D+00 0.100D+01
 Coeff:     -0.370D-01 0.390D+00 0.647D+00
 Gap=     0.302 Goal=   None    Shift=    0.000
 Gap=     0.241 Goal=   None    Shift=    0.000
 RMSDP=2.74D-05 MaxDP=6.87D-04 DE=-1.31D-04 OVMax= 2.40D-03

 Cycle   4  Pass 0  IDiag  1:
 RMSU=  2.53D-05    CP:  9.99D-01  1.21D+00  9.83D-01
 E= -155.281659137057     Delta-E=       -0.000036580185 Rises=F Damp=F
 DIIS: error= 2.09D-04 at cycle   4 NSaved=   4.
 NSaved= 4 IEnMin= 4 EnMin= -155.281659137057     IErMin= 4 ErrMin= 2.09D-04
 ErrMax= 2.09D-04  0.00D+00 EMaxC= 1.00D-01 BMatC= 2.21D-05 BMatP= 1.27D-04
 IDIUse=3 WtCom= 9.98D-01 WtEn= 2.09D-03
 Coeff-Com: -0.189D-02-0.900D-01 0.207D+00 0.885D+00
 Coeff-En:   0.000D+00 0.000D+00 0.000D+00 0.100D+01
 Coeff:     -0.189D-02-0.899D-01 0.207D+00 0.885D+00
 Gap=     0.302 Goal=   None    Shift=    0.000
 Gap=     0.240 Goal=   None    Shift=    0.000
 RMSDP=1.82D-05 MaxDP=9.90D-04 DE=-3.66D-05 OVMax= 1.36D-03

 Cycle   5  Pass 0  IDiag  1:
 RMSU=  9.28D-06    CP:  9.99D-01  1.24D+00  1.18D+00  1.15D+00
 E= -155.281668190668     Delta-E=       -0.000009053611 Rises=F Damp=F
 DIIS: error= 9.71D-05 at cycle   5 NSaved=   5.
 NSaved= 5 IEnMin= 5 EnMin= -155.281668190668     IErMin= 5 ErrMin= 9.71D-05
 ErrMax= 9.71D-05  0.00D+00 EMaxC= 1.00D-01 BMatC= 6.28D-06 BMatP= 2.21D-05
 IDIUse=1 WtCom= 1.00D+00 WtEn= 0.00D+00
 Coeff-Com:  0.713D-02-0.129D+00-0.343D-01 0.442D+00 0.714D+00
 Coeff:      0.713D-02-0.129D+00-0.343D-01 0.442D+00 0.714D+00
 Gap=     0.302 Goal=   None    Shift=    0.000
 Gap=     0.240 Goal=   None    Shift=    0.000
 RMSDP=8.82D-06 MaxDP=3.08D-04 DE=-9.05D-06 OVMax= 7.42D-04

 Initial convergence to 1.0D-05 achieved.  Increase integral accuracy.
 Cycle   6  Pass 1  IDiag  1:
 E= -155.281704823812     Delta-E=       -0.000036633143 Rises=F Damp=F
 DIIS: error= 3.58D-05 at cycle   1 NSaved=   1.
 NSaved= 1 IEnMin= 1 EnMin= -155.281704823812     IErMin= 1 ErrMin= 3.58D-05
 ErrMax= 3.58D-05  0.00D+00 EMaxC= 1.00D-01 BMatC= 1.36D-06 BMatP= 1.36D-06
 IDIUse=1 WtCom= 1.00D+00 WtEn= 0.00D+00
 Coeff-Com:  0.100D+01
 Coeff:      0.100D+01
 Gap=     0.302 Goal=   None    Shift=    0.000
 Gap=     0.240 Goal=   None    Shift=    0.000
 RMSDP=8.82D-06 MaxDP=3.08D-04 DE=-3.66D-05 OVMax= 1.37D-04

 Cycle   7  Pass 1  IDiag  1:
 RMSU=  6.98D-06    CP:  1.00D+00
 E= -155.281705040241     Delta-E=       -0.000000216429 Rises=F Damp=F
 DIIS: error= 1.04D-05 at cycle   2 NSaved=   2.
 NSaved= 2 IEnMin= 2 EnMin= -155.281705040241     IErMin= 2 ErrMin= 1.04D-05
 ErrMax= 1.04D-05  0.00D+00 EMaxC= 1.00D-01 BMatC= 5.30D-08 BMatP= 1.36D-06
 IDIUse=1 WtCom= 1.00D+00 WtEn= 0.00D+00
 Coeff-Com: -0.375D-02 0.100D+01
 Coeff:     -0.375D-02 0.100D+01
 Gap=     0.302 Goal=   None    Shift=    0.000
 Gap=     0.240 Goal=   None    Shift=    0.000
 RMSDP=8.93D-07 MaxDP=3.96D-05 DE=-2.16D-07 OVMax= 9.07D-05

 Cycle   8  Pass 1  IDiag  1:
 RMSU=  8.40D-07    CP:  1.00D+00  1.04D+00
 E= -155.281705063797     Delta-E=       -0.000000023557 Rises=F Damp=F
 DIIS: error= 9.45D-06 at cycle   3 NSaved=   3.
 NSaved= 3 IEnMin= 3 EnMin= -155.281705063797     IErMin= 3 ErrMin= 9.45D-06
 ErrMax= 9.45D-06  0.00D+00 EMaxC= 1.00D-01 BMatC= 3.28D-08 BMatP= 5.30D-08
 IDIUse=1 WtCom= 1.00D+00 WtEn= 0.00D+00
 Coeff-Com: -0.343D-01 0.429D+00 0.605D+00
 Coeff:     -0.343D-01 0.429D+00 0.605D+00
 Gap=     0.302 Goal=   None    Shift=    0.000
 Gap=     0.240 Goal=   None    Shift=    0.000
 RMSDP=3.58D-07 MaxDP=1.41D-05 DE=-2.36D-08 OVMax= 5.20D-05

 Cycle   9  Pass 1  IDiag  1:
 RMSU=  3.39D-07    CP:  1.00D+00  1.06D+00  1.09D+00
 E= -155.281705075263     Delta-E=       -0.000000011466 Rises=F Damp=F
 DIIS: error= 4.64D-06 at cycle   4 NSaved=   4.
 NSaved= 4 IEnMin= 4 EnMin= -155.281705075263     IErMin= 4 ErrMin= 4.64D-06
 ErrMax= 4.64D-06  0.00D+00 EMaxC= 1.00D-01 BMatC= 4.82D-09 BMatP= 3.28D-08
 IDIUse=1 WtCom= 1.00D+00 WtEn= 0.00D+00
 Coeff-Com: -0.245D-02-0.145D+00 0.821D-01 0.106D+01
 Coeff:     -0.245D-02-0.145D+00 0.821D-01 0.106D+01
 Gap=     0.302 Goal=   None    Shift=    0.000
 Gap=     0.240 Goal=   None    Shift=    0.000
 RMSDP=3.50D-07 MaxDP=1.42D-05 DE=-1.15D-08 OVMax= 6.38D-05

 Cycle  10  Pass 1  IDiag  1:
 RMSU=  1.93D-07    CP:  1.00D+00  1.06D+00  1.39D+00  1.37D+00
 E= -155.281705080721     Delta-E=       -0.000000005457 Rises=F Damp=F
 DIIS: error= 3.32D-06 at cycle   5 NSaved=   5.
 NSaved= 5 IEnMin= 5 EnMin= -155.281705080721     IErMin= 5 ErrMin= 3.32D-06
 ErrMax= 3.32D-06  0.00D+00 EMaxC= 1.00D-01 BMatC= 2.09D-09 BMatP= 4.82D-09
 IDIUse=1 WtCom= 1.00D+00 WtEn= 0.00D+00
 Coeff-Com:  0.964D-02-0.198D+00-0.146D+00 0.513D+00 0.822D+00
 Coeff:      0.964D-02-0.198D+00-0.146D+00 0.513D+00 0.822D+00
 Gap=     0.302 Goal=   None    Shift=    0.000
 Gap=     0.240 Goal=   None    Shift=    0.000
 RMSDP=2.43D-07 MaxDP=9.92D-06 DE=-5.46D-09 OVMax= 4.59D-05

 Cycle  11  Pass 1  IDiag  1:
 RMSU=  1.10D-07    CP:  1.00D+00  1.07D+00  1.59D+00  1.74D+00  1.32D+00
 E= -155.281705083034     Delta-E=       -0.000000002313 Rises=F Damp=F
 DIIS: error= 1.76D-06 at cycle   6 NSaved=   6.
 NSaved= 6 IEnMin= 6 EnMin= -155.281705083034     IErMin= 6 ErrMin= 1.76D-06
 ErrMax= 1.76D-06  0.00D+00 EMaxC= 1.00D-01 BMatC= 3.97D-10 BMatP= 2.09D-09
 IDIUse=1 WtCom= 1.00D+00 WtEn= 0.00D+00
 Coeff-Com:  0.283D-02 0.158D-03-0.472D-01-0.174D+00 0.146D+00 0.107D+01
 Coeff:      0.283D-02 0.158D-03-0.472D-01-0.174D+00 0.146D+00 0.107D+01
 Gap=     0.302 Goal=   None    Shift=    0.000
 Gap=     0.240 Goal=   None    Shift=    0.000
 RMSDP=1.54D-07 MaxDP=6.65D-06 DE=-2.31D-09 OVMax= 3.15D-05

 Cycle  12  Pass 1  IDiag  1:
 RMSU=  4.27D-08    CP:  1.00D+00  1.07D+00  1.68D+00  1.94D+00  1.78D+00
                    CP:  1.50D+00
 E= -155.281705083811     Delta-E=       -0.000000000777 Rises=F Damp=F
 DIIS: error= 8.94D-07 at cycle   7 NSaved=   7.
 NSaved= 7 IEnMin= 7 EnMin= -155.281705083811     IErMin= 7 ErrMin= 8.94D-07
 ErrMax= 8.94D-07  0.00D+00 EMaxC= 1.00D-01 BMatC= 1.13D-10 BMatP= 3.97D-10
 IDIUse=1 WtCom= 1.00D+00 WtEn= 0.00D+00
 Coeff-Com: -0.251D-02 0.582D-01 0.388D-01-0.171D+00-0.224D+00 0.950D-01
 Coeff-Com:  0.120D+01
 Coeff:     -0.251D-02 0.582D-01 0.388D-01-0.171D+00-0.224D+00 0.950D-01
 Coeff:      0.120D+01
 Gap=     0.302 Goal=   None    Shift=    0.000
 Gap=     0.240 Goal=   None    Shift=    0.000
 RMSDP=1.05D-07 MaxDP=4.25D-06 DE=-7.77D-10 OVMax= 2.24D-05

 Cycle  13  Pass 1  IDiag  1:
 RMSU=  2.80D-08    CP:  1.00D+00  1.07D+00  1.73D+00  2.05D+00  2.09D+00
                    CP:  1.95D+00  1.78D+00
 E= -155.281705084081     Delta-E=       -0.000000000271 Rises=F Damp=F
 DIIS: error= 4.33D-07 at cycle   8 NSaved=   8.
 NSaved= 8 IEnMin= 8 EnMin= -155.281705084081     IErMin= 8 ErrMin= 4.33D-07
 ErrMax= 4.33D-07  0.00D+00 EMaxC= 1.00D-01 BMatC= 2.80D-11 BMatP= 1.13D-10
 IDIUse=1 WtCom= 1.00D+00 WtEn= 0.00D+00
 Coeff-Com: -0.116D-02 0.850D-02 0.204D-01 0.310D-01-0.773D-01-0.320D+00
 Coeff-Com:  0.190D+00 0.115D+01
 Coeff:     -0.116D-02 0.850D-02 0.204D-01 0.310D-01-0.773D-01-0.320D+00
 Coeff:      0.190D+00 0.115D+01
 Gap=     0.302 Goal=   None    Shift=    0.000
 Gap=     0.240 Goal=   None    Shift=    0.000
 RMSDP=5.69D-08 MaxDP=2.25D-06 DE=-2.71D-10 OVMax= 1.17D-05

 Cycle  14  Pass 1  IDiag  1:
 RMSU=  1.29D-08    CP:  1.00D+00  1.07D+00  1.75D+00  2.09D+00  2.23D+00
                    CP:  2.22D+00  2.38D+00  1.47D+00
 E= -155.281705084142     Delta-E=       -0.000000000061 Rises=F Damp=F
 DIIS: error= 1.92D-07 at cycle   9 NSaved=   9.
 NSaved= 9 IEnMin= 9 EnMin= -155.281705084142     IErMin= 9 ErrMin= 1.92D-07
 ErrMax= 1.92D-07  0.00D+00 EMaxC= 1.00D-01 BMatC= 6.11D-12 BMatP= 2.80D-11
 IDIUse=1 WtCom= 1.00D+00 WtEn= 0.00D+00
 Coeff-Com:  0.754D-05-0.740D-02 0.505D-04 0.424D-01 0.136D-01-0.127D+00
 Coeff-Com: -0.168D+00 0.405D+00 0.841D+00
 Coeff:      0.754D-05-0.740D-02 0.505D-04 0.424D-01 0.136D-01-0.127D+00
 Coeff:     -0.168D+00 0.405D+00 0.841D+00
 Gap=     0.302 Goal=   None    Shift=    0.000
 Gap=     0.240 Goal=   None    Shift=    0.000
 RMSDP=1.83D-08 MaxDP=6.82D-07 DE=-6.11D-11 OVMax= 3.95D-06

 Cycle  15  Pass 1  IDiag  1:
 RMSU=  5.71D-09    CP:  1.00D+00  1.07D+00  1.76D+00  2.11D+00  2.27D+00
                    CP:  2.28D+00  2.61D+00  1.76D+00  1.15D+00
 E= -155.281705084151     Delta-E=       -0.000000000009 Rises=F Damp=F
 DIIS: error= 1.04D-07 at cycle  10 NSaved=  10.
 NSaved=10 IEnMin=10 EnMin= -155.281705084151     IErMin=10 ErrMin= 1.04D-07
 ErrMax= 1.04D-07  0.00D+00 EMaxC= 1.00D-01 BMatC= 1.61D-12 BMatP= 6.11D-12
 IDIUse=1 WtCom= 1.00D+00 WtEn= 0.00D+00
 Coeff-Com:  0.212D-03-0.485D-02-0.377D-02 0.140D-01 0.198D-01-0.227D-02
 Coeff-Com: -0.112D+00-0.124D-01 0.369D+00 0.732D+00
 Coeff:      0.212D-03-0.485D-02-0.377D-02 0.140D-01 0.198D-01-0.227D-02
 Coeff:     -0.112D+00-0.124D-01 0.369D+00 0.732D+00
 Gap=     0.302 Goal=   None    Shift=    0.000
 Gap=     0.240 Goal=   None    Shift=    0.000
 RMSDP=6.15D-09 MaxDP=2.80D-07 DE=-8.87D-12 OVMax= 1.38D-06

 SCF Done:  E(UM062X) =  -155.281705084     A.U. after   15 cycles
            NFock= 15  Conv=0.62D-08     -V/T= 2.0061
 <Sx>= 0.0000 <Sy>= 0.0000 <Sz>= 0.5000 <S**2>= 0.7729 S= 0.5114
 <L.S>= 0.000000000000E+00
 KE= 1.543342318890D+02 PE=-5.530544920362D+02 EE= 1.466474695419D+02
 Annihilation of the first spin contaminant:
 S**2 before annihilation     0.7729,   after     0.7501
 Leave Link  502 at Mon Oct 12 17:24:33 2020, MaxMem=   268435456 cpu:             337.1 elap:              42.2
 (Enter /home/spantaleone/g16/l508.exe)
 QCSCF skips out because SCF is already converged.
 Leave Link  508 at Mon Oct 12 17:24:33 2020, MaxMem=   268435456 cpu:               0.0 elap:               0.0
 (Enter /home/spantaleone/g16/l701.exe)
 ... and contract with generalized density number  0.
 Compute integral first derivatives.
 Leave Link  701 at Mon Oct 12 17:24:33 2020, MaxMem=   268435456 cpu:               1.4 elap:               0.2
 (Enter /home/spantaleone/g16/l702.exe)
 L702 exits ... SP integral derivatives will be done elsewhere.
 Leave Link  702 at Mon Oct 12 17:24:34 2020, MaxMem=   268435456 cpu:               0.2 elap:               0.0
 (Enter /home/spantaleone/g16/l703.exe)
 Integral derivatives from FoFJK, PRISM(SPDF).
 Compute integral first derivatives, UseDBF=F ICtDFT=           0.
 Calling FoFJK, ICntrl=      2127 FMM=F ISym2X=0 I1Cent= 0 IOpClX= 1 NMat=1 NMatS=1 NMatT=0.
 FoFJK:  IHMeth= 1 ICntrl=    2127 DoSepK=F KAlg= 0 I1Cent=           0 FoldK=F
 IRaf=         0 NMat=       1 IRICut=       1 DoRegI=T DoRafI=F ISym2E= 0 IDoP0=0 IntGTp=1.
 FoFCou: FMM=F IPFlag=           0 FMFlag=      100000 FMFlg1=         800
         NFxFlg=           0 DoJE=F BraDBF=F KetDBF=F FulRan=T
         wScrn=  0.000000 ICntrl=      2127 IOpCl=  1 I1Cent=           0 NGrid=           0
         NMat0=    1 NMatS0=      1 NMatT0=    0 NMatD0=    1 NMtDS0=    0 NMtDT0=    0
 Symmetry not used in FoFCou.
 Leave Link  703 at Mon Oct 12 17:24:40 2020, MaxMem=   268435456 cpu:              48.1 elap:               6.0
 (Enter /home/spantaleone/g16/l716.exe)
 Dipole        = 2.12675030D-01-5.82444312D-06-1.25863421D-01
 -------------------------------------------------------------------
 Center     Atomic                   Forces (Hartrees/Bohr)
 Number     Number              X              Y              Z
 -------------------------------------------------------------------
      1        6          -0.000581515   -0.000000065    0.003872149
      2        6           0.002916082   -0.000000035   -0.005048800
      3        6           0.008545913   -0.000000309   -0.008187421
      4        1           0.000654387   -0.000000021   -0.000380517
      5        1           0.000171385    0.000000004   -0.000731593
      6        6          -0.007849381    0.000000220    0.011358096
      7        1          -0.005241045    0.000000105    0.000197278
      8        1           0.001649739    0.000000016   -0.002584542
      9        1          -0.000265565    0.000000084    0.001505350
 -------------------------------------------------------------------
 Cartesian Forces:  Max     0.011358096 RMS     0.003945905
 Leave Link  716 at Mon Oct 12 17:24:40 2020, MaxMem=   268435456 cpu:               0.2 elap:               0.0
 (Enter /home/spantaleone/g16/l103.exe)

 GradGradGradGradGradGradGradGradGradGradGradGradGradGradGradGradGradGrad
 Berny optimization.
 Using GEDIIS/GDIIS optimizer.
 FormGI is forming the generalized inverse of G from B-inverse, IUseBI=4.
 Internal  Forces:  Max     0.007878190 RMS     0.002423172
 Search for a local minimum.
 Step number   2 out of a maximum of  100
 All quantities printed in internal units (Hartrees-Bohrs-Radians)
 RMS Force = .24232D-02 SwitMx=.10000D-02 MixMth= 1
 Mixed Optimization -- RFO/linear search
 Update second derivatives using D2CorX and points    1    2
 DE= -5.71D-03 DEPred=-5.10D-03 R= 1.12D+00
 TightC=F SS=  1.41D+00  RLast= 2.28D-01 DXNew= 5.0454D-01 6.8510D-01
 Trust test= 1.12D+00 RLast= 2.28D-01 DXMaxT set to 5.05D-01
 ITU=  1  0
 Use linear search instead of GDIIS.
     Eigenvalues ---    0.01111   0.01745   0.02057   0.02949   0.02949
     Eigenvalues ---    0.02993   0.13346   0.16000   0.16000   0.16000
     Eigenvalues ---    0.16100   0.21835   0.22231   0.34958   0.35189
     Eigenvalues ---    0.35246   0.35288   0.35362   0.36144   0.57721
     Eigenvalues ---    0.58490
 RFO step:  Lambda=-2.73937449D-04 EMin= 1.11102812D-02
 Quartic linear search produced a step of  0.30474.
 Iteration  1 RMS(Cart)=  0.01866075 RMS(Int)=  0.00058419
 Iteration  2 RMS(Cart)=  0.00060975 RMS(Int)=  0.00000010
 Iteration  3 RMS(Cart)=  0.00000016 RMS(Int)=  0.00000001
 ITry= 1 IFail=0 DXMaxC= 4.88D-02 DCOld= 1.00D+10 DXMaxT= 5.05D-01 DXLimC= 3.00D+00 Rises=F
 Variable       Old X    -DE/DX   Delta X   Delta X   Delta X     New X
                                 (Linear)    (Quad)   (Total)
    R1        2.51621  -0.00276  -0.00197  -0.00442  -0.00639   2.50982
    R2        2.04283  -0.00038  -0.00242   0.00073  -0.00169   2.04114
    R3        2.04502   0.00054  -0.00225   0.00396   0.00171   2.04673
    R4        2.76460  -0.00204  -0.00631  -0.00200  -0.00831   2.75629
    R5        2.04484   0.00101  -0.00279   0.00617   0.00338   2.04822
    R6        2.49492  -0.00788  -0.00654  -0.01155  -0.01809   2.47682
    R7        2.04984  -0.00389  -0.00025  -0.01410  -0.01435   2.03549
    R8        2.05281   0.00273  -0.00024   0.01031   0.01007   2.06288
    A1        2.11553   0.00054   0.00659  -0.00114   0.00545   2.12098
    A2        2.11221   0.00027  -0.00084   0.00289   0.00204   2.11426
    A3        2.05544  -0.00081  -0.00574  -0.00175  -0.00749   2.04795
    A4        2.15234   0.00028   0.01153  -0.00823   0.00330   2.15564
    A5        2.09234   0.00103   0.00432   0.00521   0.00953   2.10187
    A6        2.03851  -0.00132  -0.01585   0.00301  -0.01283   2.02568
    A7        2.30180   0.00723   0.06031   0.00820   0.06851   2.37032
    A8        2.16244   0.00205   0.01961  -0.00471   0.01489   2.17734
    A9        2.05357  -0.00246  -0.01450  -0.00539  -0.01989   2.03368
   A10        2.06717   0.00041  -0.00511   0.01011   0.00499   2.07216
    D1       -3.14159  -0.00000  -0.00000  -0.00000  -0.00000  -3.14159
    D2        0.00000  -0.00000   0.00000  -0.00000   0.00000   0.00000
    D3        0.00000  -0.00000   0.00000  -0.00000  -0.00000   0.00000
    D4       -3.14159  -0.00000   0.00000  -0.00000   0.00000  -3.14159
    D5        3.14158   0.00000   0.00000   0.00001   0.00001   3.14159
    D6       -0.00001   0.00000   0.00000   0.00001   0.00001  -0.00000
    D7       -0.00001   0.00000   0.00000   0.00001   0.00001  -0.00000
    D8        3.14158   0.00000   0.00000   0.00001   0.00001   3.14159
    D9       -3.14159   0.00000  -0.00000   0.00000  -0.00000  -3.14159
   D10        0.00000  -0.00000   0.00000  -0.00000  -0.00000   0.00000
         Item               Value     Threshold  Converged?
 Maximum Force            0.007878     0.000450     NO 
 RMS     Force            0.002423     0.000300     NO 
 Maximum Displacement     0.048774     0.001800     NO 
 RMS     Displacement     0.018582     0.001200     NO 
 Predicted change in Energy=-3.861452D-04
 Lowest energy point so far.  Saving SCF results.
 GradGradGradGradGradGradGradGradGradGradGradGradGradGradGradGradGradGrad

 Leave Link  103 at Mon Oct 12 17:24:40 2020, MaxMem=   268435456 cpu:               0.1 elap:               0.0
 (Enter /home/spantaleone/g16/l202.exe)
                          Input orientation:                          
 ---------------------------------------------------------------------
 Center     Atomic      Atomic             Coordinates (Angstroms)
 Number     Number       Type             X           Y           Z
 ---------------------------------------------------------------------
[...]
 DD1Dir:  Pass   6 NRAB=     0 NRAA=     5 NRBB=    45 NR=    50.
 A-vector RMS=  1.2881637D-07 Max=  1.7191594D-06 conv= 1.00D-05.
 RLE energy=       -0.6592185848
 DE(Corr)= -0.65921851     E(CORR)=     -154.98580637     Delta=-1.35D-07
 NORM(A)=   0.11268555D+01
 Iteration Nr.  17
 **********************
 DD1Dir will call FoFJK   6 times, MxPair=        54
 NAB=   110 NAA=    55 NBB=    45 NumPrc=  8.
 DD1Dir:  Pass   1 NRAB=    27 NRAA=     0 NRBB=     0 NR=    54.
 DD1Dir:  Pass   2 NRAB=    27 NRAA=     0 NRBB=     0 NR=    54.
 DD1Dir:  Pass   3 NRAB=    27 NRAA=     0 NRBB=     0 NR=    54.
 DD1Dir:  Pass   4 NRAB=    27 NRAA=     0 NRBB=     0 NR=    54.
 DD1Dir:  Pass   5 NRAB=     2 NRAA=    50 NRBB=     0 NR=    54.
 DD1Dir:  Pass   6 NRAB=     0 NRAA=     5 NRBB=    45 NR=    50.
 A-vector RMS=  6.1357425D-08 Max=  9.2566143D-07 conv= 1.00D-05.
 RLE energy=       -0.6592186411
 DE(Corr)= -0.65921863     E(CORR)=     -154.98580649     Delta=-1.20D-07
 NORM(A)=   0.11268557D+01
 Iteration Nr.  18
 **********************
 DD1Dir will call FoFJK   6 times, MxPair=        54
 NAB=   110 NAA=    55 NBB=    45 NumPrc=  8.
 DD1Dir:  Pass   1 NRAB=    27 NRAA=     0 NRBB=     0 NR=    54.
 DD1Dir:  Pass   2 NRAB=    27 NRAA=     0 NRBB=     0 NR=    54.
 DD1Dir:  Pass   3 NRAB=    27 NRAA=     0 NRBB=     0 NR=    54.
 DD1Dir:  Pass   4 NRAB=    27 NRAA=     0 NRBB=     0 NR=    54.
 DD1Dir:  Pass   5 NRAB=     2 NRAA=    50 NRBB=     0 NR=    54.
 DD1Dir:  Pass   6 NRAB=     0 NRAA=     5 NRBB=    45 NR=    50.
 A-vector RMS=  3.3952458D-08 Max=  4.5678964D-07 conv= 1.00D-05.
 RLE energy=       -0.6592186267
 DE(Corr)= -0.65921863     E(CORR)=     -154.98580649     Delta=-1.62D-09
 NORM(A)=   0.11268557D+01
 CI/CC converged in   18 iterations to DelEn=-1.62D-09 Conv= 1.00D-07 ErrA1= 3.40D-08 Conv= 1.00D-05
 Wavefunction amplitudes converged. E(Corr)=     -154.98580649    
 Largest amplitude= 4.09D-02
 Time for triples=    18306.75 seconds.
 T4(CCSD)= -0.32819957D-01
 T5(CCSD)=  0.83733001D-03
 CCSD(T)= -0.15501778912D+03
 Discarding MO integrals.
 Leave Link  913 at Mon Oct 12 19:07:21 2020, MaxMem=   327680000 cpu:           42707.8 elap:            5342.6
 (Enter /home/spantaleone/g16/l601.exe)
 Copying SCF densities to generalized density rwf, IOpCl= 0 IROHF=1.

 **********************************************************************

            Population analysis using the SCF Density.

 **********************************************************************

 Orbital symmetries:
       Occupied  (A) (A) (A) (A) (A) (A) (A) (A) (A) (A) (A) (A)
                 (A) (A) (A)
       Virtual   (A) (A) (A) (A) (A) (A) (A) (A) (A) (A) (A) (A)
                 (A) (A) (A) (A) (A) (A) (A) (A) (A) (A) (A) (A)
                 (A) (A) (A) (A) (A) (A) (A) (A) (A) (A) (A) (A)
                 (A) (A) (A) (A) (A) (A) (A) (A) (A) (A) (A) (A)
                 (A) (A) (A) (A) (A) (A) (A) (A) (A) (A) (A) (A)
                 (A) (A) (A) (A) (A) (A) (A) (A) (A) (A) (A) (A)
                 (A) (A) (A) (A) (A) (A) (A) (A) (A) (A) (A) (A)
                 (A) (A) (A) (A) (A) (A) (A) (A) (A) (A) (A) (A)
                 (A) (A) (A) (A) (A) (A) (A) (A) (A) (A) (A) (A)
                 (A) (A) (A) (A) (A) (A) (A) (A) (A) (A) (A) (A)
                 (A) (A) (A) (A) (A) (A) (A) (A) (A) (A) (A) (A)
                 (A) (A) (A) (A) (A) (A) (A) (A) (A) (A) (A) (A)
                 (A) (A) (A) (A) (A) (A) (A) (A) (A) (A) (A) (A)
                 (A) (A) (A) (A) (A) (A) (A) (A) (A) (A) (A) (A)
                 (A) (A) (A) (A) (A) (A) (A) (A) (A) (A) (A) (A)
                 (A) (A) (A) (A) (A) (A) (A) (A) (A) (A) (A) (A)
                 (A) (A) (A) (A) (A) (A) (A) (A) (A) (A) (A) (A)
                 (A) (A) (A) (A) (A) (A) (A) (A) (A) (A) (A) (A)
                 (A) (A) (A) (A) (A) (A) (A) (A) (A) (A) (A) (A)
                 (A) (A) (A) (A) (A) (A) (A) (A) (A) (A) (A) (A)
                 (A) (A) (A) (A) (A) (A) (A) (A) (A) (A) (A) (A)
                 (A) (A) (A) (A) (A) (A) (A) (A) (A) (A) (A) (A)
                 (A) (A) (A) (A) (A) (A) (A) (A) (A) (A) (A) (A)
                 (A) (A) (A) (A) (A) (A) (A) (A)
 The electronic state is 2-A.
 Alpha  occ. eigenvalues --  -11.26025 -11.24550 -11.24211 -11.22982  -1.10374
 Alpha  occ. eigenvalues --   -1.01241  -0.82787  -0.75227  -0.66809  -0.62344
 Alpha  occ. eigenvalues --   -0.57793  -0.51964  -0.45617  -0.40104  -0.33737
 Alpha virt. eigenvalues --    0.03105   0.03410   0.03946   0.05408   0.06029
 Alpha virt. eigenvalues --    0.07650   0.09630   0.09792   0.11087   0.11116
 Alpha virt. eigenvalues --    0.11388   0.11598   0.12549   0.13861   0.14233
 Alpha virt. eigenvalues --    0.14754   0.15644   0.16977   0.17349   0.20981
 Alpha virt. eigenvalues --    0.21782   0.22034   0.24054   0.25912   0.26536
 Alpha virt. eigenvalues --    0.27336   0.28689   0.29537   0.30272   0.30507
 Alpha virt. eigenvalues --    0.31021   0.32478   0.33593   0.34930   0.35418
 Alpha virt. eigenvalues --    0.35951   0.37205   0.37805   0.38776   0.39304
 Alpha virt. eigenvalues --    0.39318   0.41103   0.41957   0.43886   0.44261
 Alpha virt. eigenvalues --    0.45092   0.45785   0.46581   0.46794   0.47917
 Alpha virt. eigenvalues --    0.48402   0.48535   0.48866   0.51369   0.52329
 Alpha virt. eigenvalues --    0.53739   0.55340   0.56091   0.57186   0.58533
 Alpha virt. eigenvalues --    0.59813   0.62013   0.62673   0.65686   0.65959
 Alpha virt. eigenvalues --    0.71001   0.72718   0.74277   0.74998   0.75735
 Alpha virt. eigenvalues --    0.77975   0.78986   0.79793   0.81130   0.83457
 Alpha virt. eigenvalues --    0.85225   0.87707   0.88457   0.90142   0.90453
 Alpha virt. eigenvalues --    0.90700   0.91998   0.92320   0.93183   0.93843
 Alpha virt. eigenvalues --    0.94870   0.95393   0.96101   0.98172   0.98380
 Alpha virt. eigenvalues --    0.99708   0.99759   1.00955   1.02754   1.03223
 Alpha virt. eigenvalues --    1.04492   1.05168   1.06374   1.08862   1.09316
 Alpha virt. eigenvalues --    1.11166   1.11845   1.12589   1.14796   1.15287
 Alpha virt. eigenvalues --    1.15996   1.17476   1.17547   1.19760   1.21035
 Alpha virt. eigenvalues --    1.21637   1.22227   1.23166   1.26816   1.27378
 Alpha virt. eigenvalues --    1.27853   1.31792   1.33593   1.38798   1.39462
 Alpha virt. eigenvalues --    1.40092   1.40530   1.46016   1.46465   1.50672
 Alpha virt. eigenvalues --    1.51592   1.54774   1.54999   1.58158   1.59745
 Alpha virt. eigenvalues --    1.62482   1.63378   1.66544   1.67275   1.69891
 Alpha virt. eigenvalues --    1.70540   1.73341   1.74021   1.75132   1.78718
 Alpha virt. eigenvalues --    1.81317   1.82019   1.82507   1.85349   1.86605
 Alpha virt. eigenvalues --    1.88723   1.89073   1.92310   1.93479   1.94003
 Alpha virt. eigenvalues --    2.00270   2.02215   2.03638   2.03993   2.09031
 Alpha virt. eigenvalues --    2.09652   2.10768   2.13703   2.14182   2.15172
 Alpha virt. eigenvalues --    2.19660   2.23536   2.26023   2.27357   2.30968
 Alpha virt. eigenvalues --    2.32650   2.34687   2.38944   2.39624   2.46508
 Alpha virt. eigenvalues --    2.58096   2.65733   2.76680   2.88169   2.89656
 Alpha virt. eigenvalues --    3.00384   3.02226   3.09593   3.15026   3.19285
 Alpha virt. eigenvalues --    3.23563   3.23614   3.25309   3.30813   3.30939
 Alpha virt. eigenvalues --    3.32193   3.36714   3.37204   3.39813   3.40909
 Alpha virt. eigenvalues --    3.44771   3.45920   3.48338   3.50203   3.51587
 Alpha virt. eigenvalues --    3.53621   3.54639   3.55655   3.59007   3.60716
 Alpha virt. eigenvalues --    3.61086   3.63349   3.65850   3.68917   3.69009
 Alpha virt. eigenvalues --    3.73073   3.78134   3.79270   3.80462   3.83526
 Alpha virt. eigenvalues --    3.84941   3.85432   3.87246   3.91905   3.96494
 Alpha virt. eigenvalues --    3.98181   3.99640   4.00853   4.02277   4.09271
 Alpha virt. eigenvalues --    4.10409   4.10899   4.15286   4.17056   4.20514
 Alpha virt. eigenvalues --    4.22165   4.24513   4.26435   4.27749   4.28445
 Alpha virt. eigenvalues --    4.34961   4.36056   4.42484   4.43421   4.43646
 Alpha virt. eigenvalues --    4.51469   4.52573   4.64830   4.70725   4.70985
 Alpha virt. eigenvalues --    4.75912   4.77726   4.79429   4.83603   4.86158
 Alpha virt. eigenvalues --    4.87978   4.90395   4.92305   4.93969   5.00857
 Alpha virt. eigenvalues --    5.01647   5.03418   5.06140   5.11155   5.15290
 Alpha virt. eigenvalues --    5.18735   5.22470   5.26694   5.28315   5.36954
 Alpha virt. eigenvalues --    5.42203   5.44729   5.45278   5.51896   5.55556
 Alpha virt. eigenvalues --    5.59425   5.60551   5.66517   5.83451   5.86457
 Alpha virt. eigenvalues --    5.90810   6.02605   6.24905   6.32823   6.43368
 Alpha virt. eigenvalues --    6.53122   6.68537   6.74837   6.85015   7.07184
 Alpha virt. eigenvalues --   16.47460  17.10126  17.65187  19.21699
          Condensed to atoms (all electrons):
               1          2          3          4          5          6
     1  C    6.364653   0.235731   0.025632   0.294666   0.437943  -0.176484
     2  C    0.235731   5.661027  -0.124362  -0.037767  -0.012348   0.165602
     3  C    0.025632  -0.124362   7.034449  -0.009002   0.014926   0.016550
     4  H    0.294666  -0.037767  -0.009002   0.463182  -0.100145   0.043075
     5  H    0.437943  -0.012348   0.014926  -0.100145   0.336576  -0.064468
     6  C   -0.176484   0.165602   0.016550   0.043075  -0.064468   5.418040
     7  H    0.004837  -0.017777   0.216569  -0.000220   0.000525   0.029501
     8  H   -0.047895   0.024809  -0.111075   0.014023  -0.029936   0.359612
     9  H   -0.066565   0.312163   0.048844  -0.068419   0.030122  -0.056888
               7          8          9
     1  C    0.004837  -0.047895  -0.066565
     2  C   -0.017777   0.024809   0.312163
     3  C    0.216569  -0.111075   0.048844
     4  H   -0.000220   0.014023  -0.068419
     5  H    0.000525  -0.029936   0.030122
     6  C    0.029501   0.359612  -0.056888
     7  H    0.264987  -0.023035   0.003633
     8  H   -0.023035   0.427086  -0.034704
     9  H    0.003633  -0.034704   0.434654
          Atomic-Atomic Spin Densities.
               1          2          3          4          5          6
     1  C    0.016889   0.005730  -0.013690  -0.018816   0.009804   0.002435
     2  C    0.005730   0.047497  -0.015694  -0.001104   0.003419   0.006314
     3  C   -0.013690  -0.015694   1.302748   0.008424  -0.007673  -0.156004
     4  H   -0.018816  -0.001104   0.008424   0.029841  -0.016134   0.002996
     5  H    0.009804   0.003419  -0.007673  -0.016134   0.017348  -0.001334
     6  C    0.002435   0.006314  -0.156004   0.002996  -0.001334   0.056219
     7  H    0.001502   0.005102  -0.031043   0.000142   0.000168   0.006864
     8  H   -0.014536  -0.040135   0.001944   0.006631  -0.015894  -0.009975
     9  H    0.006905   0.006057  -0.066918  -0.012228   0.007207   0.017252
               7          8          9
     1  C    0.001502  -0.014536   0.006905
     2  C    0.005102  -0.040135   0.006057
     3  C   -0.031043   0.001944  -0.066918
     4  H    0.000142   0.006631  -0.012228
     5  H    0.000168  -0.015894   0.007207
     6  C    0.006864  -0.009975   0.017252
     7  H    0.052897  -0.011657   0.002062
     8  H   -0.011657   0.136881  -0.015811
     9  H    0.002062  -0.015811   0.035056
 Mulliken charges and spin densities:
               1          2
     1  C   -1.072517  -0.003778
     2  C   -0.207077   0.017186
     3  C   -1.112531   1.022094
     4  H    0.400606  -0.000248
     5  H    0.386806  -0.003088
     6  C    0.265459  -0.075232
     7  H    0.520980   0.026036
     8  H    0.421114   0.037449
     9  H    0.397160  -0.020419
 Sum of Mulliken charges =  -0.00000   1.00000
 Mulliken charges and spin densities with hydrogens summed into heavy atoms:
               1          2
     1  C   -0.285105  -0.007114
     2  C    0.190083  -0.003232
     3  C   -0.591551   1.048130
     6  C    0.686573  -0.037784
 Electronic spatial extent (au):  <R**2>=            313.3610
 Charge=             -0.0000 electrons
 Dipole moment (field-independent basis, Debye):
    X=             -0.0126    Y=              0.5729    Z=              0.0000  Tot=              0.5730
 Quadrupole moment (field-independent basis, Debye-Ang):
   XX=            -21.6820   YY=            -23.4583   ZZ=            -28.8041
   XY=             -0.9939   XZ=              0.0000   YZ=              0.0000
 Traceless Quadrupole moment (field-independent basis, Debye-Ang):
   XX=              2.9662   YY=              1.1898   ZZ=             -4.1559
   XY=             -0.9939   XZ=              0.0000   YZ=              0.0000
 Octapole moment (field-independent basis, Debye-Ang**2):
  XXX=             -4.0271  YYY=              2.1064  ZZZ=              0.0000  XYY=              2.9577
  XXY=              2.3495  XXZ=              0.0000  XZZ=              0.3429  YZZ=              0.2585
  YYZ=             -0.0000  XYZ=              0.0000
 Hexadecapole moment (field-independent basis, Debye-Ang**3):
 XXXX=           -300.2323 YYYY=            -58.9257 ZZZZ=            -36.7986 XXXY=            -10.5037
 XXXZ=             -0.0000 YYYX=             -2.5945 YYYZ=              0.0000 ZZZX=              0.0000
 ZZZY=              0.0000 XXYY=            -70.2578 XXZZ=            -73.8766 YYZZ=            -17.8290
 XXYZ=              0.0000 YYXZ=              0.0000 ZZXY=              0.0417
 N-N= 9.696812958189D+01 E-N=-5.528203745040D+02  KE= 1.541634373881D+02
                          Isotropic Fermi Contact Couplings
        Atom                 a.u.       MegaHertz       Gauss      10(-4) cm-1
     1  C(13)              0.00034       0.38279       0.13659       0.12768
     2  C(13)              0.02130      23.94468       8.54406       7.98709
     3  C(13)              0.26517     298.09891     106.36911      99.43509
     4  H(1)               0.00003       0.11430       0.04079       0.03813
     5  H(1)               0.00002       0.06965       0.02485       0.02323
     6  C(13)              0.02724      30.62847      10.92900      10.21656
     7  H(1)               0.01414      63.19556      22.54975      21.07977
     8  H(1)               0.01294      57.85182      20.64297      19.29729
     9  H(1)               0.00000       0.00049       0.00017       0.00016
 --------------------------------------------------------
       Center         ----  Spin Dipole Couplings  ----
                      3XX-RR        3YY-RR        3ZZ-RR
 --------------------------------------------------------
     1   Atom        0.006401     -0.002221     -0.004180
     2   Atom        0.031398     -0.014168     -0.017230
     3   Atom       -0.515112      1.032505     -0.517393
     4   Atom        0.003270     -0.001501     -0.001769
     5   Atom        0.003713     -0.001129     -0.002584
     6   Atom        0.049653      0.004724     -0.054377
     7   Atom        0.056461      0.000377     -0.056838
     8   Atom       -0.000290      0.013106     -0.012816
     9   Atom        0.012582     -0.003211     -0.009371
 --------------------------------------------------------
                        XY            XZ            YZ
 --------------------------------------------------------
     1   Atom        0.002513      0.000000      0.000000
     2   Atom       -0.005400     -0.000000     -0.000000
     3   Atom       -0.011915      0.000000     -0.000000
     4   Atom       -0.000086      0.000000     -0.000000
     5   Atom        0.002097      0.000000      0.000000
     6   Atom        0.050129     -0.000000     -0.000000
     7   Atom       -0.025370     -0.000000     -0.000000
     8   Atom        0.012026     -0.000000     -0.000000
     9   Atom       -0.008039     -0.000000      0.000000
 --------------------------------------------------------


 ---------------------------------------------------------------------------------
              Anisotropic Spin Dipole Couplings in Principal Axis System
 ---------------------------------------------------------------------------------

       Atom             a.u.   MegaHertz   Gauss  10(-4) cm-1        Axes

              Baa    -0.0042    -0.561    -0.200    -0.187 -0.0000 -0.0000  1.0000
     1 C(13)  Bbb    -0.0029    -0.389    -0.139    -0.130 -0.2608  0.9654  0.0000
              Bcc     0.0071     0.950     0.339     0.317  0.9654  0.2608  0.0000
 
              Baa    -0.0172    -2.312    -0.825    -0.771  0.0000  0.0000  1.0000
     2 C(13)  Bbb    -0.0148    -1.986    -0.709    -0.662  0.1161  0.9932 -0.0000
              Bcc     0.0320     4.298     1.534     1.434  0.9932 -0.1161 -0.0000
 
              Baa    -0.5174   -69.429   -24.774   -23.159  0.0000  0.0000  1.0000
     3 C(13)  Bbb    -0.5152   -69.135   -24.669   -23.061  1.0000  0.0077 -0.0000
              Bcc     1.0326   138.565    49.443    46.220 -0.0077  1.0000 -0.0000
 
              Baa    -0.0018    -0.944    -0.337    -0.315 -0.0000  0.0000  1.0000
     4 H(1)   Bbb    -0.0015    -0.802    -0.286    -0.267  0.0180  0.9998 -0.0000
              Bcc     0.0033     1.746     0.623     0.582  0.9998 -0.0180  0.0000
 
              Baa    -0.0026    -1.378    -0.492    -0.460 -0.0000  0.0000  1.0000
     5 H(1)   Bbb    -0.0019    -1.020    -0.364    -0.340 -0.3494  0.9370 -0.0000
              Bcc     0.0045     2.398     0.856     0.800  0.9370  0.3494  0.0000
 
              Baa    -0.0544    -7.297    -2.604    -2.434  0.0000  0.0000  1.0000
     6 C(13)  Bbb    -0.0277    -3.723    -1.328    -1.242 -0.5436  0.8393 -0.0000
              Bcc     0.0821    11.020     3.932     3.676  0.8393  0.5436 -0.0000
 
              Baa    -0.0568   -30.326   -10.821   -10.116  0.0000  0.0000  1.0000
     7 H(1)   Bbb    -0.0094    -5.013    -1.789    -1.672  0.3595  0.9332 -0.0000
              Bcc     0.0662    35.339    12.610    11.788  0.9332 -0.3595 -0.0000
 
              Baa    -0.0128    -6.838    -2.440    -2.281  0.0000  0.0000  1.0000
     8 H(1)   Bbb    -0.0074    -3.926    -1.401    -1.309  0.8621 -0.5067 -0.0000
              Bcc     0.0202    10.763     3.841     3.590  0.5067  0.8621 -0.0000
 
              Baa    -0.0094    -5.000    -1.784    -1.668  0.0000  0.0000  1.0000
     9 H(1)   Bbb    -0.0066    -3.512    -1.253    -1.172  0.3868  0.9222 -0.0000
              Bcc     0.0160     8.512     3.037     2.839  0.9222 -0.3868 -0.0000
 

 ---------------------------------------------------------------------------------

 No NMR shielding tensors so no spin-rotation constants.
 Leave Link  601 at Mon Oct 12 19:07:22 2020, MaxMem=   327680000 cpu:               5.2 elap:               0.8
 (Enter /home/spantaleone/g16/l9999.exe)
 1\1\GINC-N1956\SP\ROCCSD(T)-FC\Aug-CC-pVTZ\C4H5(2)\SPANTALEONE\12-Oct-
 2020\0\\#P ROCCSD(T)/aug-cc-pvtz geom=allcheck guess=read\\Title\\0,2\
 C,0,-0.0132194684,-0.0000023595,-0.0109511148\C,0,0.0191175311,0.00000
 45681,1.3171277961\C,0,1.3207575419,-0.0000083771,3.3992361284\H,0,-0.
 9475462049,0.0000121773,-0.5537450257\H,0,0.8999032014,-0.0000229941,-
 0.5935845866\C,0,1.2599391808,-0.0000144833,2.0896926556\H,0,2.0972475
 843,-0.0000188715,4.1455750688\H,0,2.187644389,-0.0000351479,1.5135423
 732\H,0,-0.9021386729,0.0000252405,1.8880039081\\Version=ES64L-G16RevB
 .01\State=2-A\HF=-154.3265879\MP2=-154.9498343\MP3=-154.9829139\PUHF=-
 154.3265879\PMP2-0=-154.9498343\MP4SDQ=-154.9851372\CCSD=-154.9858065\
 CCSD(T)=-155.0177891\RMSD=8.192e-09\PG=C01 [X(C4H5)]\\@


 EVERYTHING'S GOT A MORAL, IF ONLY YOU CAN FIND IT.

                                    -- LEWIS CARROL, ALICE IN WONDERLAND
 Job cpu time:       0 days 12 hours 46 minutes 26.0 seconds.
 Elapsed time:       0 days  1 hours 35 minutes 52.9 seconds.
 File lengths (MBytes):  RWF=  24815 Int=      0 D2E=      0 Chk=     12 Scr=      1
 Normal termination of Gaussian 16 at Mon Oct 12 19:07:28 2020.
