$hessian                                                                        
        0.7085262046  -0.0823849446  -0.0303685510  -0.6139584934   0.0718124623
        0.0353426639  -0.0112344080   0.0023747112  -0.0211115873  -0.0407402893
        0.0077866842   0.0084460532  -0.0425930140   0.0004110869   0.0076914212
       -0.0823849446   0.0197008454   0.0036230376   0.0717067105  -0.0147968745
       -0.0044263904   0.0027829489   0.0116268225   0.0023906470   0.0088078128
       -0.0091314412   0.0028961558  -0.0009125275  -0.0073993522  -0.0044834500
       -0.0303685510   0.0036230376   0.0134873421   0.0283514088  -0.0036225987
       -0.0232316842   0.0018915671  -0.0003074101   0.0074576646   0.0001596738
        0.0016713009   0.0010487438  -0.0000340987  -0.0013643297   0.0012379336
       -0.6139584934   0.0717067105   0.0283514088   0.8014268707  -0.0829778144
       -0.0219691479  -0.0969077007   0.0172246788   0.0757117715  -0.0324030422
        0.0723262805  -0.0400541252  -0.0581576345  -0.0782798553  -0.0420399071
        0.0718124623  -0.0147968745  -0.0036225987  -0.0829778144   0.1060269593
        0.0019774794   0.0162347738   0.0368148420  -0.0094997836   0.0301279854
       -0.0763337162   0.0258620636  -0.0351974071  -0.0517112106  -0.0147171608
        0.0353426639  -0.0044263904  -0.0232316842  -0.0219691479   0.0019774794
        0.0633240775   0.0208809704  -0.0031169057   0.0018044179  -0.0167056207
        0.0114854443  -0.0214662127  -0.0175488657  -0.0059196277  -0.0204305985
       -0.0112344080   0.0027829489   0.0018915671  -0.0969077007   0.0162347738
        0.0208809704   0.2292378480   0.0310603846  -0.1795285653  -0.0907478869
       -0.1879653485   0.1001195196  -0.0303478525   0.1378872413   0.0566365081
        0.0023747112   0.0116268225  -0.0003074101   0.0172246788   0.0368148420
       -0.0031169057   0.0310603846   0.5194773254   0.0158693064  -0.1166465869
       -0.2473395739   0.1541760637   0.0659868123  -0.3205794160  -0.1666210544
       -0.0211115873   0.0023906470   0.0074576646   0.0757117715  -0.0094997836
        0.0018044179  -0.1795285653   0.0158693064   0.2340462490   0.0872214244
        0.1925391285  -0.1280546980   0.0377069567  -0.2012992984  -0.1152536335
       -0.0407402893   0.0088078128   0.0001596738  -0.0324030422   0.0301279854
       -0.0167056207  -0.0907478869  -0.1166465869   0.0872214244   0.1399713654
        0.1028206651  -0.0723589521   0.0239198529  -0.0251098764   0.0016834745
        0.0077866842  -0.0091314412   0.0016713009   0.0723262805  -0.0763337162
        0.0114854443  -0.1879653485  -0.2473395739   0.1925391285   0.1028206651
        0.3933422975  -0.1954775334   0.0050317188  -0.0605375661  -0.0102183403
        0.0084460532   0.0028961558   0.0010487438  -0.0400541252   0.0258620636
       -0.0214662127   0.1001195196   0.1541760637  -0.1280546980  -0.0723589521
       -0.1954775334   0.1287429576   0.0038475043   0.0125432503   0.0197292094
       -0.0425930140  -0.0009125275  -0.0000340987  -0.0581576345  -0.0351974071
       -0.0175488657  -0.0303478525   0.0659868123   0.0377069567   0.0239198529
        0.0050317188   0.0038475043   0.1071786480  -0.0349085965  -0.0239714966
        0.0004110869  -0.0073993522  -0.0013643297  -0.0782798553  -0.0517112106
       -0.0059196277   0.1378872413  -0.3205794160  -0.2012992984  -0.0251098764
       -0.0605375661   0.0125432503  -0.0349085965   0.4402275448   0.1960400055
        0.0076914212  -0.0044834500   0.0012379336  -0.0420399071  -0.0147171608
       -0.0204305985   0.0566365081  -0.1666210544  -0.1152536335   0.0016834745
       -0.0102183403   0.0197292094  -0.0239714966   0.1960400055   0.1147170890
