[Molden Format]
[Title]
[Atoms] AU
C      1     6  0.33638048154090E+01 -0.39516515037036E+00 -0.86985606604636E-01
C      2     6  0.98365049085869E+00 -0.11506417017410E+00  0.15591098986743E-02
C      3     6 -0.21053864361204E+01  0.26128342803796E+00  0.83327220181115E+00
C      4     6 -0.88812055878597E+00  0.21150800509544E+01 -0.40958752522089E+00
C      5     6 -0.13539483113679E+01 -0.18661341584512E+01 -0.33826006961024E+00
[GTO]
           1 0
 s           4   1.0000000000000000     
   51.049363095579913      -0.16312063210127389     
   8.7911227406887544      -0.19911024581000730     
  0.70640422258929825       0.31882047753655751     
  0.26922813413411617       0.12706504184240380     
 p           4   1.0000000000000000     
   5.8263656140800002       0.73716451545209605     
   1.5106896018720002       0.68216371614850257     
  0.53256483288000001       0.35783053929253711     
  0.21202323690600003        5.3983030275847881E-002

           2 0
 s           4   1.0000000000000000     
   51.049363095579913      -0.16312063210127389     
   8.7911227406887544      -0.19911024581000730     
  0.70640422258929825       0.31882047753655751     
  0.26922813413411617       0.12706504184240380     
 p           4   1.0000000000000000     
   5.8263656140800002       0.73716451545209605     
   1.5106896018720002       0.68216371614850257     
  0.53256483288000001       0.35783053929253711     
  0.21202323690600003        5.3983030275847881E-002

           3 0
 s           4   1.0000000000000000     
   51.049363095579913      -0.16312063210127389     
   8.7911227406887544      -0.19911024581000730     
  0.70640422258929825       0.31882047753655751     
  0.26922813413411617       0.12706504184240380     
 p           4   1.0000000000000000     
   5.8263656140800002       0.73716451545209605     
   1.5106896018720002       0.68216371614850257     
  0.53256483288000001       0.35783053929253711     
  0.21202323690600003        5.3983030275847881E-002

           4 0
 s           4   1.0000000000000000     
   51.049363095579913      -0.16312063210127389     
   8.7911227406887544      -0.19911024581000730     
  0.70640422258929825       0.31882047753655751     
  0.26922813413411617       0.12706504184240380     
 p           4   1.0000000000000000     
   5.8263656140800002       0.73716451545209605     
   1.5106896018720002       0.68216371614850257     
  0.53256483288000001       0.35783053929253711     
  0.21202323690600003        5.3983030275847881E-002

           5 0
 s           4   1.0000000000000000     
   51.049363095579913      -0.16312063210127389     
   8.7911227406887544      -0.19911024581000730     
  0.70640422258929825       0.31882047753655751     
  0.26922813413411617       0.12706504184240380     
 p           4   1.0000000000000000     
   5.8263656140800002       0.73716451545209605     
   1.5106896018720002       0.68216371614850257     
  0.53256483288000001       0.35783053929253711     
  0.21202323690600003        5.3983030275847881E-002

[MO]
Sym=     1a
Ene=  -0.75192018642212266     
Spin= Alpha
Occup=     2.00000000
           1   6.3978770826448206E-002
           2  -4.7134843387586278E-002
           3   5.5341927667398065E-003
           4   1.0515289349450742E-003
           5  0.28984924356524194     
           6 -0.12995783456814500     
           7   1.5219089408405502E-002
           8   7.2226644247081427E-004
           9  0.35854022855646661     
          10  0.13694882210451800     
          11  -1.7832911868235952E-002
          12 -0.10100018445235760     
          13  0.30252473687715131     
          14  -1.3967682271772979E-003
          15 -0.13348195997477011     
          16   4.2588205367227502E-002
          17  0.30252271154808508     
          18   2.9622147405775200E-002
          19  0.13161961879899950     
          20   3.7838030498156726E-002
Sym=     2a
Ene=  -0.69117973464491189     
Spin= Alpha
Occup=     2.00000000
           1  0.53556903461097916     
           2 -0.16135358484143791     
           3   1.8972039046067271E-002
           4   5.1104402329253517E-003
           5  0.39705606602723598     
           6  0.28273911352180642     
           7  -3.3392275448073300E-002
           8  -1.7062841976877460E-002
           9 -0.17077839088619409     
          10   2.4587851910192821E-002
          11  -2.2043161394581889E-003
          12   3.7735294202549723E-002
          13  -6.7351051975378468E-002
          14   9.4507545629686662E-002
          15   1.0696996767957049E-002
          16  -1.7118197163872983E-002
          17  -6.7341534902654654E-002
          18   8.9416700785068415E-002
          19  -3.2816250427557016E-002
          20  -1.6337129018917530E-002
Sym=     3a
Ene=  -0.66439425362891591     
Spin= Alpha
Occup=     2.00000000
           1  -6.4652552565077159E-006
           2  -6.6968070019779993E-003
           3  -5.7242489005485404E-002
           4   1.0254504510996778E-003
           5  -3.1965889789099553E-006
           6  -2.9845795622805146E-002
           7 -0.25503171312139433     
           8   4.5691386770549758E-003
           9   8.7449377384705054E-007
          10  -4.3792844492244083E-002
          11 -0.37427445440959378     
          12   6.7052689460947680E-003
          13 -0.47350842572922086     
          14   2.2017444327792931E-003
          15   6.2092117997418032E-003
          16  -7.1664619850576136E-002
          17  0.47351140763944821     
          18  -4.1377184645366628E-004
          19   9.0803786031675594E-003
          20   7.1390250041945394E-002
Sym=     4a
Ene=  -0.59290640912208714     
Spin= Alpha
Occup=     2.00000000
           1  0.34407368517859727     
           2   6.3248818917416114E-002
           3  -6.6035905845938624E-003
           4   4.4572135715701955E-002
           5 -0.21343081552095761     
           6  0.25490596589924652     
           7  -2.7835311459931018E-002
           8  0.11141647417936652     
           9  0.47953577538291636     
          10 -0.27730020708550263     
          11   3.2771384969578599E-002
          12   1.8082197109543854E-002
          13  -2.6086595303429109E-002
          14 -0.29635029914497146     
          15   2.5610842023441528E-002
          16  0.10937321007891235     
          17  -2.6083751534474425E-002
          18 -0.29379895894430175     
          19   4.7351873692331528E-002
          20  0.10898192929435196     
Sym=     5a
Ene=  -0.57293502341614311     
Spin= Alpha
Occup=     2.00000000
           1 -0.10494311277691645     
           2  -2.6721293429961580E-002
           3   6.0910564152550743E-003
           4  0.16539937855072059     
           5   9.6483932533799582E-002
           6  -6.7852998284110649E-002
           7   1.5030893825577854E-002
           8  0.39567623049831840     
           9  0.14789208660983394     
          10  0.21006983613704935     
          11  -1.7431768792082698E-002
          12  0.39905217098666840     
          13 -0.19810511963462765     
          14  0.10778969659684788     
          15   8.1691172747526790E-003
          16  0.29791327017900465     
          17 -0.19810369988135124     
          18  0.10422123559731403     
          19  -2.2291187272836636E-002
          20  0.29845721145961746     
Sym=     6a
Ene=  -0.54513507249019544     
Spin= Alpha
Occup=     2.00000000
           1  -4.1502296236185908E-006
           2  -3.3174656462661302E-002
           3 -0.28349711646711845     
           4   5.0795554219081529E-003
           5   2.4405317723736447E-007
           6  -5.6363589340165450E-002
           7 -0.48167346748832351     
           8   8.6307573002802115E-003
           9  -4.3216796646867307E-006
          10   3.7783788431511506E-002
          11  0.32289219670817887     
          12  -5.7823635688786183E-003
          13   7.8025683276267870E-003
          14 -0.36575954932421229     
          15   3.0863395441500997E-002
          16  0.10053765320504411     
          17  -7.7992143201258282E-003
          18  0.36259631870460191     
          19  -5.7959038548564754E-002
          20 -0.10004962357453448     
Sym=     7a
Ene=  -0.49698293060046977     
Spin= Alpha
Occup=     2.00000000
           1  0.11757216205976724     
           2  0.10655184681711317     
           3  -9.5478106904275314E-003
           4  0.16294041011135546     
           5 -0.10891425135147742     
           6   3.3206116899759448E-002
           7  -3.3771529994428646E-004
           8  0.19790872749179753     
           9 -0.16394726721796557     
          10   6.2327325420901039E-002
          11  -6.5422790651577713E-003
          12   4.1942216485604776E-002
          13  0.48902644677465795     
          14   5.3999573795585197E-002
          15  0.42746521025398299     
          16   1.9551924085684666E-002
          17  0.48902785858594683     
          18  -4.6034316337358508E-002
          19 -0.42742003290209418     
          20   3.4870155301384341E-002
Sym=     8a
Ene=  -0.47252028756527703     
Spin= Alpha
Occup=     2.00000000
           1  0.44495936505225026     
           2  0.49115905941881743     
           3  -5.2456752246538202E-002
           4  0.28025193752410243     
           5 -0.15764768020361392     
           6 -0.13347826574329286     
           7   2.0333548510601984E-002
           8  0.26338699441181612     
           9 -0.23162681773593821     
          10  0.27588229733892050     
          11  -3.7464118161024365E-002
          12 -0.28922056550264968     
          13  -9.3294368758892701E-002
          14  -2.3429021180709522E-002
          15 -0.18369691494360055     
          16  -7.4176498265596413E-002
          17  -9.3303723441623340E-002
          18   1.9292330213808960E-002
          19  0.18141051508037614     
          20  -8.0707964757138789E-002
Sym=     9a
Ene=  -0.46768181713013290     
Spin= Alpha
Occup=     2.00000000
           1 -0.37156606481237786     
           2 -0.40364518860081938     
           3   5.5550691009752864E-002
           4  0.46431208858764045     
           5  0.14750613159273354     
           6  0.13880426375665250     
           7  -9.5785934959127135E-003
           8  0.37199083772494074     
           9 -0.13296599991462607     
          10  -9.5232705156435074E-002
          11   5.0677584147757609E-003
          12 -0.33896494203431932     
          13  -2.0053307465230187E-002
          14 -0.14754618430086658     
          15  -3.4928830178144903E-002
          16 -0.12671621800052790     
          17  -2.0061258326725773E-002
          18 -0.13601975571484767     
          19   6.3540914965047310E-002
          20 -0.12846780994109810     
Sym=    10a
Ene=  -0.45354137369301079     
Spin= Alpha
Occup=     2.00000000
           1   6.7790600597173809E-007
           2   2.8983526784428053E-002
           3  0.24767948795333639     
           4  -4.4293087757334704E-003
           5  -1.6237189703736230E-007
           6   1.9949011306683320E-002
           7  0.17048335211891461     
           8  -3.0484249347025568E-003
           9  -5.7435508957565662E-006
          10   3.0148305653902828E-002
          11  0.25762927058963414     
          12  -4.6237527292440706E-003
          13 -0.36671693666669808     
          14  -1.4958812438120903E-002
          15 -0.31918486522251160     
          16  0.42080360880256590     
          17  0.36671576697319969     
          18  -6.0850433232662940E-002
          19 -0.32868030509704249     
          20 -0.40920150835738212     
Sym=    11a
Ene=  -0.38016754528848112     
Spin= Alpha
Occup=     0.00000000
           1   1.9376788459333736E-007
           2   8.6267621487131463E-002
           3  0.73721654577646167     
           4  -1.3213303274221738E-002
           5  -6.9172418428133430E-007
           6  -1.7504561483562694E-003
           7  -1.4954506458683084E-002
           8   2.6798816794081765E-004
           9  -2.3070956883024199E-006
          10   5.6861917318012482E-003
          11   4.8561212913913264E-002
          12  -8.7120494693068836E-004
          13  -2.8856511920152362E-002
          14 -0.36920929300093125     
          15  -7.4701964994530162E-002
          16 -0.32872433783697252     
          17   2.8857157202131167E-002
          18  0.34335936179212806     
          19 -0.14622913657688122     
          20  0.33268967510764713     
Sym=    12a
Ene=  -0.35782718567232297     
Spin= Alpha
Occup=     0.00000000
           1  -5.0030194131638221E-002
           2 -0.17827640231109590     
           3   1.2093222353198742E-002
           4 -0.48807604177584374     
           5 -0.11231275012003758     
           6  0.15801903492342326     
           7  -1.6787837725005000E-002
           8   9.4750532611314109E-002
           9 -0.30088538132087167     
          10  0.47769308974260549     
          11  -6.3284726487970469E-002
          12 -0.41279499315462087     
          13  -1.8423854766059809E-002
          14 -0.23616200040452034     
          15   7.1709803761870056E-002
          16  0.32706975937209859     
          17  -1.8424301832486521E-002
          18 -0.24499797399692930     
          19  -3.7103457138565419E-003
          20  0.32844961211734602     
Sym=    13a
Ene=  -0.35518186465137541     
Spin= Alpha
Occup=     0.00000000
           1  -2.2020159751030478E-006
           2   5.0080631024346692E-002
           3  0.42804413680359360     
           4  -7.6878556814085341E-003
           5  -5.1577548837690694E-006
           6  -1.5272075345617758E-002
           7 -0.13057370696876608     
           8   2.3438325403191784E-003
           9  -1.4010231029804691E-005
          10  -1.4295830442475373E-002
          11 -0.12237090843577635     
          12   2.1748812854804765E-003
          13   3.1899109745560524E-003
          14   4.9000329575082597E-003
          15  0.56600975106334217     
          16  0.36451269554457111     
          17  -3.1908914841801612E-003
          18  0.12432622868523181     
          19  0.53861931880764125     
          20 -0.38427854102081704     
Sym=    14a
Ene=  -0.26081277201548042     
Spin= Alpha
Occup=     0.00000000
           1  -7.7870450151323340E-003
           2  0.13097155140849215     
           3  -1.2540842905685993E-002
           4  0.15542665179010187     
           5  0.11223863475922079     
           6 -0.10446206256281818     
           7   9.5047308755053985E-003
           8 -0.15181206926051299     
           9  -9.2578195049698803E-002
          10 -0.58136722573849064     
          11   5.8074621635276207E-002
          12 -0.55532107026240285     
          13  -4.4433431296110451E-002
          14  0.29688236608394147     
          15   3.6730934432012891E-002
          16  0.46733317117921952     
          17  -4.4431493115556608E-002
          18  0.28232062446341644     
          19  -8.7712806194105056E-002
          20  0.46955909591401762     
Sym=    15a
Ene=  -0.21614571525712387     
Spin= Alpha
Occup=     0.00000000
           1   5.7152101308025043E-003
           2  0.11658783288252537     
           3  -2.5556435681717175E-002
           4 -0.66492765309836088     
           5  0.25030529482222186     
           6 -0.16142836969068375     
           7   3.3063131130835643E-002
           8  0.79101029562796377     
           9   2.8874639241221391E-002
          10 -0.41159896184251699     
          11   4.6356094666819322E-002
          12 -0.10065782397457548     
          13  -1.6606042532801686E-002
          14  0.10580857326539223     
          15   1.0329794097342493E-002
          16 -0.19664047529858208     
          17  -1.6604861289622044E-002
          18   9.9757354950317026E-002
          19  -4.1411063358671375E-002
          20 -0.19571673817309498     
Sym=    16a
Ene=   -1.0847035105773702E-002
Spin= Alpha
Occup=     0.00000000
           1  -4.6875295877424700E-002
           2  0.29169355199384206     
           3  -3.2773443717621434E-002
           4   8.1160186262045353E-002
           5  0.90122246873510936     
           6 -0.50612191789072980     
           7   5.5996576801916428E-002
           8 -0.19197897323429872     
           9 -0.33077145564993088     
          10 -0.13547277696533774     
          11   1.8820011301901370E-002
          12  0.16850353532148102     
          13 -0.15050677947518856     
          14 -0.52213580625322586     
          15  0.23922729294411874     
          16   6.0501783928023849E-002
          17 -0.15041156793071997     
          18 -0.56274413708863569     
          19 -0.10993046984941138     
          20   6.6744855717501356E-002
Sym=    17a
Ene=   -3.9275798476037169E-003
Spin= Alpha
Occup=     0.00000000
           1  -9.3803398920520274E-006
           2   4.9057381485161318E-002
           3  0.41870415369776431     
           4  -7.4851735907573054E-003
           5   1.9907184986693650E-004
           6 -0.11218868866056367     
           7 -0.95778655482619179     
           8   1.7119804590960026E-002
           9  -7.5386942922743913E-005
          10   2.9694960437177231E-002
          11  0.25409332621770236     
          12  -4.5139758719131779E-003
          13  0.20353169067514784     
          14  0.53264808607506298     
          15 -0.23071979542009699     
          16  -3.4507233163474559E-002
          17 -0.20359910157287933     
          18 -0.57161666357267882     
          19 -0.10024605634572863     
          20   4.0465482825855104E-002
Sym=    18a
Ene=   0.35443047579170728     
Spin= Alpha
Occup=     0.00000000
           1   2.3574413626831820E-006
           2  -9.1558485438175460E-003
           3  -7.8200897555867774E-002
           4   1.3982016420822463E-003
           5  -1.7091875415208886E-005
           6   2.3455945612116186E-002
           7  0.20039270594133532     
           8  -3.5822527802427538E-003
           9  -4.3599826402657705E-005
          10  0.12807317861697415     
          11   1.0947749276672414     
          12  -1.9585683338385368E-002
          13 -0.59341484497896613     
          14  0.29452411363512654     
          15  0.42588366679291773     
          16 -0.40280403981026996     
          17  0.59346766183361976     
          18 -0.18661774323101077     
          19  0.49638689461231106     
          20  0.38630210311763619     
Sym=    19a
Ene=   0.48110413551235798     
Spin= Alpha
Occup=     0.00000000
           1  -8.8374754336197750E-002
           2  0.13080238056283713     
           3  -1.4612759981069527E-002
           4   3.8825591198566038E-002
           5  0.26367558519050999     
           6  -1.5679218689737918E-002
           7  -4.0402644387387189E-004
           8 -0.12528943951064581     
           9  0.99996222751021346     
          10  0.50076852251825610     
          11  -6.9467068305400753E-002
          12 -0.61016867729331714     
          13 -0.54029454478691219     
          14  0.20857782234273706     
          15  0.60052360982979358     
          16 -0.26015614865942299     
          17 -0.54023029929597843     
          18   6.3257667464210091E-002
          19 -0.64120323465337448     
          20 -0.23786739907942428     
Sym=    20a
Ene=   0.73413702860113672     
Spin= Alpha
Occup=     0.00000000
           1  0.87732796495430454     
           2 -0.97316546192106468     
           3  0.11462892433378030     
           4   4.2080160326842649E-002
           5 -0.62267302928960544     
           6  -1.1994074846877332     
           7  0.14070431162781985     
           8   1.9779652732689314E-002
           9  -1.7327011322086094E-002
          10 -0.10653702037970074     
          11   1.1660403705716228E-002
          12  -4.5131074975856229E-002
          13 -0.16667138212326729     
          14  -4.0424595764740744E-002
          15  0.17586777416656191     
          16  -2.6153719585146170E-002
          17 -0.16666447420862210     
          18  -8.0024689437029159E-002
          19 -0.16259830880809795     
          20  -2.0087140530885731E-002
