4
 energy: -8.993327442371 gnorm: 0.000232890758 xtb: 6.2.2 (9d81278992624c895f80dd42a50cac0aa55982e2)
C         1.56771438338462   -0.01209316831882    0.03975305835319
N         0.39067247568318   -0.00313937816801    0.01053330702434
C        -0.97481523539138    0.64440008764227   -0.01093516926762
C        -0.98357062367643   -0.62916754116068   -0.03935119611340
