$hessian                                                                        
        1.0350587974  -0.0077153394   0.0254493019  -0.9271654354   0.0068290037
       -0.0224260407  -0.0540764751  -0.0335959694  -0.0022685074  -0.0538168869
        0.0344823051  -0.0007547537
       -0.0077153394   0.0171868601  -0.0001880307   0.0068811772  -0.0233141165
        0.0003533882   0.0096508084   0.0032568382   0.0001443857  -0.0088166462
        0.0028704182  -0.0003097432
        0.0254493019  -0.0001880307   0.0169908376  -0.0222863319   0.0003310254
       -0.0309609667  -0.0014016276  -0.0009156142   0.0069673940  -0.0017613424
        0.0007726195   0.0070027350
       -0.9271654354   0.0068811772  -0.0222863319   1.1032235097  -0.0080674467
        0.0262451194  -0.0870389106   0.1370364573   0.0010663445  -0.0890191638
       -0.1358501878  -0.0050251320
        0.0068290037  -0.0233141165   0.0003310254  -0.0080674467   0.0291483582
       -0.0008156708  -0.0146213841  -0.0038537918  -0.0001518084   0.0158598271
       -0.0019804499   0.0006364538
       -0.0224260407   0.0003533882  -0.0309609667   0.0262451194  -0.0008156708
        0.0571788128  -0.0021814515   0.0037415723  -0.0130316929  -0.0016376271
       -0.0032792896  -0.0131861532
       -0.0540764751   0.0096508084  -0.0014016276  -0.0870389106  -0.0146213841
       -0.0021814515   0.0722429385  -0.0434446645   0.0008088093   0.0688724472
        0.0484152402   0.0027742698
       -0.0335959694   0.0032568382  -0.0009156142   0.1370364573  -0.0038537918
        0.0037415723  -0.0434446645   0.7669192777   0.0157674049  -0.0599958235
       -0.7663223241  -0.0185933630
       -0.0022685074   0.0001443857   0.0069673940   0.0010663445  -0.0001518084
       -0.0130316929   0.0008088093   0.0157674049   0.0033847454   0.0003933536
       -0.0157599823   0.0026795535
       -0.0538168869  -0.0088166462  -0.0017613424  -0.0890191638   0.0158598271
       -0.0016376271   0.0688724472  -0.0599958235   0.0003933536   0.0739636035
        0.0529526425   0.0030056159
        0.0344823051   0.0028704182   0.0007726195  -0.1358501878  -0.0019804499
       -0.0032792896   0.0484152402  -0.7663223241  -0.0157599823   0.0529526425
        0.7654323557   0.0182666524
       -0.0007547537  -0.0003097432   0.0070027350  -0.0050251320   0.0006364538
       -0.0131861532   0.0027742698  -0.0185933630   0.0026795535   0.0030056159
        0.0182666524   0.0035038647
