[Molden Format]
[Title]
[Atoms] AU
C      1     6  0.29625505513684E+01 -0.22852773981297E-01  0.75122385933948E-01
N      2     7  0.73826391497470E+00 -0.59325643887505E-02  0.19905063615809E-01
C      3     6 -0.18421336460894E+01  0.12177395673470E+01 -0.20664473124979E-01
C      4     6 -0.18586789305278E+01 -0.11889542289869E+01 -0.74362976431376E-01
[GTO]
           1 0
 s           4   1.0000000000000000     
   51.049363095579913      -0.16312063210127389     
   8.7911227406887544      -0.19911024581000730     
  0.70640422258929825       0.31882047753655751     
  0.26922813413411617       0.12706504184240380     
 p           4   1.0000000000000000     
   5.8263656140800002       0.73716451545209605     
   1.5106896018720002       0.68216371614850257     
  0.53256483288000001       0.35783053929253711     
  0.21202323690600003        5.3983030275847881E-002

           2 0
 s           4   1.0000000000000000     
   63.594024466941008      -0.19234388414721629     
   10.951417231523665      -0.23478107924953728     
  0.87999310257376984       0.37593753901700888     
  0.33538715296521110       0.14982889271862770     
 p           4   1.0000000000000000     
   7.2965040481495080       0.97658666315667420     
   1.8918745450712575       0.90372226730345739     
  0.66694432110824120       0.47404958461536373     
  0.26552202674130870        7.1516067715011844E-002

           3 0
 s           4   1.0000000000000000     
   51.049363095579913      -0.16312063210127389     
   8.7911227406887544      -0.19911024581000730     
  0.70640422258929825       0.31882047753655751     
  0.26922813413411617       0.12706504184240380     
 p           4   1.0000000000000000     
   5.8263656140800002       0.73716451545209605     
   1.5106896018720002       0.68216371614850257     
  0.53256483288000001       0.35783053929253711     
  0.21202323690600003        5.3983030275847881E-002

           4 0
 s           4   1.0000000000000000     
   51.049363095579913      -0.16312063210127389     
   8.7911227406887544      -0.19911024581000730     
  0.70640422258929825       0.31882047753655751     
  0.26922813413411617       0.12706504184240380     
 p           4   1.0000000000000000     
   5.8263656140800002       0.73716451545209605     
   1.5106896018720002       0.68216371614850257     
  0.53256483288000001       0.35783053929253711     
  0.21202323690600003        5.3983030275847881E-002

[MO]
Sym=     1a
Ene=  -0.73862433803640914     
Spin= Alpha
Occup=     2.00000000
           1   9.3318668859086601E-002
           2  -7.6236099909295654E-002
           3   5.8310561469258546E-004
           4  -1.9458448330910904E-003
           5  0.44891765488462099     
           6 -0.19077212427657025     
           7   1.4774713826622356E-003
           8  -5.0756543137585380E-003
           9  0.33197705562412533     
          10  0.11328605033049492     
          11 -0.13824568214041544     
          12  -1.1054072370935864E-004
          13  0.33204110289134453     
          14  0.11526698617693326     
          15  0.13652164546769621     
          16   6.0225020813806408E-003
Sym=     2a
Ene=  -0.70609492867143830     
Spin= Alpha
Occup=     2.00000000
           1  0.48970318421456788     
           2 -0.17258838761799117     
           3   1.2930240012297390E-003
           4  -4.2544855543301232E-003
           5  0.36078913080859132     
           6  0.36820907100944650     
           7  -2.8588735411277265E-003
           8   9.2846182935505985E-003
           9 -0.16736516697743020     
          10   1.6918560093370807E-002
          11   6.8470486330892352E-002
          12   1.9194643164297193E-003
          13 -0.16733107744618547     
          14   1.6008730640842839E-002
          15  -6.8738497289407868E-002
          16  -1.1411191775579880E-003
Sym=     3a
Ene=  -0.60617695598609722     
Spin= Alpha
Occup=     2.00000000
           1   5.4889202923441842E-004
           2   1.8091146876556780E-003
           3  0.24526057885268512     
           4   5.4752122048702754E-003
           5  -4.7544885569443778E-004
           6   4.9693467031894046E-003
           7  0.62873412824238339     
           8   1.4044139833988424E-002
           9  0.31742618908179365     
          10  0.14340993670483587     
          11  0.17043364066020433     
          12   7.5235842443359194E-003
          13 -0.31649308200123866     
          14 -0.14201653121973759     
          15  0.17322437272820299     
          16   1.1807026174357725E-004
Sym=     4a
Ene=  -0.58857986842306242     
Spin= Alpha
Occup=     2.00000000
           1 -0.32804936900336057     
           2  -7.7712712408798693E-002
           3   1.0576073925176461E-003
           4  -5.5679641150068544E-004
           5  0.30041825671071742     
           6 -0.28001942015971504     
           7   3.1794213190066453E-003
           8  -3.7771007456215834E-003
           9 -0.31372106524663557     
          10  0.35873727978280995     
          11  0.13857949941849013     
          12   1.3807734836735397E-002
          13 -0.31454780396041132     
          14  0.35643253852331397     
          15 -0.14349243618448795     
          16   7.5052549752408614E-003
Sym=     5a
Ene=  -0.58437522198486991     
Spin= Alpha
Occup=     2.00000000
           1   1.4057572662903970E-003
           2  -7.5307622851428875E-003
           3  -6.9187606701398719E-003
           4  0.31231110566722220     
           5  -9.3905920828915839E-004
           6  -1.6416078300418024E-002
           7  -1.5391065828861902E-002
           8  0.69464604960960030     
           9   1.5524038273265655E-003
          10  -9.3399125416121446E-003
          11  -7.0620999623302143E-003
          12  0.28773510312167294     
          13   1.5553931401128766E-003
          14  -9.3326447283365241E-003
          15  -5.6552460483877028E-003
          16  0.28791241589515859     
Sym=     6a
Ene=  -0.49285185334911114     
Spin= Alpha
Occup=     2.00000000
           1  -2.6325678225059000E-004
           2  -2.7629651219955031E-003
           3 -0.36326907458674518     
           4  -8.1119804864739492E-003
           5   6.7672590193640635E-005
           6  -2.5034194533949230E-003
           7 -0.36350383091665267     
           8  -8.1106813965819511E-003
           9  0.47319590382246307     
          10 -0.15506195940514350     
          11  0.32137365898072423     
          12   3.0666821928744059E-003
          13 -0.47293593410227197     
          14  0.15963001485171352     
          15  0.31863828520575088     
          16   1.1217220446675384E-002
Sym=     7a
Ene=  -0.48031866125639089     
Spin= Alpha
Occup=     2.00000000
           1  0.65266748506003203     
           2  0.61938561973828610     
           3  -4.8041198724857754E-003
           4   1.4874314328987325E-002
           5 -0.18748074398083026     
           6 -0.22116805669883435     
           7   1.5909336401207657E-003
           8  -5.9190638893726463E-003
           9  -3.0438811448618236E-002
          10  0.21702849305981614     
          11   4.2485473200402262E-003
          12   6.7204321077934765E-003
          13  -3.0689335199112357E-002
          14  0.21703513359223309     
          15  -7.3409850266311404E-003
          16   6.4640851140034990E-003
Sym=     8a
Ene=  -0.45896151987063177     
Spin= Alpha
Occup=     2.00000000
           1  -9.1702049295780159E-004
           2   1.0265564469214944E-002
           3   1.0069948412791862E-002
           4 -0.45446876578907225     
           5   1.2366783423148665E-004
           6   8.2162962827982463E-003
           7   6.7823823830615191E-003
           8 -0.30650744594613039     
           9   2.3748568772942038E-005
          10  -1.4506224033852155E-002
          11  -1.1900957417836542E-002
          12  0.53990586040623734     
          13   2.3748387266300327E-005
          14  -1.4504248028810755E-002
          15  -1.1990273065635985E-002
          16  0.53980412747708473     
Sym=     9a
Ene=  -0.41040665362130990     
Spin= Alpha
Occup=     1.00000000
           1  -1.4264915361683722E-002
           2  -3.9515244411558482E-004
           3  -4.6633293509803429E-004
           4  -5.9150376005789101E-005
           5   1.0866909000063915E-002
           6   4.4903022510404461E-003
           7  -1.3277823615812106E-004
           8   8.5574728324499334E-005
           9 -0.40072245831108172     
          10  -9.2661596309295824E-003
          11 -0.60352838075266191     
          12  -1.3573672170814203E-002
          13 -0.40083847432458597     
          14  -7.5647798481432685E-004
          15  0.60371527769713051     
          16   1.3367965223651261E-002
Sym=    10a
Ene=  -0.33167145814362686     
Spin= Alpha
Occup=     0.00000000
           1  -3.5681769395734243E-005
           2  -6.0124767555998345E-003
           3 -0.83558526250085663     
           4  -1.8650135445363543E-002
           5  -1.8753313805454160E-004
           6   2.3241907977306262E-003
           7  0.30602870331437165     
           8   6.8335879973945822E-003
           9  -6.3361302341057232E-002
          10  0.42124926038228722     
          11  -7.0229128052954906E-002
          12   9.5543055902870683E-003
          13   6.3714091893736224E-002
          14 -0.42169913093250722     
          15  -6.4208264851323207E-002
          16  -1.2541221949431631E-002
Sym=    11a
Ene=  -0.26119772928906559     
Spin= Alpha
Occup=     0.00000000
           1   1.3048613901191639E-006
           2   2.7996038745094611E-004
           3   1.4897291470443086E-004
           4  -1.0943627518418722E-002
           5   1.3864890140540451E-005
           6  -2.3064428194374459E-004
           7  -1.8438318408831413E-004
           8   8.7942313717939789E-003
           9   5.7176697915260637E-007
          10   2.1335262901775325E-002
          11   1.7993708487099334E-002
          12 -0.81288357412021739     
          13  -5.1296025694506142E-006
          14  -2.1222267164805426E-002
          15  -1.7880903314436467E-002
          16  0.80797048110363345     
Sym=    12a
Ene=  -0.25762810727027280     
Spin= Alpha
Occup=     0.00000000
           1   1.0043644347631775E-004
           2   2.2429506034083491E-002
           3   1.9331051291062246E-002
           4 -0.87330107526338074     
           5   1.1583903996952383E-003
           6  -1.8891869866334416E-002
           7  -1.5924720749025404E-002
           8  0.71958529348150302     
           9  -1.9193257503077543E-004
          10   4.2734576430673151E-003
          11   4.2706974198006287E-003
          12 -0.18808574476453202     
          13  -1.9182882904700580E-004
          14   4.8036057516903305E-003
          15   4.5116662280708921E-003
          16 -0.20832816330005194     
Sym=    13a
Ene=  -0.11721616120456331     
Spin= Alpha
Occup=     0.00000000
           1  -4.9274319246531854E-002
           2  0.38686381365463268     
           3  -5.4882974003253367E-003
           4   1.0634162961421294E-002
           5  0.87804419751513185     
           6 -0.51082630269571250     
           7   7.9113380165285550E-003
           8  -1.4267114652920253E-002
           9 -0.23656477416454172     
          10 -0.53677850630139035     
          11  0.12359215161376400     
          12  -1.1115528876138595E-002
          13 -0.23594867454331067     
          14 -0.53174217945536018     
          15 -0.11676762953571707     
          16  -1.6302131459623254E-002
Sym=    14a
Ene=   -8.0712479123280612E-002
Spin= Alpha
Occup=     0.00000000
           1  -3.9493016791635420E-004
           2   5.0985273313182405E-003
           3  0.41930377883028563     
           4   9.4158943587733437E-003
           5   4.8986223408957310E-003
           6  -7.8127874481653831E-003
           7 -0.73124655667293403     
           8  -1.6393712200967258E-002
           9   5.9890086710250041E-002
          10  0.69154790692191259     
          11  0.14956904377792668     
          12   2.1446264086829998E-002
          13  -6.2550180347507506E-002
          14 -0.69492493227796270     
          15  0.15896960172091620     
          16  -1.4704247391017805E-002
Sym=    15a
Ene=   0.63669945740580036     
Spin= Alpha
Occup=     0.00000000
           1  -7.7964744281173038E-004
           2   1.3900985925590604E-003
           3   5.7705441605459172E-002
           4   1.3124386875209219E-003
           5   8.7736972417534536E-004
           6  -3.5248732399326051E-004
           7 -0.16424556016801506     
           8  -3.6454635014902858E-003
           9  0.87986948159735234     
          10   5.0794756154726763E-002
          11 -0.98809796062205690     
          12  -2.0536859016024239E-002
          13 -0.87976188134870748     
          14  -6.4273307805421509E-002
          15 -0.98713631669819368     
          16  -2.3531988413662917E-002
Sym=    16a
Ene=   0.82106057409297484     
Spin= Alpha
Occup=     0.00000000
           1  0.88674107969948512     
           2  -1.0385206118402424     
           3   7.9721109320987967E-003
           4  -2.5707634277273936E-002
           5 -0.69540307976188376     
           6  -1.1762049744675738     
           7   8.6947569935062682E-003
           8  -2.9483312497183344E-002
           9 -0.15694258978822911     
          10 -0.18916181103016433     
          11   6.9970153794148657E-002
          12  -3.5183947425815603E-003
          13 -0.15876593057589369     
          14 -0.19063759701210489     
          15  -6.8825416186417618E-002
          16  -6.6291161729216215E-003
