[Molden Format]
[Title]
[Atoms] AU
C      1     6 -0.12290152996581E+01 -0.15044919690356E+01  0.65800677680012E-01
C      2     6 -0.28086194773491E+00  0.77484147363183E+00  0.18671839878745E+01
C      3     6  0.13698985190424E+01  0.11158281608540E+01 -0.68194062136169E+00
C      4     6 -0.12649073728750E+01  0.92697677509744E+00 -0.10199034017828E+01
C      5     6  0.14048883369287E+01 -0.13131552124317E+01  0.40934228385776E+00
[GTO]
           1 0
 s           4   1.0000000000000000     
   51.049363095579913      -0.16312063210127389     
   8.7911227406887544      -0.19911024581000730     
  0.70640422258929825       0.31882047753655751     
  0.26922813413411617       0.12706504184240380     
 p           4   1.0000000000000000     
   5.8263656140800002       0.73716451545209605     
   1.5106896018720002       0.68216371614850257     
  0.53256483288000001       0.35783053929253711     
  0.21202323690600003        5.3983030275847881E-002

           2 0
 s           4   1.0000000000000000     
   51.049363095579913      -0.16312063210127389     
   8.7911227406887544      -0.19911024581000730     
  0.70640422258929825       0.31882047753655751     
  0.26922813413411617       0.12706504184240380     
 p           4   1.0000000000000000     
   5.8263656140800002       0.73716451545209605     
   1.5106896018720002       0.68216371614850257     
  0.53256483288000001       0.35783053929253711     
  0.21202323690600003        5.3983030275847881E-002

           3 0
 s           4   1.0000000000000000     
   51.049363095579913      -0.16312063210127389     
   8.7911227406887544      -0.19911024581000730     
  0.70640422258929825       0.31882047753655751     
  0.26922813413411617       0.12706504184240380     
 p           4   1.0000000000000000     
   5.8263656140800002       0.73716451545209605     
   1.5106896018720002       0.68216371614850257     
  0.53256483288000001       0.35783053929253711     
  0.21202323690600003        5.3983030275847881E-002

           4 0
 s           4   1.0000000000000000     
   51.049363095579913      -0.16312063210127389     
   8.7911227406887544      -0.19911024581000730     
  0.70640422258929825       0.31882047753655751     
  0.26922813413411617       0.12706504184240380     
 p           4   1.0000000000000000     
   5.8263656140800002       0.73716451545209605     
   1.5106896018720002       0.68216371614850257     
  0.53256483288000001       0.35783053929253711     
  0.21202323690600003        5.3983030275847881E-002

           5 0
 s           4   1.0000000000000000     
   51.049363095579913      -0.16312063210127389     
   8.7911227406887544      -0.19911024581000730     
  0.70640422258929825       0.31882047753655751     
  0.26922813413411617       0.12706504184240380     
 p           4   1.0000000000000000     
   5.8263656140800002       0.73716451545209605     
   1.5106896018720002       0.68216371614850257     
  0.53256483288000001       0.35783053929253711     
  0.21202323690600003        5.3983030275847881E-002

[MO]
Sym=     1a
Ene=  -0.76831353939893354     
Spin= Alpha
Occup=     2.00000000
           1 -0.26787055376502872     
           2  -9.4146008221393379E-002
           3 -0.10894181514399577     
           4   5.1111490139171354E-003
           5 -0.21134637990567928     
           6  -1.4562541962833150E-002
           7   4.0174433760597157E-002
           8   9.0169121251117521E-002
           9 -0.26787155164025289     
          10  0.10158976770878196     
          11   8.8406098674625913E-002
          12  -5.1204724096210845E-002
          13 -0.26792353383442785     
          14  -9.6926124107446138E-002
          15   7.4242510697208414E-002
          16  -7.6714478824342194E-002
          17 -0.26792580840259156     
          18  0.10430731748933240     
          19  -9.4605442673726489E-002
          20   3.1013451821326986E-002
Sym=     2a
Ene=  -0.65299524909295192     
Spin= Alpha
Occup=     2.00000000
           1   4.3969675855204948E-007
           2  0.21441690913693365     
           3 -0.17991011615547695     
           4  0.11478469331493538     
           5  -2.9653387693892376E-006
           6  0.13040623168161161     
           7 -0.10941947799557840     
           8   6.9812289609853570E-002
           9  -9.5791948412452287E-007
          10  0.21441785533385621     
          11 -0.17991088465866945     
          12  0.11478508810633836     
          13 -0.46989565384213533     
          14   1.9560491767313816E-002
          15  -2.5003204232308385E-002
          16  -1.9628539024240665E-002
          17  0.46989774257809952     
          18   1.0613631828067403E-002
          19  -3.1659704665458157E-004
          20   3.5780277518816940E-002
Sym=     3a
Ene=  -0.65297526448033227     
Spin= Alpha
Occup=     2.00000000
           1  0.46977573933109257     
           2  -1.9323159641266800E-002
           3  -2.4237456621049314E-003
           4   3.2297704604599943E-002
           5  -7.2515341463665564E-007
           6 -0.12693037110401975     
           7 -0.12797539680425363     
           8   3.6519504657558988E-002
           9 -0.46977578422405808     
          10  -1.0267958163765674E-002
          11  -2.7410365977454599E-002
          12  -2.3785150013434671E-002
          13   1.3952296859991906E-006
          14 -0.20891505686377110     
          15 -0.21063625237261668     
          16   6.0107519226017717E-002
          17  -2.8162522395857100E-009
          18 -0.20891776167983087     
          19 -0.21063825875403508     
          20   6.0107877221895006E-002
Sym=     4a
Ene=  -0.62515684197702748     
Spin= Alpha
Occup=     2.00000000
           1  0.11671652715500110     
           2   7.7201170731847304E-002
           3  -8.6514511745121411E-002
           4 -0.27981199812285235     
           5 -0.48352471054795076     
           6  -3.3004921958717885E-004
           7   9.0890684123548244E-004
           8   2.0372180510871748E-003
           9  0.11671825354616312     
          10   1.0056182383665010E-002
          11 -0.15421330860624163     
          12 -0.26049469169229045     
          13  0.11577205017314299     
          14   7.7955252025917021E-002
          15 -0.14930619950679710     
          16 -0.25227070159910236     
          17  0.11576832803765541     
          18   9.4513532079108179E-003
          19  -9.1827754455436991E-002
          20 -0.28894620424584200     
Sym=     5a
Ene=  -0.56106299277067073     
Spin= Alpha
Occup=     2.00000000
           1  -1.7835266689395778E-006
           2  0.29334486428726131     
           3 -0.24613498938704120     
           4  0.15703801113198382     
           5  -7.4881255869178703E-011
           6   1.1656675176764351E-006
           7   1.2983775208836465E-006
           8  -3.9024046371721998E-007
           9   1.8918426677890712E-006
          10 -0.29334400539665989     
          11  0.24613556005556150     
          12 -0.15703812596370145     
          13  -1.0012020775592982E-006
          14  0.28576948157002835     
          15  0.28812294810127276     
          16  -8.2219459650378093E-002
          17   8.9318545547701650E-007
          18 -0.28576913058194880     
          19 -0.28812310729723067     
          20   8.2219586628671876E-002
Sym=     6a
Ene=  -0.50015800097319385     
Spin= Alpha
Occup=     2.00000000
           1 -0.40474600564673924     
           2  0.21121121020024156     
           3  0.21177668156890306     
           4  -6.2610246869427816E-002
           5  -6.7943974683115844E-004
           6   3.0603282627378381E-005
           7  -9.0886639538788298E-005
           8  -2.0809037256530727E-004
           9 -0.40474577226029346     
          10 -0.21058928285295944     
          11 -0.21349856080176918     
          12   5.8746111531476276E-002
          13  0.40684043721315000     
          14 -0.21843175994141242     
          15  0.18390143157830527     
          16 -0.11475653582487297     
          17  0.40684190009208931     
          18  0.21778883848350417     
          19 -0.18211735426525305     
          20  0.11876509738381018     
Sym=     7a
Ene=  -0.48232326524448960     
Spin= Alpha
Occup=     2.00000000
           1 -0.31533305962936964     
           2  0.26503689826105303     
           3  0.23839955444944363     
           4 -0.12142473256463787     
           5   9.7123209836150567E-002
           6  -6.5508834554467267E-003
           7   1.8073389495921032E-002
           8   4.0575723754107798E-002
           9 -0.31533264345542789     
          10 -0.24973596126432715     
          11 -0.28061529114064998     
          12   2.6679008738806416E-002
          13 -0.31296335398184977     
          14  0.27054201509654935     
          15 -0.24171264169612769     
          16   9.3276562561409745E-002
          17 -0.31296606274292710     
          18 -0.25521898201106014     
          19  0.19943673872712547     
          20 -0.18817759251303462     
Sym=     8a
Ene=  -0.47188146362009620     
Spin= Alpha
Occup=     2.00000000
           1   2.0170698045057952E-007
           2  -6.7076298738166659E-002
           3   5.6281057424594889E-002
           4  -3.5907133121286586E-002
           5  -7.8591135958707322E-006
           6  0.35695055734453401     
           7 -0.29950604635680561     
           8  0.19108525814684327     
           9   2.5980797621560912E-007
          10  -6.7075909411538251E-002
          11   5.6282025273865798E-002
          12  -3.5907675272372236E-002
          13  0.13456713310352736     
          14   2.6689923424977897E-002
          15 -0.16804006953055503     
          16 -0.49610029526023885     
          17 -0.13455835020766649     
          18 -0.12504195813053740     
          19  0.25056509631155738     
          20  0.44345300375444074     
Sym=     9a
Ene=  -0.47156386260385064     
Spin= Alpha
Occup=     2.00000000
           1  0.13645384287214438     
           2   2.6944565974485548E-002
           3 -0.25860591997086463     
           4 -0.45566055940643013     
           5   1.8213150891741317E-007
           6  0.34764164223161997     
           7  0.35050490500182246     
           8 -0.10002100514119730     
           9 -0.13645706042851741     
          10 -0.12478064854107866     
          11  0.15996408346600263     
          12  0.48380935014993376     
          13  -4.4106125529883328E-007
          14  -6.4289446703216568E-002
          15  -6.4820828776081932E-002
          16   1.8496190844352705E-002
          17  -4.9865096794721725E-007
          18  -6.4289793781456453E-002
          19  -6.4818857836046656E-002
          20   1.8495430673416153E-002
Sym=    10a
Ene=  -0.44040190376226290     
Spin= Alpha
Occup=     2.00000000
           1   4.1479244312378878E-002
           2  -4.9220678352768473E-003
           3 -0.11175485536323967     
           4 -0.16596743937156769     
           5  0.69529153151083278     
           6  -8.8992181358253361E-002
           7  0.24551648476437080     
           8  0.55105817670986756     
           9   4.1479460943960982E-002
          10   6.1620467535145086E-002
          11  -4.4664447650563606E-002
          12 -0.18511293020982780     
          13   4.1319114517280715E-002
          14  -6.2348248306503670E-003
          15  -4.8960607096152485E-002
          16 -0.19324295746001185     
          17   4.1316962170712457E-002
          18   6.2690896361114259E-002
          19 -0.10679149715096685     
          20 -0.15633639472009084     
Sym=    11a
Ene=  -0.39055167909707733     
Spin= Alpha
Occup=     0.00000000
           1  -1.9948864364805177E-007
           2  0.21015880490131278     
           3 -0.17633777599484632     
           4  0.11250721392362482     
           5  -3.9337098200218084E-007
           6   7.2369594486508823E-003
           7  -6.0722174100080713E-003
           8   3.8744430900626652E-003
           9  -1.1414845074139007E-007
          10  0.21015995363618450     
          11 -0.17633652126626614     
          12  0.11250682635650819     
          13  0.23666079956352418     
          14 -0.45960938979278038     
          15  0.40871251410870479     
          16 -0.16520246357427557     
          17 -0.23665582800884577     
          18 -0.43557196635287843     
          19  0.34240284380095443     
          20 -0.31402256649786559     
Sym=    12a
Ene=  -0.39028737106116151     
Spin= Alpha
Occup=     0.00000000
           1 -0.23603626364186772     
           2  0.44798086489955968     
           3  0.40548537101950388     
           4 -0.20128080594305164     
           5  -3.0367667094012602E-007
           6  -5.3382705364693949E-003
           7  -5.3823428536260726E-003
           8   1.5357274244395343E-003
           9  0.23603365803063123     
          10  0.42345881725492340     
          11  0.47313222591992266     
          12  -4.9443547387238801E-002
          13   1.3023382590932454E-007
          14 -0.20514759101284932     
          15 -0.20683803980138005     
          16   5.9023843606037733E-002
          17   2.1544898991003370E-007
          18 -0.20514792383400646     
          19 -0.20683717622608136     
          20   5.9023390784386870E-002
Sym=    13a
Ene=  -0.21197111457589191     
Spin= Alpha
Occup=     0.00000000
           1  -1.1212884039548657E-003
           2  -8.7391172984036147E-002
           3  0.24466472606697540     
           4  0.54671363645164994     
           5  -3.1278773158603733E-004
           6  -3.4163524487542031E-004
           7   9.5896971713276859E-004
           8   2.1660155263174053E-003
           9  -1.1214005980978241E-003
          10  -8.9288506587525795E-002
          11  0.24274943397937138     
          12  0.54725587087529692     
          13   1.2114043790709974E-003
          14   8.7168363231133680E-002
          15 -0.24242331735654810     
          16 -0.54655559979021562     
          17   1.2107913738036956E-003
          18   8.9194445034719183E-002
          19 -0.24412622978740406     
          20 -0.54548111539040656     
Sym=    14a
Ene=  -0.15484564560268124     
Spin= Alpha
Occup=     0.00000000
           1  -2.8182652932628952E-003
           2 -0.11156308845262185     
           3  0.18326069750250831     
           4  0.49562961833922581     
           5  -1.1141820436806628E-006
           6  0.61680374790442982     
           7  0.62188518802543358     
           8 -0.17746092780464648     
           9   2.8185518460293172E-003
          10   4.5452948841772131E-002
          11 -0.24991641367638284     
          12 -0.47661045177113254     
          13   2.5438891558159672E-007
          14 -0.18299255106578291     
          15 -0.18449873912951620     
          16   5.2651578819113580E-002
          17   2.5496295644163824E-007
          18 -0.18299254656590158     
          19 -0.18449813608757740     
          20   5.2651383052944485E-002
Sym=    15a
Ene=  -0.15396087870810704     
Spin= Alpha
Occup=     0.00000000
           1   5.5144035661883760E-007
           2  0.18835918887242650     
           3 -0.15804286923574337     
           4  0.10084276191729434     
           5  -1.9881983113070251E-006
           6 -0.63342365157370162     
           7  0.53148449531322928     
           8 -0.33909293558794007     
           9   5.5226574749998305E-007
          10  0.18835913629585563     
          11 -0.15804420051334345     
          12  0.10084341885437717     
          13   2.5481111192139005E-003
          14  0.11208770419510194     
          15 -0.24496442829230497     
          16 -0.46885126280094075     
          17  -2.5474983196580978E-003
          18  -4.5139500038586709E-002
          19  0.18878744595578553     
          20  0.50468028561722700     
Sym=    16a
Ene=    2.3442519879821950E-002
Spin= Alpha
Occup=     0.00000000
           1 -0.16973237228523075     
           2  -6.7364247919269399E-002
           3 -0.23135402622977047     
           4 -0.23676629471455365     
           5  0.73199834068781744     
           6  0.13992502175514876     
           7 -0.38602279385916655     
           8 -0.86641313963226640     
           9 -0.16972879836645274     
          10  0.15413730178345045     
          11  -8.0296879384913426E-003
          12 -0.30049778426074036     
          13 -0.16904594134462458     
          14  -6.9538058174858003E-002
          15  -2.5718813314218856E-002
          16 -0.33180382242507278     
          17 -0.16905194857510392     
          18  0.15711371845767080     
          19 -0.21589301232710989     
          20 -0.21046360741395614     
Sym=    17a
Ene=   0.15445272801118407     
Spin= Alpha
Occup=     0.00000000
           1  0.69221603516345198     
           2  0.34520351597299659     
           3  0.40853151969706397     
           4  -4.5179778469859530E-003
           5   2.6922747794373355E-006
           6  0.19772644455194693     
           7  0.19935331612889609     
           8  -5.6891624024185940E-002
           9 -0.69221839814060449     
          10  0.37731753915322486     
          11  0.31994035918274366     
          12 -0.20336321259882903     
          13  -3.8501388501525553E-007
          14  0.43989173773904289     
          15  0.44351479255719423     
          16 -0.12656345747237613     
          17   4.4820351645922235E-007
          18  0.43989229750782455     
          19  0.44351565298609108     
          20 -0.12656360816783219     
Sym=    18a
Ene=   0.15493165462897412     
Spin= Alpha
Occup=     0.00000000
           1  -1.7025157602762276E-006
           2 -0.45175817217229619     
           3  0.37905203173498303     
           4 -0.24184405978759879     
           5   4.0285588904296842E-006
           6 -0.20404307537971708     
           7  0.17120371402340534     
           8 -0.10923724543703069     
           9  -8.6903263601751704E-007
          10 -0.45179995393319655     
          11  0.37909044167224049     
          12 -0.24186777693563979     
          13 -0.69248923970476894     
          14 -0.35519989615358327     
          15  0.26758768771471148     
          16 -0.29669330914722791     
          17  0.69248772241798029     
          18 -0.38683484706914861     
          19  0.35502562986943231     
          20 -0.10055009652357005     
Sym=    19a
Ene=   0.16684614596078148     
Spin= Alpha
Occup=     0.00000000
           1   1.7335912190666738E-007
           2 -0.53768270774863058     
           3  0.45115079545056563     
           4 -0.28784253250706188     
           5   7.3316624035585110E-009
           6  -8.0188366688447661E-006
           7   6.7742641394145973E-006
           8  -4.3238895114081436E-006
           9  -1.8041763440843732E-007
          10  0.53764533755263066     
          11 -0.45111926682377523     
          12  0.28782244388078215     
          13  -2.8508412514492423E-005
          14  0.52345094052016383     
          15  0.52778814658652584     
          16 -0.15061979605355971     
          17   2.8500448164141735E-005
          18 -0.52348041295185221     
          19 -0.52776175728685271     
          20  0.15060327265274803     
Sym=    20a
Ene=   0.55869683023278849     
Spin= Alpha
Occup=     0.00000000
           1  0.65223068345681334     
           2  0.45384782885777697     
           3  0.45778397330540310     
           4 -0.13026761137593817     
           5   1.1323754559419957E-003
           6   1.8399409422319377E-004
           7  -5.0943490378542195E-004
           8  -1.1439988537428197E-003
           9  0.65222872845627256     
          10 -0.45395186820753708     
          11 -0.45749282892800042     
          12  0.13091833550365178     
          13 -0.65260089708802171     
          14 -0.46670276099255431     
          15  0.39184826459076166     
          16 -0.24895647735470749     
          17 -0.65260067856117943     
          18  0.46643929381834237     
          19 -0.39111839813751426     
          20  0.25059125929058645     
