$hessian                                                                        
        0.3544836494   0.1073195452   0.0440520322  -0.0106212259  -0.0502929001
       -0.0001130070  -0.0585124752  -0.0484617222  -0.0134503753   0.0179551224
       -0.0016052094  -0.0061035061  -0.3033050706  -0.0069597135  -0.0243851437
        0.1073195452   0.3565291420  -0.0930316335  -0.0516834792  -0.0694947566
       -0.0617630013  -0.0155714911  -0.0618096452  -0.0284254052   0.0052756534
       -0.2491936169   0.1696423123  -0.0453402283   0.0239688768   0.0135777276
        0.0440520322  -0.0930316335   0.0599409661  -0.0019037904  -0.0640417376
       -0.0652559410   0.0378862680   0.0331647033  -0.0438178940  -0.0082056614
        0.1088453463   0.0004440542  -0.0718288485   0.0150633215   0.0486888147
       -0.0106212259  -0.0516834792  -0.0019037904   0.0892855644  -0.0198355757
       -0.0442337553  -0.0311174089  -0.0325362409   0.0664182093  -0.0132022009
        0.0327379791  -0.0409704129  -0.0343447288   0.0713173167   0.0206897492
       -0.0502929001  -0.0694947566  -0.0640417376  -0.0198355757   0.1365446914
        0.1220854039  -0.0335299907  -0.0124421600  -0.0059121097   0.0331268546
       -0.0028741571  -0.0054400196   0.0705316118  -0.0517336176  -0.0466915369
       -0.0001130070  -0.0617630013  -0.0652559410  -0.0442337553   0.1220854039
        0.3561914376   0.0644809668  -0.0080500160  -0.1018471003  -0.0389343481
       -0.0074585661  -0.1295384235   0.0188001436  -0.0448138205  -0.0595499728
       -0.0585124752  -0.0155714911   0.0378862680  -0.0311174089  -0.0335299907
        0.0644809668   0.3748618407   0.0900712924  -0.0210837774  -0.3035225719
       -0.0308786459  -0.0776145868   0.0182906153  -0.0100911647  -0.0036688706
       -0.0484617222  -0.0618096452   0.0331647033  -0.0325362409  -0.0124421600
       -0.0080500160   0.0900712924   0.3007759540  -0.1481100335  -0.0205598968
        0.0221699335   0.0116459158   0.0114865675  -0.2486940824   0.1113494304
       -0.0134503753  -0.0284254052  -0.0438178940   0.0664182093  -0.0059121097
       -0.1018471003  -0.0210837774  -0.1481100335   0.0960951423  -0.0176243220
        0.0147789818   0.0502258227  -0.0142597345   0.1676685667  -0.0006559708
        0.0179551224   0.0052756534  -0.0082056614  -0.0132022009   0.0331268546
       -0.0389343481  -0.3035225719  -0.0205598968  -0.0176243220   0.3591213224
       -0.0394210068   0.1106158938  -0.0603516720   0.0215783956  -0.0458515623
       -0.0016052094  -0.2491936169   0.1088453463   0.0327379791  -0.0028741571
       -0.0074585661  -0.0308786459   0.0221699335   0.0147789818  -0.0394210068
        0.2828191718  -0.1546747100   0.0391668831  -0.0529213313   0.0385089480
       -0.0061035061   0.1696423123   0.0004440542  -0.0409704129  -0.0054400196
       -0.1295384235  -0.0776145868   0.0116459158   0.0502258227   0.1106158938
       -0.1546747100   0.1297746604   0.0140726120  -0.0211734985  -0.0509061138
       -0.3033050706  -0.0453402283  -0.0718288485  -0.0343447288   0.0705316118
        0.0188001436   0.0182906153   0.0114865675  -0.0142597345  -0.0603516720
        0.0391668831   0.0140726120   0.3797108561  -0.0758448341   0.0532158274
       -0.0069597135   0.0239688768   0.0150633215   0.0713173167  -0.0517336176
       -0.0448138205  -0.0100911647  -0.2486940824   0.1676685667   0.0215783956
       -0.0529213313  -0.0211734985  -0.0758448341   0.3293801545  -0.1167445691
       -0.0243851437   0.0135777276   0.0486888147   0.0206897492  -0.0466915369
       -0.0595499728  -0.0036688706   0.1113494304  -0.0006559708  -0.0458515623
        0.0385089480  -0.0509061138   0.0532158274  -0.1167445691   0.0624232427
