      -----------------------------------------------------------      
     |                   =====================                   |     
     |                           x T B                           |     
     |                   =====================                   |     
     |                         S. Grimme                         |     
     |          Mulliken Center for Theoretical Chemistry        |     
     |                    University of Bonn                     |     
      -----------------------------------------------------------      

   * xtb version 6.2.2 (9d81278992624c895f80dd42a50cac0aa55982e2) compiled by '@Darwin' on 04/03/2020

   xtb is free software: you can redistribute it and/or modify it under
   the terms of the GNU Lesser General Public License as published by
   the Free Software Foundation, either version 3 of the License, or
   (at your option) any later version.
   
   xtb is distributed in the hope that it will be useful,
   but WITHOUT ANY WARRANTY; without even the implied warranty of
   MERCHANTABILITY or FITNESS FOR A PARTICULAR PURPOSE.  See the
   GNU Lesser General Public License for more details.
   
   Cite this work as:
   * S. Grimme, C. Bannwarth, P. Shushkov, J. Chem. Theory Comput., 2017,
     13, 1989-2009. DOI: 10.1021/acs.jctc.7b00118
   * C. Bannwarth, S. Ehlert and S. Grimme., J. Chem. Theory Comput., 2019,
     15, 1652-1671. DOI: 10.1021/acs.jctc.8b01176
   * P. Pracht, E. Caldeweyher, S. Ehlert, S. Grimme, ChemRxiv, 2019, preprint.
     DOI: 10.26434/chemrxiv.8326202.v1
   
   for DFT-D4:
   * E. Caldeweyher, C. Bannwarth and S. Grimme, J. Chem. Phys., 2017,
     147, 034112. DOI: 10.1063/1.4993215
   * E. Caldeweyher, S. Ehlert, A. Hansen, H. Neugebauer, S. Spicher,
     C. Bannwarth and S. Grimme, J. Chem. Phys., 2019, 150, 154122.
     DOI: 10.1063/1.5090222
   
   for sTDA-xTB:
   * S. Grimme and C. Bannwarth, J. Chem. Phys., 2016, 145, 054103.
     DOI: 10.1063/1.4959605
   
   in the mass-spec context:
   * V. Asgeirsson, C. Bauer and S. Grimme, Chem. Sci., 2017, 8, 4879.
     DOI: 10.1039/c7sc00601b
   
   for metadynamics refer to:
   * S. Grimme, J. Chem. Theory Comput., 2019, 155, 2847-2862
     DOI: 10.1021/acs.jctc.9b00143
   
   with help from (in alphabetical order)
   C. Bannwarth, F. Bohle, G. Brandenburg, E. Caldeweyher, M. Checinski,
   S. Dohm, S. Ehlert, S. Ehrlich, F. März, H. Neugebauer, J. Pisarek,
   P. Pracht, P. Shushkov, and S. Spicher.
   
 * started run on 2020/05/12 at 11:44:38.773     

           -------------------------------------------------
          |                Calculation Setup                |
           -------------------------------------------------

          program call               : xtb --input C5_17_S_0.input C5_17_S_0.xyz --ohess --molden --namespace C5_17_S_0 output.out
          calculation namespace      : C5_17_S_0
          coordinate file            : C5_17_S_0.xyz
          number of atoms            :                     5
          number of electrons        :                    20
          charge                     :                     0
          spin                       :                   0.0
          first test random number   :      0.32924853835208

   ID    Z sym.   atoms
    1    6 C      1-5

           -------------------------------------------------
          |                 G F N 2 - x T B                 |
           -------------------------------------------------

        Reference                      10.1021/acs.jctc.8b01176
      * Hamiltonian:
        H0-scaling (s, p, d)           1.850000    2.230000    2.230000
        zeta-weighting                 0.500000
      * Dispersion:
        s8                             2.700000
        a1                             0.520000
        a2                             5.000000
        s9                             5.000000
      * Repulsion:
        kExp                           1.500000    1.000000
        rExp                           1.000000
      * Coulomb:
        alpha                          2.000000
        third order                    shell-resolved
        anisotropic                    true
        a3                             3.000000
        a5                             4.000000
        cn-shift                       1.200000
        cn-exp                         4.000000
        max-rad                        5.000000


          ...................................................
          :                      SETUP                      :
          :.................................................:
          :  # basis functions                  20          :
          :  # atomic orbitals                  20          :
          :  # shells                           10          :
          :  # electrons                        20          :
          :  max. iterations                   250          :
          :  Hamiltonian                  GFN2-xTB          :
          :  restarted?                      false          :
          :  GBSA solvation                  false          :
          :  PC potential                    false          :
          :  electronic temp.          300.0000000     K    :
          :  accuracy                    1.0000000          :
          :  -> integral cutoff          0.2500000E+02      :
          :  -> integral neglect         0.1000000E-07      :
          :  -> SCF convergence          0.1000000E-05 Eh   :
          :  -> wf. convergence          0.1000000E-03 e    :
          :  Broyden damping             0.4000000          :
          ...................................................

 iter      E             dE          RMSdq      gap      omega  full diag
   1    -10.1927735 -0.101928E+02  0.830E+00    0.21       0.0  T
   2     -9.8049802  0.387793E+00  0.904E+00    0.00       1.0  T
   3    -10.1419842 -0.337004E+00  0.616E+00    0.68       1.0  T
   4    -10.2458844 -0.103900E+00  0.168E+00    0.02       1.0  T
   5    -10.2491018 -0.321745E-02  0.129E+00    0.07       1.0  T
   6    -10.1769730  0.721289E-01  0.422E+00    0.00       1.0  T
   7    -10.2493239 -0.723510E-01  0.124E+00    0.06       1.0  T
   8    -10.2307190  0.186049E-01  0.246E+00    0.11       1.0  T
   9    -10.2540490 -0.233300E-01  0.677E-01    0.06       1.0  T
  10    -10.2559673 -0.191832E-02  0.656E-02    0.05       1.0  T
  11    -10.2559625  0.475237E-05  0.762E-02    0.04       1.0  T
  12    -10.2559863 -0.237318E-04  0.126E-02    0.05       3.6  T
  13    -10.2559835  0.278685E-05  0.274E-02    0.05       1.6  T
  14    -10.2559864 -0.288611E-05  0.869E-03    0.05       5.1  T
  15    -10.2559867 -0.323363E-06  0.831E-04    0.05      53.8  T
  16    -10.2559867 -0.168132E-08  0.416E-04    0.05     107.6  T

   *** convergence criteria satisfied after 16 iterations ***

         #    Occupation            Energy/Eh            Energy/eV
      -------------------------------------------------------------
         1        2.0000           -0.7615097             -20.7217
       ...           ...                  ...                  ...
         4        2.0000           -0.5981893             -16.2776
         5        2.0000           -0.5386552             -14.6576
         6        2.0000           -0.5064045             -13.7800
         7        2.0000           -0.4812113             -13.0944
         8        2.0000           -0.4812111             -13.0944
         9        2.0000           -0.4789413             -13.0327
        10        1.1938           -0.4055926             -11.0367 (HOMO)
        11        0.4031           -0.4039118             -10.9910 (LUMO)
        12        0.4030           -0.4039116             -10.9910
        13                         -0.2654888              -7.2243
        14                         -0.1455098              -3.9595
        15                         -0.1455082              -3.9595
       ...                                ...                  ...
        20                          0.2822029               7.6791
      -------------------------------------------------------------
                  HL-Gap            0.0016808 Eh            0.0457 eV
             Fermi-level           -0.4052196 Eh          -11.0266 eV

 SCC (total)                   0 d,  0 h,  0 min,  0.005 sec
 SCC setup                      ...        0 min,  0.000 sec (  1.726%)
 Dispersion                     ...        0 min,  0.000 sec (  0.497%)
 integral evaluation            ...        0 min,  0.001 sec ( 28.177%)
 zeroth order Hamiltonian       ...        0 min,  0.000 sec (  0.402%)
 iterations                     ...        0 min,  0.002 sec ( 37.475%)
 molecular gradient             ...        0 min,  0.001 sec ( 29.936%)
 printout                       ...        0 min,  0.000 sec (  1.611%)

         :::::::::::::::::::::::::::::::::::::::::::::::::::::
         ::                     SUMMARY                     ::
         :::::::::::::::::::::::::::::::::::::::::::::::::::::
         :: total energy             -10.130662339767 Eh    ::
         :: gradient norm              0.196064756982 Eh/a0 ::
         :: HOMO-LUMO gap              0.045737398953 eV    ::
         ::.................................................::
         :: SCC energy               -10.255986687993 Eh    ::
         :: -> isotropic ES           -0.011057018406 Eh    ::
         :: -> anisotropic ES          0.002334643717 Eh    ::
         :: -> anisotropic XC          0.001235645652 Eh    ::
         :: -> dispersion             -0.002668840603 Eh    ::
         :: repulsion energy           0.125324325369 Eh    ::
         :: add. restraining           0.000000000000 Eh    ::
         :::::::::::::::::::::::::::::::::::::::::::::::::::::

      ----------------------------------------------------------- 
     |                   =====================                   |
     |                        A N C O P T                        |
     |                   =====================                   |
     |               Approximate Normal Coordinate               |
     |                Rational Function Optimizer                |
      ----------------------------------------------------------- 

          ...................................................
          :                      SETUP                      :
          :.................................................:
          :   optimization level            normal          :
          :   max. optcycles                   200          :
          :   ANC micro-cycles                  20          :
          :   degrees of freedom                 9          :
          :.................................................:
          :   RF solver                   davidson          :
          :   write xtbopt.log                true          :
          :   linear?                        false          :
          :   energy convergence         0.5000000E-05 Eh   :
          :   grad. convergence          0.1000000E-02 Eh/α :
          :   maximium RF displ.         1.0000000          :
          :   Hlow (freq-cutoff)         0.1000000E-01      :
          :   Hmax (freq-cutoff)         5.0000000          :
          :   S6 in model hess.         20.0000000          :
          ...................................................

generating ANC from model Hessian ...
Using Lindh-Hessian (1995)
 Shifting diagonal of input Hessian by    0.0000000000000000     
 Lowest  eigenvalues of input Hessian
   -0.000000   -0.000000   -0.000000    0.000000    0.000000    0.000000
    0.141850    0.664436    0.670155    0.670159    0.750108    0.810758
    1.290608    1.290617    1.599058
 Highest eigenvalues
    0.670159    0.750108    0.810758    1.290608    1.290617    1.599058


........................................................................
.............................. CYCLE    1 ..............................
........................................................................
   1    -10.2559867 -0.102560E+02  0.267E-04    0.05       0.0  T
   2    -10.2559866  0.123379E-06  0.523E-03    0.05       8.6  T
   3    -10.2559867 -0.123469E-06  0.217E-04    0.05     206.3  T
   4    -10.2559867 -0.116673E-09  0.147E-04    0.05     303.9  T
     SCC iter.                  ...        0 min,  0.000 sec
     gradient                   ...        0 min,  0.001 sec
 * total energy  :   -10.1306623 Eh     change       -0.6368570E-08 Eh
   gradient norm :     0.1960825 Eh/α   predicted     0.0000000E+00 (-100.00%)
   displ. norm   :     0.2284778 α      lambda       -0.4371827E-01
   maximum displ.:     0.2225259 α      in ANC's #5, #9, #1, ...

........................................................................
.............................. CYCLE    2 ..............................
........................................................................
   1    -10.2491484 -0.102491E+02  0.351E+00    0.89       0.0  T
   2     -9.6384683  0.610680E+00  0.976E+00    0.00       1.0  T
   3    -10.2725052 -0.634037E+00  0.271E+00    0.58       1.0  T
   4    -10.2820850 -0.957982E-02  0.211E+00    0.43       1.0  T
   5    -10.2929447 -0.108597E-01  0.117E+00    0.23       1.0  T
   6    -10.2631383  0.298064E-01  0.273E+00    0.05       1.0  T
   7    -10.2910642 -0.279259E-01  0.129E+00    0.09       1.0  T
   8    -10.2976615 -0.659732E-02  0.528E-01    0.11       1.0  T
   9    -10.2311855  0.664760E-01  0.374E+00    0.04       1.0  T
  10    -10.2989574 -0.677718E-01  0.439E-02    0.13       1.0  T
  11    -10.2970005  0.195681E-02  0.647E-01    0.11       1.0  T
  12    -10.2987716 -0.177108E-02  0.205E-01    0.12       1.0  T
  13    -10.2989243 -0.152657E-03  0.959E-02    0.13       1.0  T
  14    -10.2989634 -0.391474E-04  0.272E-02    0.13       1.6  T
  15    -10.2989636 -0.211855E-06  0.260E-02    0.13       1.7  T
  16    -10.2989657 -0.209812E-05  0.148E-02    0.13       3.0  T
  17    -10.2989660 -0.273767E-06  0.126E-02    0.13       3.5  T
  18    -10.2989662 -0.184143E-06  0.109E-02    0.13       4.1  T
  19    -10.2989667 -0.520280E-06  0.242E-03    0.13      18.4  T
  20    -10.2989667 -0.242117E-07  0.810E-04    0.13      55.2  T
  21    -10.2989667 -0.274323E-08  0.246E-04    0.13     181.6  T
     SCC iter.                  ...        0 min,  0.002 sec
     gradient                   ...        0 min,  0.002 sec
 * total energy  :   -10.1751094 Eh     change       -0.4444710E-01 Eh
   gradient norm :     0.1841517 Eh/α   predicted    -0.2300023E-01 ( -48.25%)
   displ. norm   :     0.9431311 α      lambda       -0.1728124E+00
   maximum displ.:     0.9298336 α      in ANC's #5, #9, #1, ...

........................................................................
.............................. CYCLE    3 ..............................
........................................................................
   1    -10.4189993 -0.104190E+02  0.536E+00    2.89       0.0  T
   2    -10.4120775  0.692183E-02  0.358E+00    2.56       1.0  T
   3    -10.3344093  0.776682E-01  0.374E+00    3.40       1.0  T
   4    -10.4248828 -0.904734E-01  0.338E-01    2.76       1.0  T
   5    -10.4249464 -0.636069E-04  0.218E-01    2.76       1.0  T
   6    -10.4250013 -0.549004E-04  0.196E-02    2.77       2.3  T
   7    -10.4250004  0.866838E-06  0.155E-02    2.77       2.9  T
   8    -10.4250020 -0.161146E-05  0.248E-03    2.77      18.1  T
   9    -10.4250020 -0.160913E-07  0.465E-04    2.77      96.3  T
  10    -10.4250020 -0.274586E-09  0.196E-04    2.77     228.0  T
     SCC iter.                  ...        0 min,  0.001 sec
     gradient                   ...        0 min,  0.002 sec
 * total energy  :   -10.1140776 Eh     change        0.6103181E-01 Eh
   gradient norm :     0.5015613 Eh/α   predicted    -0.1632642E+00 (-367.51%)
   displ. norm   :     0.4723790 α      lambda       -0.2092302E+00
   maximum displ.:     0.4719643 α      in ANC's #5, #9, #1, ...

........................................................................
.............................. CYCLE    4 ..............................
........................................................................
   1    -10.3665021 -0.103665E+02  0.287E+00    2.02       0.0  T
   2    -10.3666395 -0.137398E-03  0.177E+00    1.66       1.0  T
   3    -10.3590732  0.756630E-02  0.130E+00    2.08       1.0  T
   4    -10.3680310 -0.895780E-02  0.172E-01    1.68       1.0  T
   5    -10.3680538 -0.228321E-04  0.285E-02    1.63       1.6  T
   6    -10.3680387  0.150754E-04  0.480E-02    1.63       1.0  T
   7    -10.3680573 -0.186006E-04  0.705E-03    1.63       6.3  T
   8    -10.3680574 -0.345472E-07  0.777E-04    1.63      57.5  T
   9    -10.3680574 -0.204541E-08  0.358E-04    1.63     124.8  T
     SCC iter.                  ...        0 min,  0.001 sec
     gradient                   ...        0 min,  0.002 sec
 * total energy  :   -10.2166031 Eh     change       -0.1025255E+00 Eh
   gradient norm :     0.0347404 Eh/α   predicted    -0.1279591E+00 (  24.81%)
   displ. norm   :     0.0497568 α      lambda       -0.1724767E-02
   maximum displ.:     0.0459971 α      in ANC's #5, #9, #2, ...

........................................................................
.............................. CYCLE    5 ..............................
........................................................................
   1    -10.3648296 -0.103648E+02  0.338E-01    1.51       0.0  T
   2    -10.3648380 -0.839568E-05  0.212E-01    1.44       1.0  T
   3    -10.3647718  0.662435E-04  0.155E-01    1.50       1.0  T
   4    -10.3648707 -0.988960E-04  0.207E-02    1.45       2.2  T
   5    -10.3648628  0.782122E-05  0.334E-02    1.45       1.3  T
   6    -10.3648714 -0.853660E-05  0.119E-03    1.44      37.7  T
   7    -10.3648714 -0.485893E-08  0.403E-04    1.44     111.0  T
   8    -10.3648714  0.967937E-11  0.129E-04    1.44     347.0  T
     SCC iter.                  ...        0 min,  0.001 sec
     gradient                   ...        0 min,  0.002 sec
 * total energy  :   -10.2177186 Eh     change       -0.1115493E-02 Eh
   gradient norm :     0.0137315 Eh/α   predicted    -0.8645201E-03 ( -22.50%)
   displ. norm   :     0.0223800 α      lambda       -0.2664594E-03
   maximum displ.:     0.0182626 α      in ANC's #5, #9, #1, ...

........................................................................
.............................. CYCLE    6 ..............................
........................................................................
   1    -10.3649515 -0.103650E+02  0.160E-01    1.39       0.0  T
   2    -10.3649545 -0.301848E-05  0.101E-01    1.36       1.0  T
   3    -10.3649442  0.103422E-04  0.722E-02    1.39       1.0  T
   4    -10.3649630 -0.187669E-04  0.908E-03    1.36       4.9  T
   5    -10.3649628  0.156631E-06  0.509E-03    1.36       8.8  T
   6    -10.3649630 -0.207686E-06  0.927E-04    1.36      48.2  T
   7    -10.3649630 -0.593694E-08  0.240E-04    1.36     186.7  T
     SCC iter.                  ...        0 min,  0.001 sec
     gradient                   ...        0 min,  0.002 sec
 * total energy  :   -10.2178667 Eh     change       -0.1481056E-03 Eh
   gradient norm :     0.0073142 Eh/α   predicted    -0.1332958E-03 ( -10.00%)
   displ. norm   :     0.0042369 α      lambda       -0.2651102E-04
   maximum displ.:     0.0042057 α      in ANC's #9, #5, #1, ...

........................................................................
.............................. CYCLE    7 ..............................
........................................................................
   1    -10.3660506 -0.103661E+02  0.277E-02    1.36       0.0  T
   2    -10.3660508 -0.157959E-06  0.179E-02    1.35       2.5  T
   3    -10.3660507  0.162425E-07  0.128E-02    1.36       3.5  T
   4    -10.3660512 -0.428759E-06  0.159E-03    1.35      28.2  T
   5    -10.3660512  0.127394E-07  0.144E-03    1.35      31.1  T
   6    -10.3660512 -0.583016E-08  0.104E-03    1.35      43.1  T
   7    -10.3660512 -0.846821E-08  0.124E-04    1.35     362.0  T
   8    -10.3660512 -0.442668E-11  0.159E-05    1.35    2810.6  T
     SCC iter.                  ...        0 min,  0.001 sec
     gradient                   ...        0 min,  0.002 sec
 * total energy  :   -10.2178868 Eh     change       -0.2005068E-04 Eh
   gradient norm :     0.0042943 Eh/α   predicted    -0.1325686E-04 ( -33.88%)
   displ. norm   :     0.0045931 α      lambda       -0.1929256E-04
   maximum displ.:     0.0038988 α      in ANC's #9, #5, #1, ...

........................................................................
.............................. CYCLE    8 ..............................
........................................................................
   1    -10.3675711 -0.103676E+02  0.236E-02    1.36       0.0  T
   2    -10.3675713 -0.112950E-06  0.148E-02    1.35       3.0  T
   3    -10.3675712  0.862006E-07  0.105E-02    1.36       4.3  T
   4    -10.3675715 -0.313248E-06  0.144E-03    1.36      31.0  T
   5    -10.3675715  0.229572E-08  0.120E-03    1.36      37.2  T
   6    -10.3675715  0.106689E-07  0.151E-03    1.36      29.7  T
   7    -10.3675715 -0.172456E-07  0.113E-04    1.36     397.1  T
   8    -10.3675715 -0.689226E-11  0.129E-05    1.36    3479.6  T
     SCC iter.                  ...        0 min,  0.001 sec
     gradient                   ...        0 min,  0.002 sec
 * total energy  :   -10.2178968 Eh     change       -0.1003788E-04 Eh
   gradient norm :     0.0003819 Eh/α   predicted    -0.9646572E-05 (  -3.90%)
   displ. norm   :     0.0016359 α      lambda       -0.3234026E-06
   maximum displ.:     0.0013763 α      in ANC's #1, #5, #2, ...

........................................................................
.............................. CYCLE    9 ..............................
........................................................................
   1    -10.3676862 -0.103677E+02  0.124E-02    1.36       0.0  T
   2    -10.3676862 -0.651778E-07  0.725E-03    1.36       6.2  T
   3    -10.3676862  0.395929E-08  0.440E-03    1.36      10.2  T
   4    -10.3676863 -0.326397E-07  0.624E-04    1.36      71.7  T
   5    -10.3676863 -0.708461E-09  0.519E-04    1.36      86.2  T
     SCC iter.                  ...        0 min,  0.001 sec
     gradient                   ...        0 min,  0.001 sec
 * total energy  :   -10.2178973 Eh     change       -0.4776194E-06 Eh
   gradient norm :     0.0005327 Eh/α   predicted    -0.1629808E-06 ( -65.88%)
   displ. norm   :     0.8511336 α      lambda       -0.1669987E-03
   maximum displ.:     0.7241931 α      in ANC's #1, #5, #2, ...

   *** GEOMETRY OPTIMIZATION CONVERGED AFTER 9 ITERATIONS ***

------------------------------------------------------------------------
 total energy gain   :        -0.0872349 Eh      -54.7407 kcal/mol
 total RMSD          :         0.2846781 a0        0.1506 Å
 total power (kW/mol):       -25.4483636 (step)-6064.7838 (real)
------------------------------------------------------------------------

 ANCopt (total)                0 d,  0 h,  0 min,  0.038 sec
 optimizer setup                ...        0 min,  0.000 sec (  0.162%)
 model hessian                  ...        0 min,  0.000 sec (  0.267%)
 ANC generation                 ...        0 min,  0.000 sec (  0.133%)
 coordinate transformation      ...        0 min,  0.000 sec (  0.051%)
 single point calculation       ...        0 min,  0.037 sec ( 97.444%)
 optimization log               ...        0 min,  0.000 sec (  0.513%)
 hessian update                 ...        0 min,  0.000 sec (  0.056%)
 rational function              ...        0 min,  0.000 sec (  0.628%)

================
 final structure:
================
5
 xtb: 6.2.2 (9d81278992624c895f80dd42a50cac0aa55982e2)
C        -0.65036290170908   -0.79614640393632    0.03481656258872
C        -0.14863135186133    0.41002598523312    0.98807150343586
C         0.72491731273731    0.59047531427847   -0.36086390848501
C        -0.66936090221173    0.49053246713551   -0.53971116799386
C         0.74343784304484   -0.69488836271078    0.21661601045428

 Bond Distances (Angstroems)
 ---------------------------
C1-C2=1.6172         C1-C4=1.4092         C1-C5=1.4092         C2-C1=1.6172         C2-C3=1.6172         C2-C4=1.6161         
C2-C5=1.6161         C3-C2=1.6172         C3-C4=1.4093         C3-C5=1.4093         C4-C1=1.4092         C4-C2=1.6161         
C4-C3=1.4093         C5-C1=1.4092         C5-C2=1.6161         C5-C3=1.4093         
 C  C  Rav=1.5129 sigma=0.1037  Rmin=1.4092  Rmax=1.6172     8

 selected bond angles (degree)
 --------------------
C4-C1-C2= 64.12                C5-C1-C2= 64.12                C5-C1-C4= 90.02                C3-C2-C1= 76.06                
C4-C2-C1= 51.68                C4-C2-C3= 51.68                C5-C2-C1= 51.68                C5-C2-C3= 51.68                
C5-C2-C4= 76.15                C4-C3-C2= 64.12                C5-C3-C2= 64.12                C5-C3-C4= 90.02                
C2-C4-C1= 64.20                C3-C4-C1= 89.98                C3-C4-C2= 64.20                C2-C5-C1= 64.20                
C3-C5-C1= 89.98                C3-C5-C2= 64.20                

 selected dihedral angles (degree)
 ---------------------------------
C3-C2-C1-C4=308.18            C3-C2-C1-C5= 51.82            C4-C2-C1-C5=103.64            C5-C2-C1-C4=256.36            
C4-C3-C2-C1= 51.82            C4-C3-C2-C5=103.64            C5-C3-C2-C1=308.18            C5-C3-C2-C4=256.36            
C2-C4-C1-C5=299.03            C3-C4-C1-C2= 61.10            C3-C4-C1-C5=  0.13            C1-C4-C2-C3=103.49            
C1-C4-C2-C5= 51.75            C3-C4-C2-C1=256.51            C3-C4-C2-C5=308.25            C1-C4-C3-C2=298.90            
C1-C4-C3-C5=359.87            C2-C4-C3-C5= 60.97            C2-C5-C1-C4= 60.97            C3-C5-C1-C2=298.90            
C3-C5-C1-C4=359.87            C1-C5-C2-C3=256.51            C1-C5-C2-C4=308.25            C3-C5-C2-C1=103.49            
C3-C5-C2-C4= 51.75            C1-C5-C3-C2= 61.10            C1-C5-C3-C4=  0.13            C2-C5-C3-C4=299.03            
           -------------------------------------------------
          |                Final Singlepoint                |
           -------------------------------------------------

          ...................................................
          :                      SETUP                      :
          :.................................................:
          :  # basis functions                  20          :
          :  # atomic orbitals                  20          :
          :  # shells                           10          :
          :  # electrons                        20          :
          :  max. iterations                   250          :
          :  Hamiltonian                  GFN2-xTB          :
          :  restarted?                      false          :
          :  GBSA solvation                  false          :
          :  PC potential                    false          :
          :  electronic temp.          300.0000000     K    :
          :  accuracy                    1.0000000          :
          :  -> integral cutoff          0.2500000E+02      :
          :  -> integral neglect         0.1000000E-07      :
          :  -> SCF convergence          0.1000000E-05 Eh   :
          :  -> wf. convergence          0.1000000E-03 e    :
          :  Broyden damping             0.4000000          :
          ...................................................

 iter      E             dE          RMSdq      gap      omega  full diag
   1    -10.3676863 -0.103677E+02  0.328E-04    1.36       0.0  T
   2    -10.3676863  0.102716E-08  0.335E-04    1.36     133.4  T
   3    -10.3676863 -0.320219E-09  0.395E-04    1.36     113.3  T

   *** convergence criteria satisfied after 3 iterations ***

         #    Occupation            Energy/Eh            Energy/eV
      -------------------------------------------------------------
         1        2.0000           -0.7683135             -20.9069
       ...           ...                  ...                  ...
         4        2.0000           -0.6251566             -17.0114
         5        2.0000           -0.5610630             -15.2673
         6        2.0000           -0.5001580             -13.6100
         7        2.0000           -0.4823233             -13.1247
         8        2.0000           -0.4718814             -12.8405
         9        2.0000           -0.4715638             -12.8319
        10        2.0000           -0.4404015             -11.9839 (HOMO)
        11                         -0.3905517             -10.6275 (LUMO)
        12                         -0.3902874             -10.6203
        13                         -0.2119711              -5.7680
        14                         -0.1548455              -4.2136
        15                         -0.1539608              -4.1895
       ...                                ...                  ...
        20                          0.5586968              15.2029
      -------------------------------------------------------------
                  HL-Gap            0.0498498 Eh            1.3565 eV
             Fermi-level           -0.4157377 Eh          -11.3128 eV

 SCC (total)                   0 d,  0 h,  0 min,  0.004 sec
 SCC setup                      ...        0 min,  0.000 sec (  1.301%)
 Dispersion                     ...        0 min,  0.000 sec (  0.503%)
 integral evaluation            ...        0 min,  0.001 sec ( 38.660%)
 zeroth order Hamiltonian       ...        0 min,  0.000 sec (  0.449%)
 iterations                     ...        0 min,  0.000 sec ( 11.760%)
 molecular gradient             ...        0 min,  0.002 sec ( 44.147%)
 printout                       ...        0 min,  0.000 sec (  2.925%)

         :::::::::::::::::::::::::::::::::::::::::::::::::::::
         ::                     SUMMARY                     ::
         :::::::::::::::::::::::::::::::::::::::::::::::::::::
         :: total energy             -10.217897268946 Eh    ::
         :: gradient norm              0.000532823932 Eh/a0 ::
         :: HOMO-LUMO gap              1.356482650529 eV    ::
         ::.................................................::
         :: SCC energy               -10.367686268285 Eh    ::
         :: -> isotropic ES           -0.007818002711 Eh    ::
         :: -> anisotropic ES          0.001352713662 Eh    ::
         :: -> anisotropic XC          0.002674710368 Eh    ::
         :: -> dispersion             -0.002327522474 Eh    ::
         :: repulsion energy           0.149788985418 Eh    ::
         :: add. restraining           0.000000000000 Eh    ::
         :::::::::::::::::::::::::::::::::::::::::::::::::::::

           ------------------------------------------------- 
          |                Numerical Hessian                |
           ------------------------------------------------- 
step length          :   0.00500
SCC accuracy         :   0.30000
Hessian scale factor :   1.00000
frozen atoms in %    :   0.00000    0
RMS gradient         :   0.00053
estimated CPU  time      0.00 min
estimated wall time      0.00 min

writing file <hessian>.

 projected vibrational frequencies (cm-1)
eigval :       -0.00    -0.00    -0.00     0.00     0.00     0.00
eigval :     -579.64   520.52   522.11   687.83  1040.55  1173.60
eigval :     1200.46  1200.83  1430.36
           -------------------------------------------------
          |                Property Printout                |
           -------------------------------------------------

    * Orbital Energies and Occupations

         #    Occupation            Energy/Eh            Energy/eV
      -------------------------------------------------------------
         1        2.0000           -0.7683135             -20.9069
         2        2.0000           -0.6529952             -17.7689
         3        2.0000           -0.6529753             -17.7684
         4        2.0000           -0.6251568             -17.0114
         5        2.0000           -0.5610630             -15.2673
         6        2.0000           -0.5001580             -13.6100
         7        2.0000           -0.4823233             -13.1247
         8        2.0000           -0.4718815             -12.8405
         9        2.0000           -0.4715639             -12.8319
        10        2.0000           -0.4404019             -11.9839 (HOMO)
        11                         -0.3905517             -10.6275 (LUMO)
        12                         -0.3902874             -10.6203
        13                         -0.2119711              -5.7680
        14                         -0.1548456              -4.2136
        15                         -0.1539609              -4.1895
        16                          0.0234425               0.6379
        17                          0.1544527               4.2029
        18                          0.1549317               4.2159
        19                          0.1668461               4.5401
        20                          0.5586968              15.2029
      -------------------------------------------------------------
                  HL-Gap            0.0498502 Eh            1.3565 eV
             Fermi-level           -0.4157376 Eh          -11.3128 eV

     #   Z        covCN         q      C6AA      α(0)
     1   6 C      3.426     0.037    22.846     7.303
     2   6 C      3.841    -0.149    23.351     6.874
     3   6 C      3.426     0.037    22.846     7.303
     4   6 C      3.425     0.038    22.854     7.308
     5   6 C      3.425     0.038    22.854     7.308

 Mol. C6AA /au·bohr⁶  :        573.519563
 Mol. C8AA /au·bohr⁸  :      16587.182401
 Mol. α(0) /au        :         36.095875


Wiberg/Mayer (AO) data.
largest (>0.10) Wiberg bond orders for each atom
          total WBO             WBO to atom ...
     1  C   3.523        C    5 1.079    C    4 1.079    C    3 0.688    C    2 0.677
     2  C   2.709        C    4 0.678    C    5 0.678    C    3 0.677    C    1 0.677
     3  C   3.523        C    5 1.079    C    4 1.079    C    1 0.688    C    2 0.677
     4  C   3.525        C    1 1.079    C    3 1.079    C    5 0.688    C    2 0.678
     5  C   3.525        C    1 1.079    C    3 1.079    C    4 0.688    C    2 0.678

MOs/occ written to file <molden.input>


molecular dipole:
                 x           y           z       tot (Debye)
 q only:        0.052      -0.145      -0.325
   full:        0.087      -0.241      -0.540       1.520
molecular quadrupole (traceless):
                xx          xy          yy          xz          yz          zz
 q only:        0.409       0.066       0.243       0.167      -0.456      -0.651
  q+dip:        1.609       0.278       0.912       0.673      -1.842      -2.521
   full:        1.616       0.281       0.917       0.675      -1.851      -2.533

           -------------------------------------------------
          |                Geometry Summary                 |
           -------------------------------------------------

      molecular mass/u    :       60.0536795
   center of mass at/Å    :        0.0000002      -0.0000001       0.0677858
  moments of inertia/u·Å² :        0.3941641E+02   0.3943188E+02   0.4770624E+02
rotational constants/cm⁻¹ :        0.4276805E+00   0.4275128E+00   0.3533633E+00

 * 4 selected distances

     #   Z        #   Z                                     value/Å
     1   6 C      4   6 C                                 1.4092500
     3   6 C      4   6 C                                 1.4092504 (max)
     1   6 C      5   6 C                                 1.4092497 (min)
     3   6 C      5   6 C                                 1.4092501

 * 1 distinct bonds (by element types)

   Z      Z             #   av. dist./Å        max./Å        min./Å
   6 C    6 C           4     1.4092500     1.4092504     1.4092497

           -------------------------------------------------
          |               Frequency Printout                |
           -------------------------------------------------
 projected vibrational frequencies (cm-1)
eigval :       -0.00    -0.00    -0.00     0.00     0.00     0.00
eigval :     -579.64   520.52   522.11   687.83  1040.55  1173.60
eigval :     1200.46  1200.83  1430.36
 reduced masses (amu)
   1: 12.01   2: 12.01   3: 12.01   4: 12.01   5: 12.01   6: 12.01   7: 12.01   8: 12.01
   9: 12.01  10: 12.01  11: 12.01  12: 12.01  13: 12.01  14: 12.01  15: 12.01
 IR intensities (amu)
   1:  0.12   2:  0.15   3:  0.06   4:  0.08   5:  0.09   6:  0.07   7:  0.04   8:  0.48
   9:  0.45  10:  0.06  11:  0.26  12:  0.01  13:  1.74  14:  1.74  15:  0.36
 Raman intensities (amu)
   1:  0.00   2:  0.00   3:  0.00   4:  0.00   5:  0.00   6:  0.00   7:  0.00   8:  0.00
Refinement of some symmetry elements was terminated before convergence was reached.
Some symmetry elements may remain unidentified.
Molecule has the following symmetry elements: (C4) (C2) 4*(sigma) 
It seems to be the C4v point group
   9:  0.00  10:  0.00  11:  0.00  12:  0.00  13:  0.00  14:  0.00  15:  0.00
 output can be read by thermo (or use thermo option).
 writing <g98.out> molden fake output.
 recommended (thermochemical) frequency scaling factor: 1.0
           -------------------------------------------------
          |             Thermodynamic Functions             |
           -------------------------------------------------

c4v symmetry found (for desy threshold:  0.10E+00) used in thermo

          ...................................................
          :                      SETUP                      :
          :.................................................:
          :  # frequencies                           8      :
          :  # imaginary freq.                       1      :
          :  linear?                             false      :
          :  only rotor calc.                    false      :
          :  symmetry                              c4v      :
          :  rotational number                       4      :
          :  scaling factor                  1.0000000      :
          :  rotor cutoff                   50.0000000 cm⁻¹ :
          :  imag. cutoff                  -20.0000000 cm⁻¹ :
          :.................................................:

    mode    ω/cm⁻¹     T·S(HO)/kcal·mol⁻¹    T·S(FR)/kcal·mol⁻¹   T·S(vib)
   ------------------------------------------------------------------------
   ------------------------------------------------------------------------

   temp. (K)  partition function   enthalpy   heat capacity  entropy
                                   cal/mol     cal/K/mol   cal/K/mol   J/K/mol
 298.15  VIB   1.25                  392.426      4.320      1.759
         ROT  0.520E+04              888.752      2.981     19.985
         INT  0.650E+04             1281.178      7.301     21.743
         TR   0.450E+27             1481.254      4.968     38.181
         TOT                        2762.4322    12.2693    59.9241   250.7226

   temp. (K)  partition function   enthalpy   heat capacity  entropy
                                   cal/mol     cal/K/mol   cal/K/mol   J/K/mol
 120.00  VIB   1.00                    6.297      0.338      0.061
         ROT  0.133E+04              357.707      2.981     17.272
         INT  0.133E+04              364.004      3.319     17.333
         TR   0.115E+27              596.178      4.968     33.661
         TOT                         960.1817     8.2872    50.9940   213.3588

   temp. (K)  partition function   enthalpy   heat capacity  entropy
                                   cal/mol     cal/K/mol   cal/K/mol   J/K/mol
 100.00  VIB   1.00                    1.749      0.134      0.020
         ROT  0.101E+04              298.089      2.981     16.728
         INT  0.101E+04              299.838      3.115     16.748
         TR   0.875E+26              496.815      4.968     32.756
         TOT                         796.6532     8.0828    49.5042   207.1257

   temp. (K)  partition function   enthalpy   heat capacity  entropy
                                   cal/mol     cal/K/mol   cal/K/mol   J/K/mol
  80.00  VIB   1.00                    0.261      0.031      0.004
         ROT   723.                  238.471      2.981     16.063
         INT   723.                  238.732      3.012     16.067
         TR   0.626E+26              397.452      4.968     31.648
         TOT                         636.1843     7.9800    47.7148   199.6385

   temp. (K)  partition function   enthalpy   heat capacity  entropy
                                   cal/mol     cal/K/mol   cal/K/mol   J/K/mol
  60.00  VIB   1.00                    0.011      0.002      0.000
         ROT   469.                  178.853      2.981     15.206
         INT   469.                  178.865      2.983     15.206
         TR   0.406E+26              298.089      4.968     30.219
         TOT                         476.9536     7.9514    45.4252   190.0590

   temp. (K)  partition function   enthalpy   heat capacity  entropy
                                   cal/mol     cal/K/mol   cal/K/mol   J/K/mol
  40.00  VIB   1.00                    0.000      0.000     -0.000
         ROT   256.                  119.236      2.981     13.997
         INT   256.                  119.236      2.981     13.997
         TR   0.221E+26              198.726      4.968     28.206
         TOT                         317.9616     7.9491    42.2028   176.5766

   temp. (K)  partition function   enthalpy   heat capacity  entropy
                                   cal/mol     cal/K/mol   cal/K/mol   J/K/mol
  20.00  VIB   1.00                    0.000      0.000     -0.000
         ROT   90.3                   59.618      2.981     11.931
         INT   90.3                   59.618      2.981     11.931
         TR   0.782E+25               99.363      4.968     24.764
         TOT                         158.9808     7.9490    36.6945   153.5298

   temp. (K)  partition function   enthalpy   heat capacity  entropy
                                   cal/mol     cal/K/mol   cal/K/mol   J/K/mol
  10.00  VIB   1.00                    0.000      0.000     -0.000
         ROT   31.9                   29.809      2.981      9.865
         INT   31.9                   29.809      2.981      9.864
         TR   0.277E+25               49.681      4.968     21.322
         TOT                          79.4904     7.9490    31.1862   130.4830

       T/K    H(0)-H(T)+PV         H(T)/Eh          T*S/Eh         G(T)/Eh
   ------------------------------------------------------------------------
    298.15    0.440222E-02    0.221178E-01    0.284719E-01   -0.635406E-02
    120.00    0.153015E-02    0.192458E-01    0.975169E-02    0.949408E-02
    100.00    0.126955E-02    0.189852E-01    0.788900E-02    0.110962E-01
     80.00    0.101382E-02    0.187294E-01    0.608306E-02    0.126464E-01
     60.00    0.760074E-03    0.184757E-01    0.434338E-02    0.141323E-01
     40.00    0.506704E-03    0.182223E-01    0.269018E-02    0.155321E-01
     20.00    0.253352E-03    0.179690E-01    0.116953E-02    0.167994E-01
     10.00    0.126676E-03    0.178423E-01    0.496984E-03    0.173453E-01 (used)
   ------------------------------------------------------------------------

         :::::::::::::::::::::::::::::::::::::::::::::::::::::
         ::                  THERMODYNAMIC                  ::
         :::::::::::::::::::::::::::::::::::::::::::::::::::::
         :: total free energy         -10.200551954864 Eh   ::
         ::.................................................::
         :: total energy              -10.217897269701 Eh   ::
         :: zero point energy           0.017715622389 Eh   ::
         :: G(RRHO) w/o ZPVE           -0.000370307552 Eh   ::
         :: G(RRHO) contrib.            0.017345314837 Eh   ::
         :::::::::::::::::::::::::::::::::::::::::::::::::::::
imag cut-off (cm-1) :    5.00
 found            1  significant imaginary frequency
 writing imag mode distorted coords to xtbhess.xyz
 for further optimization.

optimized geometry written to: xtbopt.xyz


           -------------------------------------------------
          | TOTAL ENERGY              -10.217897269701 Eh   |
          | TOTAL ENTHALPY            -10.200054971296 Eh   |
          | TOTAL FREE ENERGY         -10.200551954864 Eh   |
          | GRADIENT NORM               0.000532781099 Eh/α |
          | HOMO-LUMO GAP               1.356493658193 eV   |
           -------------------------------------------------

------------------------------------------------------------------------
 * finished run on 2020/05/12 at 11:44:38.951     
------------------------------------------------------------------------
 total:
 * wall-time:     0 d,  0 h,  0 min,  0.177 sec
 *  cpu-time:     0 d,  0 h,  0 min,  0.177 sec
 * ratio c/w:     0.998 speedup
 SCF:
 * wall-time:     0 d,  0 h,  0 min,  0.005 sec
 *  cpu-time:     0 d,  0 h,  0 min,  0.005 sec
 * ratio c/w:     1.000 speedup
 ANC optimizer:
 * wall-time:     0 d,  0 h,  0 min,  0.042 sec
 *  cpu-time:     0 d,  0 h,  0 min,  0.042 sec
 * ratio c/w:     0.998 speedup
 numerical hessian:
 * wall-time:     0 d,  0 h,  0 min,  0.112 sec
 *  cpu-time:     0 d,  0 h,  0 min,  0.112 sec
 * ratio c/w:     0.998 speedup

