 Entering Gaussian System
 *********************************************
 Gaussian 98:
 frequency output generated by the xtb code
 *********************************************
                         Standard orientation:
 --------------------------------------------------------------------
  Center     Atomic     Atomic              Coordinates (Angstroms)
  Number     Number      Type              X           Y           Z
 --------------------------------------------------------------------
    1          6             0       -0.650367   -0.796143    0.034820
    2          6             0       -0.148626    0.410028    0.988071
    3          6             0        0.724919    0.590471   -0.360867
    4          6             0       -0.669360    0.490535   -0.539710
    5          6             0        0.743435   -0.694892    0.216615
 --------------------------------------------------------------------
     1 basis functions        1 primitive gaussians
     1 alpha electrons        1 beta electrons

 Harmonic frequencies (cm**-1), IR intensities (KM/Mole),
 Raman scattering activities (A**4/amu), Raman depolarization ratios,
 reduced masses (AMU), force constants (mDyne/A) and normal coordinates:
                      1                      2                      3
                        a                      a                      a 
 Frequencies --  -579.6438               520.5213               522.1083
 Red. masses --    12.0107                12.0107                12.0107
 Frc consts  --     0.0000                 0.0000                 0.0000
 IR Inten    --     0.0431                 0.4761                 0.4521
 Raman Activ --     0.0000                 0.0000                 0.0000
 Depolar     --     0.0000                 0.0000                 0.0000
 Atom AN      X      Y      Z        X      Y      Z        X      Y      Z
   1   6     0.04  -0.24  -0.44     0.02   0.12   0.40     0.23  -0.23   0.01
   2   6    -0.00   0.00   0.00    -0.57  -0.33   0.05    -0.32   0.51  -0.28
   3   6     0.11  -0.17  -0.46     0.14  -0.20  -0.34     0.19  -0.13   0.22
   4   6    -0.04   0.17   0.47     0.19   0.25   0.05    -0.11   0.09   0.39
   5   6    -0.11   0.23   0.43     0.23   0.16  -0.17     0.01  -0.24  -0.34
                      4                      5                      6
                        a                      a                      a 
 Frequencies --   687.8340              1040.5473              1173.6031
 Red. masses --    12.0107                12.0107                12.0107
 Frc consts  --     0.0000                 0.0000                 0.0000
 IR Inten    --     0.0592                 0.2633                 0.0149
 Raman Activ --     0.0000                 0.0000                 0.0000
 Depolar     --     0.0000                 0.0000                 0.0000
 Atom AN      X      Y      Z        X      Y      Z        X      Y      Z
   1   6     0.35   0.33  -0.14     0.12   0.00  -0.22     0.36  -0.30   0.19
   2   6    -0.00  -0.00  -0.00    -0.13   0.35   0.78     0.00  -0.00   0.00
   3   6    -0.34  -0.37   0.05    -0.06  -0.18  -0.17    -0.35   0.30  -0.19
   4   6    -0.36   0.32  -0.14     0.12  -0.16  -0.15     0.34   0.35  -0.10
   5   6     0.35  -0.28   0.23    -0.06  -0.01  -0.25    -0.35  -0.35   0.10
                      7                      8                      9
                        a                      a                      a 
 Frequencies --  1200.4629              1200.8259              1430.3567
 Red. masses --    12.0107                12.0107                12.0107
 Frc consts  --     0.0000                 0.0000                 0.0000
 IR Inten    --     1.7381                 1.7369                 0.3603
 Raman Activ --     0.0000                 0.0000                 0.0000
 Depolar     --     0.0000                 0.0000                 0.0000
 Atom AN      X      Y      Z        X      Y      Z        X      Y      Z
   1   6     0.33   0.43   0.01     0.32  -0.24   0.16    -0.32  -0.36   0.04
   2   6    -0.15  -0.14   0.04     0.14  -0.13   0.08    -0.03   0.09   0.21
   3   6     0.37   0.33  -0.23     0.32  -0.24   0.15     0.34   0.31  -0.15
   4   6    -0.28  -0.31   0.10    -0.37   0.25  -0.31    -0.33   0.26  -0.24
   5   6    -0.28  -0.31   0.09    -0.41   0.35  -0.08     0.35  -0.31   0.13
