[Molden Format]
[Title]
[Atoms] AU
C      1     6 -0.34281311770092E-02 -0.51821035074285E+00 -0.31466971906727E+01
N      2     7 -0.78706508222707E+00  0.16387359698874E+00  0.17767745909827E+01
C      3     6  0.23004851813565E+01  0.53982625987163E-01 -0.19702748209556E+01
C      4     6 -0.18217391975552E+01  0.31577587473734E+00  0.37418783465830E+01
C      5     6  0.31174911933854E+00 -0.15419857254333E-01 -0.40168092594718E+00
[GTO]
           1 0
 s           4   1.0000000000000000     
   51.049363095579913      -0.16312063210127389     
   8.7911227406887544      -0.19911024581000730     
  0.70640422258929825       0.31882047753655751     
  0.26922813413411617       0.12706504184240380     
 p           4   1.0000000000000000     
   5.8263656140800002       0.73716451545209605     
   1.5106896018720002       0.68216371614850257     
  0.53256483288000001       0.35783053929253711     
  0.21202323690600003        5.3983030275847881E-002

           2 0
 s           4   1.0000000000000000     
   63.594024466941008      -0.19234388414721629     
   10.951417231523665      -0.23478107924953728     
  0.87999310257376984       0.37593753901700888     
  0.33538715296521110       0.14982889271862770     
 p           4   1.0000000000000000     
   7.2965040481495080       0.97658666315667420     
   1.8918745450712575       0.90372226730345739     
  0.66694432110824120       0.47404958461536373     
  0.26552202674130870        7.1516067715011844E-002

           3 0
 s           4   1.0000000000000000     
   51.049363095579913      -0.16312063210127389     
   8.7911227406887544      -0.19911024581000730     
  0.70640422258929825       0.31882047753655751     
  0.26922813413411617       0.12706504184240380     
 p           4   1.0000000000000000     
   5.8263656140800002       0.73716451545209605     
   1.5106896018720002       0.68216371614850257     
  0.53256483288000001       0.35783053929253711     
  0.21202323690600003        5.3983030275847881E-002

           4 0
 s           4   1.0000000000000000     
   51.049363095579913      -0.16312063210127389     
   8.7911227406887544      -0.19911024581000730     
  0.70640422258929825       0.31882047753655751     
  0.26922813413411617       0.12706504184240380     
 p           4   1.0000000000000000     
   5.8263656140800002       0.73716451545209605     
   1.5106896018720002       0.68216371614850257     
  0.53256483288000001       0.35783053929253711     
  0.21202323690600003        5.3983030275847881E-002

           5 0
 s           4   1.0000000000000000     
   51.049363095579913      -0.16312063210127389     
   8.7911227406887544      -0.19911024581000730     
  0.70640422258929825       0.31882047753655751     
  0.26922813413411617       0.12706504184240380     
 p           4   1.0000000000000000     
   5.8263656140800002       0.73716451545209605     
   1.5106896018720002       0.68216371614850257     
  0.53256483288000001       0.35783053929253711     
  0.21202323690600003        5.3983030275847881E-002

[MO]
Sym=     1a
Ene=  -0.72864001384306565     
Spin= Alpha
Occup=     2.00000000
           1 -0.24429762497801283     
           2  -4.6640878526139178E-002
           3  -2.5049922463054500E-002
           4 -0.10571425782307342     
           5 -0.37742160762721388     
           6  -5.4818369399518466E-002
           7   9.1969789125425083E-003
           8  0.10980051131337422     
           9 -0.26264016534371520     
          10  0.13796632747217669     
          11   1.4633301431636613E-002
          12  -4.8949356241307265E-002
          13 -0.10706172680818166     
          14  -3.4927107625290055E-002
          15   5.2642673213060863E-003
          16   6.6939456090036875E-002
          17 -0.46838881272928151     
          18   5.7083478434155482E-003
          19  -3.7630014585299400E-004
          20  -7.2838205817233725E-003
Sym=     2a
Ene=  -0.71804875887507236     
Spin= Alpha
Occup=     2.00000000
           1 -0.22959051280518422     
           2  -5.5960557389892959E-002
           3  -1.9556217664727798E-002
           4  -6.3034336655999570E-002
           5  0.48734845637301333     
           6  -3.3238581180519262E-002
           7   5.2742529523705341E-003
           8   6.6395569707545926E-002
           9 -0.23965149582908940     
          10  0.10104824993401997     
          11   1.6727822146769256E-002
          12   6.2792540559638741E-004
          13  0.30320216020199475     
          14   6.7714437690374760E-002
          15  -9.7823238529185248E-003
          16 -0.12742022356598182     
          17  -7.0589397316859440E-002
          18 -0.11534998551289836     
          19   2.0643880291474303E-002
          20  0.24074181354722421     
Sym=     3a
Ene=  -0.67701083271278506     
Spin= Alpha
Occup=     2.00000000
           1 -0.18621270985289959     
           2  -6.1678257172843365E-002
           3  -1.1119756199587704E-002
           4  -6.1082519020115768E-003
           5   2.4318170938874489E-002
           6  0.22134415071860658     
           7  -3.1518478014096206E-002
           8 -0.41264083615150321     
           9 -0.16828824166074235     
          10   4.9233219526655117E-002
          11   1.8662242168368759E-002
          12   6.4067535358445601E-002
          13 -0.43869314756701594     
          14  -4.4846610995536412E-002
          15   6.7267128517375426E-003
          16   8.6385178397138052E-002
          17  0.20952447753020179     
          18 -0.11029563263920268     
          19   2.4278701415956897E-002
          20  0.25693950709327301     
Sym=     4a
Ene=  -0.60673798669550016     
Spin= Alpha
Occup=     2.00000000
           1  0.34802442235014736     
           2 -0.11304859853135947     
           3  -1.4071987623791670E-002
           4   2.7374329174335688E-002
           5   2.4799187711032015E-002
           6 -0.35471782255293621     
           7  -9.3713829704973939E-002
           8 -0.21553729285900508     
           9 -0.28559221932862588     
          10  -8.8220136545721820E-002
          11  -5.0082222405581869E-002
          12 -0.21666452759155144     
          13  -3.7267488613813037E-002
          14 -0.13623995810596623     
          15  -3.4245996258683534E-002
          16  -7.2123540831513719E-002
          17  -4.1159809384444510E-002
          18 -0.44045925645125483     
          19  -9.6846115417578524E-002
          20 -0.14899721483910314     
Sym=     5a
Ene=  -0.58548790644809023     
Spin= Alpha
Occup=     2.00000000
           1   6.5527297798038600E-005
           2  -2.3937642916300003E-002
           3  0.14616371941530187     
           4  -2.4110499206678796E-002
           5   5.2446031421222626E-004
           6 -0.10007945333236211     
           7  0.60950486922877278     
           8 -0.10023406929755758     
           9   1.3327432831375280E-004
          10  -3.1307767387061390E-002
          11  0.19061010767059758     
          12  -3.1438351542440630E-002
          13  -2.1874817786214895E-004
          14  -4.3653696555723008E-002
          15  0.26576307135669447     
          16  -4.3675018987874931E-002
          17  -3.4212028959143689E-004
          18  -7.1411999044938390E-002
          19  0.43511278173120083     
          20  -7.1626539744330156E-002
Sym=     6a
Ene=  -0.54498036401272687     
Spin= Alpha
Occup=     2.00000000
           1 -0.45047681115465538     
           2  -5.9399727096467375E-002
           3   2.6041846352329864E-002
           4  0.21780633903381150     
           5 -0.12616280635504198     
           6 -0.48513509572858954     
           7 -0.10656255140462192     
           8 -0.16487698872863293     
           9   8.0707659290680189E-002
          10   5.9923108774460505E-002
          11   6.5669985082528831E-002
          12  0.33959052350785685     
          13  0.16026807168293222     
          14 -0.29883971930322190     
          15  -6.0871652780673004E-002
          16  -7.2447720537283572E-002
          17  0.17727953799693374     
          18   7.6904066862059181E-002
          19  -5.0844693316739803E-003
          20 -0.10819317102702826     
Sym=     7a
Ene=  -0.52741589229740049     
Spin= Alpha
Occup=     2.00000000
           1   5.5677962426096565E-002
           2 -0.34697800011585489     
           3  -2.3123853262217144E-002
           4  0.20659208039603466     
           5 -0.16462663617820186     
           6  0.24924293413848220     
           7   7.3540332512634338E-002
           8  0.19590073755983992     
           9 -0.49160978729572319     
          10 -0.22617732321499612     
          11   8.9904248931655471E-003
          12  0.28108097967703760     
          13  0.23281200769038515     
          14  0.13035176314010835     
          15   5.6379654105762705E-002
          16  0.21130979733155345     
          17  0.20711709186903104     
          18  -4.1929309040194263E-002
          19  -3.2671426921344567E-002
          20 -0.15695527015528879     
Sym=     8a
Ene=  -0.50464905875078236     
Spin= Alpha
Occup=     2.00000000
           1  -2.8831860691183200E-005
           2   6.4521829476529347E-002
           3 -0.39270885408818146     
           4   6.4587762098750487E-002
           5   5.9724212950042590E-004
           6  -6.6132662345613283E-002
           7  0.40177047512587671     
           8  -6.5885648279107173E-002
           9  -6.1052076328604933E-005
          10   7.7792660769338010E-002
          11 -0.47323086959521549     
          12   7.7838737434715893E-002
          13  -1.0457929564876847E-003
          14  -5.6274352449409266E-002
          15  0.34404314679518727     
          16  -5.7127400205379097E-002
          17   3.5687444954712472E-006
          18   5.3918016173745989E-002
          19 -0.32770097278980231     
          20   5.3756521794785475E-002
Sym=     9a
Ene=  -0.47724678272399534     
Spin= Alpha
Occup=     2.00000000
           1  -5.2487205623421164E-002
           2 -0.11273886655042918     
           3   2.9265577572326618E-003
           4  0.12697358037186732     
           5  0.15437070179652854     
           6 -0.10563449413281806     
           7   1.8714967645008650E-002
           8  0.22358498247081113     
           9  -9.0181595351959576E-002
          10  -6.8741046821836002E-002
          11   1.5901996791967684E-002
          12  0.16131995178183942     
          13 -0.64804932774389579     
          14  0.29319966743976811     
          15  -3.9998528289374800E-002
          16 -0.53426906616670755     
          17  -6.8033097980536111E-002
          18   7.0236024684706966E-002
          19  -1.8214190918427509E-002
          20 -0.18233883389811253     
Sym=    10a
Ene=  -0.43180073249082113     
Spin= Alpha
Occup=     1.99999441
           1  0.52390157716481589     
           2 -0.34758377144532421     
           3 -0.13836289702837104     
           4 -0.49427258750988423     
           5  -6.5668406173233554E-004
           6 -0.10320024664365206     
           7  -2.5005417859115184E-002
           8  -4.8880035824285767E-002
           9  -2.5947397888799482E-002
          10   4.5085046475843472E-002
          11   6.0407483048140247E-002
          12  0.32254793012063654     
          13  -2.6019477754514199E-003
          14 -0.23734750876870403     
          15  -5.9717730179239516E-002
          16 -0.12589222271912567     
          17  -9.9230872871604869E-003
          18  0.32617323786761543     
          19   8.0266755103120757E-002
          20  0.16203833461471834     
Sym=    11a
Ene=  -0.40881955647333856     
Spin= Alpha
Occup=     1.00000559
           1  0.12119763166630886     
           2 -0.43024360628347486     
           3  -4.7750469636666092E-002
           4  0.14016613357684943     
           5   3.9233700623173551E-003
           6   5.0325702976985812E-002
           7   1.1252446589066824E-002
           8   1.8106677339494399E-002
           9  0.45964463288144730     
          10  0.64811171988828076     
          11  0.11271739532878131     
          12   3.7338793052738163E-002
          13   3.9240787791685284E-003
          14  0.21059027343920528     
          15   5.3045713680453195E-002
          16  0.11212789617470766     
          17  -3.3432583275172235E-004
          18 -0.27603883743423774     
          19  -6.7301100583737478E-002
          20 -0.13338302291543672     
Sym=    12a
Ene=  -0.34303663890231734     
Spin= Alpha
Occup=     0.00000000
           1   3.2858025356552208E-005
           2  -8.1137749358373326E-002
           3  0.49395666437792685     
           4  -8.1309675827365341E-002
           5  -3.0853055948410071E-004
           6   3.1906222332289493E-002
           7 -0.19455421535780679     
           8   3.2123230798684059E-002
           9   4.8208219796331462E-005
          10  -4.4340798337360418E-002
          11  0.27020190453897791     
          12  -4.4557329598963441E-002
          13  -7.1058509755760264E-005
          14 -0.10766927743554544     
          15  0.65449699702845898     
          16 -0.10740025078434773     
          17   4.9715129805639102E-004
          18   8.9742051777936066E-002
          19 -0.54697793598342426     
          20   9.0279061857898024E-002
Sym=    13a
Ene=  -0.28805463928552011     
Spin= Alpha
Occup=     0.00000000
           1   4.7162554524726451E-006
           2  0.12374461514044843     
           3 -0.75240766011535865     
           4  0.12363085573630267     
           5  -1.6665532511648610E-004
           6   2.3386799373249258E-002
           7 -0.14184386603955262     
           8   2.3434719601460995E-002
           9   8.4355652627464170E-006
          10 -0.12064133442955879     
          11  0.73375196738836213     
          12 -0.12061323964858400     
          13  -2.2673902547731557E-005
          14  -3.5538033317478929E-002
          15  0.21521340274827735     
          16  -3.5447136335331475E-002
          17   1.1517929173508348E-004
          18   5.9006311377823020E-003
          19  -3.6211153284898122E-002
          20   6.0374511745021724E-003
Sym=    14a
Ene=  -0.27241895061205434     
Spin= Alpha
Occup=     0.00000000
           1  -1.4741795975943266E-002
           2  0.14959919679146894     
           3  -2.6318217558235778E-002
           4 -0.30891030502793299     
           5  -1.7955863565607629E-002
           6 -0.56102349989347466     
           7 -0.13636777798254068     
           8 -0.26832140035143293     
           9  -1.3769152638295049E-002
          10 -0.10923635005897388     
          11   1.7948437383095237E-002
          12  0.21788923716188333     
          13  -1.5373583155283150E-003
          14  0.74968103462317570     
          15  0.18335260656549385     
          16  0.36544057326498763     
          17   3.8325299374220183E-002
          18   1.5775258166736871E-002
          19   1.7540362304682140E-003
          20  -5.3950507237917784E-003
Sym=    15a
Ene=  -0.19898024495865302     
Spin= Alpha
Occup=     0.00000000
           1  -1.2115053660758774E-005
           2  -1.8989608474784245E-002
           3  0.11565213225086214     
           4  -1.9073735144798751E-002
           5   5.5544176068095816E-004
           6 -0.11218193043502840     
           7  0.68247217229320178     
           8 -0.11226886967891636     
           9  -9.8696862642814333E-006
          10  -6.3289453821543440E-002
          11  0.38503267012549325     
          12  -6.3290770712203209E-002
          13  -1.7463242078608612E-005
          14   9.7232086163960216E-002
          15 -0.59158243480773864     
          16   9.7340226875413202E-002
          17   1.2891152985407891E-004
          18  0.11095937502860993     
          19 -0.67494082540692901     
          20  0.11092761521397891     
Sym=    16a
Ene=   -3.3226017221722894E-002
Spin= Alpha
Occup=     0.00000000
           1  0.12018837878824082     
           2 -0.49116547916478903     
           3   1.8629395268244826E-002
           4  0.60480936791333717     
           5  0.34398290062759967     
           6 -0.21605277616010571     
           7  -8.2049962396520293E-002
           8 -0.28105470086302431     
           9   8.8290412749345959E-002
          10 -0.21920251587425651     
          11  -9.8197197662472757E-002
          12 -0.37901200577363042     
          13  -6.1757423381305944E-002
          14   6.6667504832166227E-002
          15   5.1578669849940660E-002
          16  0.24628060424988399     
          17 -0.53704391424925912     
          18  0.61211707722612296     
          19  0.14940706125533049     
          20  0.29851698252709852     
Sym=    17a
Ene=    3.7191678011701500E-002
Spin= Alpha
Occup=     0.00000000
           1 -0.16464407945232060     
           2 -0.30548749755773125     
           3  -6.0868384692438923E-002
           4  -6.4133041763063170E-002
           5 -0.72516806794011313     
           6 -0.24242815416190058     
           7  -1.0507688530739417E-002
           8  0.17417912099224414     
           9  -9.5126826509238427E-002
          10   8.6966477612056933E-002
          11  -9.6155359490493891E-002
          12 -0.67140307200465144     
          13  0.15333339742680782     
          14  0.23829278450516481     
          15  -1.3143934944666452E-002
          16 -0.31690536219871390     
          17  0.83551897681093446     
          18  0.23580322185713865     
          19   9.7668304062295638E-002
          20  0.35550997038137311     
Sym=    18a
Ene=   0.30029397005256225     
Spin= Alpha
Occup=     0.00000000
           1 -0.76811463225442467     
           2 -0.62239073063683070     
           3 -0.20829600457360650     
           4 -0.64493204801433179     
           5  0.42024995263779336     
           6  0.10876395632663155     
           7   1.9222858015676143E-002
           8   1.0657230022584145E-002
           9  0.48217461078507678     
          10 -0.55165239683824452     
          11 -0.14828602527036275     
          12 -0.35053112509964085     
          13 -0.13268861531869450     
          14 -0.13955971642961001     
          15   7.9273948207614266E-003
          16  0.18755132620620255     
          17   8.3801134999718058E-002
          18  -7.0302283318037298E-002
          19 -0.10582118885183465     
          20 -0.57302474937903058     
Sym=    19a
Ene=   0.56222028937476087     
Spin= Alpha
Occup=     0.00000000
           1  -7.1317453178324622E-002
           2 -0.24105280819839991     
           3  -2.8546430010703717E-002
           4   6.7541157135222532E-002
           5 -0.71700625419912878     
           6  0.18736027239487241     
           7   6.6106025628108760E-004
           8 -0.18717442224189756     
           9  0.74660675591371573     
          10 -0.71354479429839068     
          11  -6.0095913916915981E-002
          12  0.34853055585089021     
          13  0.38401886741658753     
          14  0.22497082829885542     
          15  -4.1571815098956404E-002
          16 -0.47849215949071955     
          17 -0.55278390310306547     
          18 -0.63682752024970968     
          19   3.4315724397101679E-003
          20  0.65865656587414723     
Sym=    20a
Ene=    1.0702895087532909     
Spin= Alpha
Occup=     0.00000000
           1  -8.3497960888405415E-002
           2   2.7680672275658926E-002
           3  -1.2930389130029146E-002
           4 -0.10696232890657803     
           5 -0.21372697716264316     
           6  0.59116748124879448     
           7  -9.6317029969265944E-002
           8  -1.1763837093635159     
           9 -0.31607552013099338     
          10  0.26348729803945398     
          11   1.8428809649523949E-002
          12 -0.15249046696246948     
          13  0.77565224334396821     
          14  0.39763486323910080     
          15  -5.6107601739015626E-002
          16 -0.74239905076595836     
          17 -0.25734858188267212     
          18  0.47922658543231111     
          19  -5.4925049222297309E-002
          20 -0.80956236034432882     
