5
 energy: -11.123824229271 gnorm: 0.000933458997 xtb: 6.2.2 (9d81278992624c895f80dd42a50cac0aa55982e2)
C        -0.00181408906317   -0.27422513350974   -1.66516059740990
N        -0.41649694365459    0.08671818104085    0.94022870969384
C         1.21736444494086    0.02856637810749   -1.04262463120029
C        -0.96402295699684    0.16710141216761    1.98011693069811
C         0.16497054477898   -0.00815983781144   -0.21256041178699
