5
 energy: -10.712952092005 gnorm: 0.124936288451 xtb: 6.2.2 (9d81278992624c895f80dd42a50cac0aa55982e2)
C        -0.90636600000000    0.05142800000000   -1.13201700000000
N         0.00000000000000    0.00000000000000    0.00000000000000
C         0.95337200000000   -1.07690900000000   -0.19223900000000
C        -0.75697200000000   -0.23535400000000    1.21540500000000
C         0.70996700000000    1.26083600000000    0.10885100000000
5
 energy: -10.733458546156 gnorm: 0.061927543224 xtb: 6.2.2 (9d81278992624c895f80dd42a50cac0aa55982e2)
C        -0.87085891145339    0.04941402196639   -1.08767044894561
N        -0.00000069070353   -0.00000065190381    0.00000017311885
C         0.91602427640756   -1.03472028322509   -0.18470793515391
C        -0.72731756351814   -0.22613373255529    1.16779187865583
C         0.68215388926751    1.21144164571780    0.10458633232484
5
 energy: -10.737733355340 gnorm: 0.025644449795 xtb: 6.2.2 (9d81278992624c895f80dd42a50cac0aa55982e2)
C        -0.83738579275404    0.04752565014039   -1.04587308761577
N        -0.00000485572281   -0.00001332562393    0.00000972535280
C         0.88083172360401   -0.99495143496326   -0.17761631571177
C        -0.69937401862645   -0.21743792697353    1.12292225614192
C         0.65593394349929    1.16487803742033    0.10055742183281
5
 energy: -10.738361488563 gnorm: 0.003835089245 xtb: 6.2.2 (9d81278992624c895f80dd42a50cac0aa55982e2)
C        -0.84710104998446    0.04814554787417   -1.05807712035765
N        -0.00003641192139   -0.00009279270020    0.00006560626541
C         0.89116697196815   -1.00652750494253   -0.17973641720837
C        -0.70757480798693   -0.21993392464572    1.13607735898690
C         0.66354629792463    1.17840967441427    0.10167057231370
5
 energy: -10.738383437889 gnorm: 0.005533923876 xtb: 6.2.2 (9d81278992624c895f80dd42a50cac0aa55982e2)
C        -0.84544231611023    0.04858742181512   -1.05659336632637
N        -0.00028810504176   -0.00072977817320    0.00051432656568
C         0.89034726272010   -1.00483451458315   -0.17987630909573
C        -0.70687765843531   -0.21927565268421    1.13489241895862
C         0.66226181686720    1.17625352362544    0.10106292989780
5
 energy: -10.740179242272 gnorm: 0.099790814252 xtb: 6.2.2 (9d81278992624c895f80dd42a50cac0aa55982e2)
C        -0.81856521693992    0.06216007142922   -1.04007668942466
N        -0.00750006552013   -0.01898828704164    0.01339176268125
C         0.88859930823165   -0.98099030399347   -0.18857272629645
C        -0.70419060471571   -0.20552241020687    1.12883251154782
C         0.64165757894411    1.14334192981276    0.08642514149204
5
 energy: -10.749702360117 gnorm: 0.247193030712 xtb: 6.2.2 (9d81278992624c895f80dd42a50cac0aa55982e2)
C        -0.72308519108657    0.07030520493553   -0.97604659290354
N        -0.02478806807727   -0.07854300344069    0.07818110248887
C         0.88983312079553   -0.89583519929283   -0.26866851854872
C        -0.72972635996899   -0.13176420885252    1.11263313691057
C         0.58776749833730    1.03583820665052    0.05390087205282
5
 energy: -10.793112721980 gnorm: 0.363399006774 xtb: 6.2.2 (9d81278992624c895f80dd42a50cac0aa55982e2)
C        -0.61673594589015    0.02049461444460   -0.90160448054115
N        -0.02538852661261   -0.14326185311932    0.19656494632883
C         0.91047392566945   -0.81000823441399   -0.44605632732469
C        -0.83019932511390   -0.01373728205968    1.11382239647291
C         0.56185087194721    0.94651375514839    0.03727346506409
5
 energy: -10.882735178135 gnorm: 0.292078040044 xtb: 6.2.2 (9d81278992624c895f80dd42a50cac0aa55982e2)
C        -0.47565479547971   -0.04983286876830   -0.87413868717026
N        -0.04675262369396   -0.19260982964644    0.36414254200348
C         0.84860183743389   -0.67317122606201   -0.60965980098328
C        -0.90377828529107    0.03464486518782    1.13586644377030
C         0.57758486703085    0.88097005928893   -0.01621049762024
5
 energy: -10.922928520777 gnorm: 0.357558917426 xtb: 6.2.2 (9d81278992624c895f80dd42a50cac0aa55982e2)
C        -0.42577062951582   -0.13708337198106   -1.00506723574518
N        -0.07053751511908   -0.20253056476047    0.55464110575696
C         0.72297906081587   -0.48514741440415   -0.68002570056551
C        -0.96319856166787   -0.07333602643702    1.23572585635137
C         0.73652864548690    0.89809837758269   -0.10527402579764
5
 energy: -10.940551592442 gnorm: 0.143183613345 xtb: 6.2.2 (9d81278992624c895f80dd42a50cac0aa55982e2)
C        -0.62727626917706   -0.10273739647585   -1.09481381266506
N        -0.00481174792499   -0.24219040630891    0.54809230982036
C         0.82530376503408   -0.45207227306049   -0.60882994716499
C        -1.03730257394424   -0.10865067539893    1.26092161232829
C         0.84408782601220    0.90565175124419   -0.10537016231860
5
 energy: -10.950256198512 gnorm: 0.154589308537 xtb: 6.2.2 (9d81278992624c895f80dd42a50cac0aa55982e2)
C        -0.55044904970186   -0.04186154094583   -1.03601567922056
N        -0.04258372626548   -0.25898309034614    0.56529527981826
C         0.84068896310963   -0.41677186726301   -0.60859162867238
C        -1.03554056818536   -0.10455163540870    1.25186233911852
C         0.78788538104307    0.82216913396367   -0.17255031104384
5
 energy: -10.946463587051 gnorm: 0.310625127490 xtb: 6.2.2 (9d81278992624c895f80dd42a50cac0aa55982e2)
C        -0.42201413629608    0.01127479103847   -1.00469455978222
N        -0.08510921562090   -0.19025086877579    0.53577871686539
C         0.75573784931845   -0.54786043949255   -0.55810849392749
C        -0.92864991364127   -0.17513671031123    1.24743263481848
C         0.68003641623980    0.90197422754111   -0.22040829797416
5
 energy: -10.965679104344 gnorm: 0.075507577226 xtb: 6.2.2 (9d81278992624c895f80dd42a50cac0aa55982e2)
C        -0.44867497382624   -0.00922144954883   -1.00832946121308
N        -0.02985166937156   -0.20364875987951    0.53978622111333
C         0.77893083367580   -0.54170374011374   -0.60092622347230
C        -1.00166744261301   -0.15704635895094    1.28378127599753
C         0.70126425213500    0.91162130849301   -0.21431181242548
5
 energy: -10.967886312574 gnorm: 0.055079321944 xtb: 6.2.2 (9d81278992624c895f80dd42a50cac0aa55982e2)
C        -0.50021266467776    0.01512660178850   -1.07567982764328
N        -0.05360923205833   -0.20476177963450    0.54917378635737
C         0.78930092098170   -0.50973404276549   -0.54511516909201
C        -0.97964304836319   -0.20195071770499    1.30286461224102
C         0.74416502411758    0.90132093831648   -0.23124340186310
5
 energy: -10.971353312939 gnorm: 0.026411300615 xtb: 6.2.2 (9d81278992624c895f80dd42a50cac0aa55982e2)
C        -0.45865418642751    0.02914250292784   -1.05358440602037
N        -0.06580279341650   -0.20021303316585    0.55778561600396
C         0.79434802575708   -0.51202325376840   -0.56282023280633
C        -0.98709297269374   -0.19574842314497    1.31231797449836
C         0.71720292678067    0.87884320715138   -0.25369895167562
5
 energy: -10.972715042478 gnorm: 0.024114383722 xtb: 6.2.2 (9d81278992624c895f80dd42a50cac0aa55982e2)
C        -0.43893265406916    0.01809559806582   -1.06473955973304
N        -0.08090269171649   -0.17755699073410    0.55871407146251
C         0.78184223697890   -0.52011323250227   -0.57053292911484
C        -0.98393108456395   -0.20930753025671    1.33348993391053
C         0.72192519337070    0.88888315542726   -0.25693151652517
5
 energy: -10.974805196595 gnorm: 0.028881548228 xtb: 6.2.2 (9d81278992624c895f80dd42a50cac0aa55982e2)
C        -0.41038373287946    0.01702975747488   -1.10645711601314
N        -0.11982349134989   -0.14031258827875    0.55291066419599
C         0.77116115863561   -0.53110036237130   -0.56815151730794
C        -0.96462066014914   -0.23522332562293    1.38716239036863
C         0.72366772574288    0.88960751879810   -0.26546442124354
5
 energy: -10.975914866566 gnorm: 0.054617340744 xtb: 6.2.2 (9d81278992624c895f80dd42a50cac0aa55982e2)
C        -0.36247614309097    0.01850726254797   -1.19691002429322
N        -0.20215153862059   -0.07458149578560    0.52567881963551
C         0.76213543501535   -0.55515068466748   -0.56047547609742
C        -0.91152866974008   -0.26415124562649    1.49379457737112
C         0.71402191643630    0.87537716353160   -0.26208789661599
5
 energy: -10.977419488653 gnorm: 0.016375649198 xtb: 6.2.2 (9d81278992624c895f80dd42a50cac0aa55982e2)
C        -0.38291254221554    0.01479224733337   -1.16804574365824
N        -0.17999515154234   -0.10029026340439    0.52864935939084
C         0.77387301457362   -0.54690844817074   -0.56704277537420
C        -0.92133208175069   -0.23534663503572    1.45362464242061
C         0.71036776093494    0.86775409927748   -0.24718548277901
5
 energy: -10.978182436641 gnorm: 0.016961484266 xtb: 6.2.2 (9d81278992624c895f80dd42a50cac0aa55982e2)
C        -0.37896742198098    0.00379105916562   -1.17618674191457
N        -0.19867163277570   -0.09033122104470    0.51543965692751
C         0.78226684355308   -0.55070574034922   -0.57621265102956
C        -0.90920992436468   -0.21573458940035    1.46199644206553
C         0.70458313556829    0.85298149162865   -0.22503670604890
5
 energy: -10.978718590134 gnorm: 0.018854672951 xtb: 6.2.2 (9d81278992624c895f80dd42a50cac0aa55982e2)
C        -0.38554249185952   -0.00047174368598   -1.16639263037074
N        -0.20254660567881   -0.08443528808933    0.50955449184797
C         0.78837358913370   -0.54842063719193   -0.57951437103277
C        -0.91018077250867   -0.21711856469181    1.45880194424413
C         0.70989728091330    0.85044723365905   -0.22244943468858
5
 energy: -10.979483240437 gnorm: 0.022478408959 xtb: 6.2.2 (9d81278992624c895f80dd42a50cac0aa55982e2)
C        -0.39293884616806   -0.00650237375070   -1.15401146547638
N        -0.20707951149508   -0.07785693586555    0.50328309689438
C         0.79551471247892   -0.54546414530827   -0.58539775124887
C        -0.91186326591463   -0.21805352303534    1.45474918565418
C         0.71636791109886    0.84787797795985   -0.21862306582332
5
 energy: -10.980611900825 gnorm: 0.027175259676 xtb: 6.2.2 (9d81278992624c895f80dd42a50cac0aa55982e2)
C        -0.40146500764463   -0.01443305500254   -1.13913682831409
N        -0.21268653027540   -0.07036437326256    0.49608528721425
C         0.80416939878771   -0.54150164899988   -0.59391726369273
C        -0.91426567706893   -0.21855861072771    1.45032276816951
C         0.72424881620126    0.84485868799269   -0.21335396337694
5
 energy: -10.982265174355 gnorm: 0.032670094646 xtb: 6.2.2 (9d81278992624c895f80dd42a50cac0aa55982e2)
C        -0.41117718781191   -0.02459179314223   -1.12176633602826
N        -0.21979667874414   -0.06166477160402    0.48758242903650
C         0.81449212998848   -0.53622516800199   -0.60533058836202
C        -0.91726043890054   -0.21862417164608    1.44578459333072
C         0.73374317546810    0.84110690439432   -0.20627009797694
5
 energy: -10.984594065177 gnorm: 0.038379375389 xtb: 6.2.2 (9d81278992624c895f80dd42a50cac0aa55982e2)
C        -0.42177016511984   -0.03726998512946   -1.10227431032819
N        -0.22882366028393   -0.05148959688631    0.47757491793648
C         0.82634471040511   -0.52939533583995   -0.61990775098997
C        -0.92063892153983   -0.21825658470947    1.44160626194300
C         0.74488903653849    0.83641250256519   -0.19699911856132
5
 energy: -10.987660925013 gnorm: 0.043436451266 xtb: 6.2.2 (9d81278992624c895f80dd42a50cac0aa55982e2)
C        -0.43249527505374   -0.05249741801174   -1.08172889978415
N        -0.24008061532632   -0.03969509118937    0.46618666862790
C         0.83923736968825   -0.52095225613310   -0.63769489552385
C        -0.92401284516958   -0.21747138808746    1.43850584046658
C         0.75735236586140    0.83061715342166   -0.18526871378648
5
 energy: -10.991378158825 gnorm: 0.047122083530 xtb: 6.2.2 (9d81278992624c895f80dd42a50cac0aa55982e2)
C        -0.44227306065850   -0.06989059385640   -1.06187914888840
N        -0.25366119957806   -0.02634665301111    0.45399262564778
C         0.85242503807563   -0.51108234264461   -0.65838820411884
C        -0.92684104921550   -0.21627485842762    1.43730185230651
C         0.77035127137643    0.82359544793974   -0.17102712494706
5
 energy: -10.995540148026 gnorm: 0.049397895576 xtb: 6.2.2 (9d81278992624c895f80dd42a50cac0aa55982e2)
C        -0.45008575685484   -0.08869409038132   -1.04458480459050
N        -0.26935330345858   -0.01174071620979    0.44196639015631
C         0.86520375937257   -0.50014938299057   -0.68138889734058
C        -0.92864152663063   -0.21465936582879    1.43857234318422
C         0.78287782757148    0.81524455541047   -0.15456503140946
5
 energy: -10.999922612624 gnorm: 0.050905525125 xtb: 6.2.2 (9d81278992624c895f80dd42a50cac0aa55982e2)
C        -0.45540500263034   -0.10799592961777   -1.03094128090699
N        -0.28665147493312    0.00364098018780    0.43119500988107
C         0.87720689894708   -0.48853715041054   -0.70598329090825
C        -0.92925001624107   -0.21262272131061    1.44230672008674
C         0.79410059485746    0.80551582115112   -0.13657715815258
5
 energy: -11.004342402967 gnorm: 0.052314878887 xtb: 6.2.2 (9d81278992624c895f80dd42a50cac0aa55982e2)
C        -0.45830071038879   -0.12693783885953   -1.02081705611573
N        -0.30487555198400    0.01920280851114    0.42253051800511
C         0.88845663955054   -0.47654559616552   -0.73148003846802
C        -0.92889777870844   -0.21019532373445    1.44786635481579
C         0.80361840153069    0.79447695024836   -0.11809977823715
5
 energy: -11.007133383800 gnorm: 0.175411431631 xtb: 6.2.2 (9d81278992624c895f80dd42a50cac0aa55982e2)
C        -0.46918122541672   -0.30864308610694   -0.93272507457381
N        -0.49083738918341    0.18098155009754    0.35177257540122
C         0.99414604108491   -0.35754606706201   -0.98691824920178
C        -0.92154681426384   -0.19064207945517    1.51025511198741
C         0.88742038777906    0.67585068252658    0.05761563638696
5
 energy: -11.024089147255 gnorm: 0.072360456645 xtb: 6.2.2 (9d81278992624c895f80dd42a50cac0aa55982e2)
C        -0.45061480795605   -0.22822305155464   -0.97303073001218
N        -0.41388166612371    0.11545034323469    0.39153702196815
C         0.93730986800028   -0.40111468240607   -0.87397880988680
C        -0.92046655318912   -0.20402567396566    1.48263258989698
C         0.84765415926860    0.71791406469168   -0.02716007196615
5
 energy: -11.026585343587 gnorm: 0.056789764855 xtb: 6.2.2 (9d81278992624c895f80dd42a50cac0aa55982e2)
C        -0.44631907084675   -0.23713844753925   -0.96460250112660
N        -0.42295026879485    0.12470569067324    0.40143847993812
C         0.94320364579470   -0.38891777825778   -0.89457436738247
C        -0.92273764006417   -0.20205076736596    1.48078987392213
C         0.84880433391106    0.70340230248974   -0.02305148535118
5
 energy: -11.030919613321 gnorm: 0.016645520483 xtb: 6.2.2 (9d81278992624c895f80dd42a50cac0aa55982e2)
C        -0.41508910339455   -0.26123940947102   -0.95036429856244
N        -0.46273458664172    0.15553155394336    0.44589536942053
C         0.96383475230273   -0.34592217507296   -0.97174712634361
C        -0.93397979931906   -0.19737411953318    1.49553525861240
C         0.84796973705259    0.64900515013380   -0.01931920312688
5
 energy: -11.031350590621 gnorm: 0.013425501478 xtb: 6.2.2 (9d81278992624c895f80dd42a50cac0aa55982e2)
C        -0.41395468380209   -0.25427108075960   -0.95163710625083
N        -0.45566039098228    0.14682656043431    0.45255555024286
C         0.96670774542902   -0.34790622505112   -0.97176920222883
C        -0.94164714467320   -0.19512274814112    1.49872421573176
C         0.84455547402855    0.65047449351754   -0.02787345749497
5
 energy: -11.031919216002 gnorm: 0.008769762382 xtb: 6.2.2 (9d81278992624c895f80dd42a50cac0aa55982e2)
C        -0.40792654861815   -0.24357111427545   -0.95238728826480
N        -0.44210172046626    0.12741045193070    0.47183104522626
C         0.97884699719637   -0.34774863058652   -0.98872770550922
C        -0.96529059666534   -0.18543336652549    1.51231261497240
C         0.83647286855338    0.64934365945676   -0.04302866642463
5
 energy: -11.032033131440 gnorm: 0.009202131026 xtb: 6.2.2 (9d81278992624c895f80dd42a50cac0aa55982e2)
C        -0.40407098818392   -0.24450675028111   -0.94975116871899
N        -0.43964046523177    0.12328636565932    0.47832806063576
C         0.98168730833386   -0.34378452739517   -0.99986700184151
C        -0.97227187365554   -0.18099128544622    1.51542927168413
C         0.83429701873736    0.64599719746318   -0.04413916175939
5
 energy: -11.032305501696 gnorm: 0.008638483798 xtb: 6.2.2 (9d81278992624c895f80dd42a50cac0aa55982e2)
C        -0.39318905321706   -0.25098792752358   -0.94116480983817
N        -0.43488912854872    0.11523257767641    0.49194903274945
C         0.98657600802025   -0.32971995378512   -1.03035366838496
C        -0.98898525093634   -0.16976737086218    1.52334208070623
C         0.83048842468187    0.63524367449447   -0.04377263523254
5
 energy: -11.035091967926 gnorm: 0.040262874115 xtb: 6.2.2 (9d81278992624c895f80dd42a50cac0aa55982e2)
C        -0.35562871903468   -0.27656130327795   -0.90080835680465
N        -0.42011977079775    0.09306050883464    0.54139596860474
C         1.00892765654284   -0.27347482476333   -1.14534283042913
C        -1.05081525119699   -0.13058613279682    1.54789513703969
C         0.81763708448659    0.58756275200346   -0.04313991841065
5
 energy: -11.032109997224 gnorm: 0.104789589257 xtb: 6.2.2 (9d81278992624c895f80dd42a50cac0aa55982e2)
C        -0.25817071597967   -0.32540332190512   -0.81821362478990
N        -0.39955700379883    0.05834826134802    0.65073848702150
C         1.05542894755745   -0.15644507519200   -1.39481709682902
C        -1.17610702541714   -0.05195302584128    1.60833203479586
C         0.77840679763819    0.47545416159037   -0.04603980019844
5
 energy: -11.041740412169 gnorm: 0.031347460086 xtb: 6.2.2 (9d81278992624c895f80dd42a50cac0aa55982e2)
C        -0.27872528853254   -0.30037588566067   -0.86381095132288
N        -0.43209337604047    0.09985800139481    0.59463208104739
C         1.01442525282478   -0.20846575291227   -1.26495716733137
C        -1.09087161977915   -0.10354833773599    1.58138982844499
C         0.78726603152738    0.51253297491412   -0.04725379083813
5
 energy: -11.042284986150 gnorm: 0.022963980983 xtb: 6.2.2 (9d81278992624c895f80dd42a50cac0aa55982e2)
C        -0.28568126391566   -0.30520655698618   -0.85038501974149
N        -0.42516149419392    0.10081772511545    0.59438137803574
C         1.01917474898568   -0.20148298209228   -1.27225571786971
C        -1.09947555893911   -0.10168101491190    1.57491177545793
C         0.79114456806302    0.50755382887491   -0.04665241588248
5
 energy: -11.042810106847 gnorm: 0.014175015634 xtb: 6.2.2 (9d81278992624c895f80dd42a50cac0aa55982e2)
C        -0.28035927166903   -0.32389918613919   -0.84310559977951
N        -0.42590136000909    0.10365915558841    0.59193602051426
C         1.01538614037445   -0.17560392576504   -1.28379070335941
C        -1.10491244419033   -0.09078520677966    1.57566812823385
C         0.79578793549399    0.48663016309548   -0.04070784560919
5
 energy: -11.043179060641 gnorm: 0.008309026263 xtb: 6.2.2 (9d81278992624c895f80dd42a50cac0aa55982e2)
C        -0.27640366731106   -0.34102093507114   -0.83913962814545
N        -0.42175702131227    0.09365257058602    0.59146636040266
C         1.01478022619106   -0.14497440642646   -1.29357196354109
C        -1.11258088496826   -0.07100768523498    1.57899244108507
C         0.79596234740053    0.46335145614657   -0.03774720980119
5
 energy: -11.043332431473 gnorm: 0.009873895435 xtb: 6.2.2 (9d81278992624c895f80dd42a50cac0aa55982e2)
C        -0.27403600334329   -0.35263999998691   -0.83846459540874
N        -0.41839245624218    0.08092309786160    0.59397858733508
C         1.01657500184477   -0.12143765719270   -1.30103526786860
C        -1.11811389871522   -0.05272996588304    1.58186641904300
C         0.79396835645591    0.44588552520104   -0.03634514310075
5
 energy: -11.043416688764 gnorm: 0.008321672102 xtb: 6.2.2 (9d81278992624c895f80dd42a50cac0aa55982e2)
C        -0.27199982739279   -0.36043770809354   -0.84018060915596
N        -0.41712963157270    0.07041820401752    0.59811452180705
C         1.01898608629882   -0.10480117999185   -1.30661320164711
C        -1.12144355227558   -0.03854566502272    1.58436647508519
C         0.79158792494224    0.43336734909060   -0.03568718608917
5
 energy: -11.043476466123 gnorm: 0.005522946183 xtb: 6.2.2 (9d81278992624c895f80dd42a50cac0aa55982e2)
C        -0.26961364210163   -0.36632746725611   -0.84422230416341
N        -0.41714792686219    0.06214778222669    0.60337702371232
C         1.02124824704855   -0.09232859913030   -1.31095289143332
C        -1.12356153254706   -0.02717833801570    1.58706312671073
C         0.78907585446232    0.42368762217542   -0.03526495482632
5
 energy: -11.043523307203 gnorm: 0.005955984358 xtb: 6.2.2 (9d81278992624c895f80dd42a50cac0aa55982e2)
C        -0.26667958811255   -0.37170795383363   -0.84983986319543
N        -0.41718826023843    0.05653807087429    0.60886167810134
C         1.02250900798426   -0.08243646654207   -1.31464553704500
C        -1.12539857090716   -0.01817827853870    1.58994270990637
C         0.78675841127387    0.41578562804012   -0.03431898776728
5
 energy: -11.043650841159 gnorm: 0.011757319047 xtb: 6.2.2 (9d81278992624c895f80dd42a50cac0aa55982e2)
C        -0.25898030363323   -0.38573937665660   -0.86456239637573
N        -0.41584285813418    0.04635526065435    0.62194632483650
C         1.02383136074228   -0.05924307472313   -1.32315350913392
C        -1.12998509423891    0.00177910430168    1.59649206054218
C         0.78097789526403    0.39684908642370   -0.03072247986903
5
 energy: -11.043862010299 gnorm: 0.016900354598 xtb: 6.2.2 (9d81278992624c895f80dd42a50cac0aa55982e2)
C        -0.25232123169815   -0.39856415543968   -0.87840616517998
N        -0.41342829842872    0.03871376356781    0.63360044441979
C         1.02450455130457   -0.03857141143241   -1.32959851439703
C        -1.13367273884843    0.01893919307630    1.60171352813685
C         0.77491871767073    0.37948361022799   -0.02730929297962
5
 energy: -11.044408592131 gnorm: 0.025950252162 xtb: 6.2.2 (9d81278992624c895f80dd42a50cac0aa55982e2)
C        -0.24257779162126   -0.41714678238130   -0.90082343542974
N        -0.40982295231383    0.02696548572988    0.65194617052750
C         1.02623859929731   -0.00796424779662   -1.33815429359442
C        -1.13856491406583    0.04481093612894    1.60988688066187
C         0.76472805870362    0.35333560831909   -0.02285532216521
5
 energy: -11.046153494813 gnorm: 0.042980741706 xtb: 6.2.2 (9d81278992624c895f80dd42a50cac0aa55982e2)
C        -0.22827343461284   -0.44151174555145   -0.94107255966418
N        -0.40501622135308    0.01016527832303    0.68211917752952
C         1.03037607927540    0.03341452393067   -1.34637348793729
C        -1.14306534260944    0.08177209883481    1.62340186690102
C         0.74597991929996    0.31616084446294   -0.01807499682906
5
 energy: -11.051971291792 gnorm: 0.069569635815 xtb: 6.2.2 (9d81278992624c895f80dd42a50cac0aa55982e2)
C        -0.20845478438024   -0.46690855574945   -1.01372707956121
N        -0.39923741948858   -0.01081303749792    0.73093095908709
C         1.03976538797318    0.07943528685445   -1.34761804674160
C        -1.14343565966966    0.12844891784268    1.64610074180214
C         0.71136347556529    0.26983838855024   -0.01568657458643
5
 energy: -11.065641588700 gnorm: 0.095341560316 xtb: 6.2.2 (9d81278992624c895f80dd42a50cac0aa55982e2)
C        -0.18159624918549   -0.48871827834827   -1.12912853154714
N        -0.39136959897810   -0.03767228778032    0.80369015101484
C         1.05733359904542    0.12562034458046   -1.33822548759440
C        -1.13912477015812    0.18493750574672    1.68259481024430
C         0.65475801927629    0.21583371580141   -0.01893094211760
5
 energy: -11.081487134250 gnorm: 0.101924576231 xtb: 6.2.2 (9d81278992624c895f80dd42a50cac0aa55982e2)
C        -0.15436434752510   -0.49604127931224   -1.25800344243814
N        -0.37886640891281   -0.06771177065317    0.87991874247396
C         1.07915052499479    0.15813946317751   -1.31526941987226
C        -1.13151807227031    0.23738586357622    1.72468129700667
C         0.58559930371343    0.16822872321168   -0.03132717717023
5
 energy: -11.092583806568 gnorm: 0.255410063520 xtb: 6.2.2 (9d81278992624c895f80dd42a50cac0aa55982e2)
C        -0.11659556325524   -0.42269204627088   -1.50783453036511
N        -0.34106365964498   -0.05492821124353    1.00004488987366
C         1.11550698696185    0.09354305277559   -1.18500987824617
C        -1.08021459124845    0.23412960493262    1.78820933660761
C         0.42236782718681    0.14994859980620   -0.09540981786998
5
 energy: -11.091597568982 gnorm: 0.165804040043 xtb: 6.2.2 (9d81278992624c895f80dd42a50cac0aa55982e2)
C        -0.06356207327651   -0.45960888427621   -1.64306602408467
N        -0.27812586010644   -0.14843571595329    1.08284265019898
C         1.14385937510714    0.21516137024865   -1.18813100088361
C        -1.11725652798376    0.36501662793755    1.86294448991675
C         0.31508608625957    0.02786760204329   -0.11459011514745
5
 energy: -11.110091961616 gnorm: 0.093494013035 xtb: 6.2.2 (9d81278992624c895f80dd42a50cac0aa55982e2)
C        -0.08704130667473   -0.43964091327215   -1.49133904498372
N        -0.30762933786039   -0.05969069917687    0.96944442248358
C         1.12724363408219    0.15701611018449   -1.20779458016018
C        -1.10790526651008    0.26987896459449    1.82833851898571
C         0.37533327696299    0.07243753767004   -0.09864931632539
5
 energy: -11.103062447513 gnorm: 0.293718933539 xtb: 6.2.2 (9d81278992624c895f80dd42a50cac0aa55982e2)
C        -0.04793580157658   -0.46180167683645   -1.57314477140908
N        -0.36161034431989    0.05061159121964    1.01405564669139
C         1.15242825854050    0.18528887476719   -1.18520500386119
C        -1.05128008617430    0.24783922338286    1.85164290174027
C         0.30839897353026   -0.02193701253325   -0.10734877316138
5
 energy: -11.119636283990 gnorm: 0.029660157940 xtb: 6.2.2 (9d81278992624c895f80dd42a50cac0aa55982e2)
C        -0.05697195219660   -0.42749272404074   -1.54722474678842
N        -0.32872314633805    0.02458516207502    0.98936774720712
C         1.15139693615706    0.15578807536990   -1.17025884563853
C        -1.08183854891558    0.23444040483888    1.86511410474647
C         0.31613771129317    0.01268008175694   -0.13699825952663
5
 energy: -11.121358362781 gnorm: 0.014890741815 xtb: 6.2.2 (9d81278992624c895f80dd42a50cac0aa55982e2)
C        -0.05028078193679   -0.41462692700361   -1.56614265392024
N        -0.32863088911757    0.04699265715957    0.98606154659804
C         1.16469232835562    0.15138555339716   -1.15004993769314
C        -1.07220491323426    0.22315279036360    1.88362283264578
C         0.28642525593299   -0.00690307391673   -0.15349178763044
5
 energy: -11.122477211053 gnorm: 0.019184053099 xtb: 6.2.2 (9d81278992624c895f80dd42a50cac0aa55982e2)
C        -0.03697307867091   -0.38148635421184   -1.60383014363293
N        -0.33098596176064    0.08723178577473    0.98212135057679
C         1.18678820923455    0.12703202544324   -1.10991989439050
C        -1.05151723038750    0.19561974526716    1.91549920059205
C         0.23268906158450   -0.02839620227329   -0.18387051314540
5
 energy: -11.122718284721 gnorm: 0.013821799730 xtb: 6.2.2 (9d81278992624c895f80dd42a50cac0aa55982e2)
C        -0.03596955836350   -0.37455389026424   -1.60539403927830
N        -0.33445881156016    0.08975475728377    0.97740084773824
C         1.18732286328807    0.11749792766520   -1.10613020858049
C        -1.04534900383042    0.19077067611477    1.91654417874410
C         0.22845551046601   -0.02346847079950   -0.18242077862354
5
 energy: -11.123090370477 gnorm: 0.009640671385 xtb: 6.2.2 (9d81278992624c895f80dd42a50cac0aa55982e2)
C        -0.02937177618822   -0.35018073728336   -1.61909206409677
N        -0.34707990271742    0.10110514832822    0.96929478776878
C         1.19388902591704    0.08778246742299   -1.09148687051358
C        -1.02851600756524    0.17401038138888    1.92823033652105
C         0.21107966055385   -0.01271625985673   -0.18694618967948
5
 energy: -11.123365839842 gnorm: 0.012226365887 xtb: 6.2.2 (9d81278992624c895f80dd42a50cac0aa55982e2)
C        -0.02287735719431   -0.32183465313711   -1.63627946991671
N        -0.36470308725508    0.11373560554772    0.95987342958245
C         1.20480702177275    0.05456456522522   -1.07446691316889
C        -1.00992250512294    0.15482012234805    1.94599993934848
C         0.19269692779957   -0.00128463998388   -0.19512698584534
5
 energy: -11.123602795245 gnorm: 0.007975188801 xtb: 6.2.2 (9d81278992624c895f80dd42a50cac0aa55982e2)
C        -0.01448582684573   -0.28501960606422   -1.65231088350965
N        -0.39413227906371    0.12599934417680    0.94757232514482
C         1.21740176484986    0.00968348654854   -1.05724757604283
C        -0.98782233848221    0.12966997373956    1.96787659718135
C         0.17903967954178    0.01966780159931   -0.20589046277368
5
 energy: -11.123180383284 gnorm: 0.012770295240 xtb: 6.2.2 (9d81278992624c895f80dd42a50cac0aa55982e2)
C        -0.00952899047215   -0.27047483556092   -1.66072629061628
N        -0.41218197169686    0.12866772476704    0.93884891095800
C         1.21569844943420    0.03258309409730   -1.05335780382923
C        -0.97463638825611    0.14800625222981    1.97519846417146
C         0.18064990099092   -0.03878123553322   -0.19996328068393
5
 energy: -11.123669797820 gnorm: 0.004079892391 xtb: 6.2.2 (9d81278992624c895f80dd42a50cac0aa55982e2)