 Entering Gaussian System
 *********************************************
 Gaussian 98:
 frequency output generated by the xtb code
 *********************************************
                         Standard orientation:
 --------------------------------------------------------------------
  Center     Atomic     Atomic              Coordinates (Angstroms)
  Number     Number      Type              X           Y           Z
 --------------------------------------------------------------------
    1          6             0        0.790830   -0.871678   -0.064305
    2          6             0       -0.070958    0.412275    0.026854
    3          6             0       -0.453388   -1.086936   -0.060884
    4          7             0       -0.266484    1.546339    0.098336
 --------------------------------------------------------------------
     1 basis functions        1 primitive gaussians
     1 alpha electrons        1 beta electrons

 Harmonic frequencies (cm**-1), IR intensities (KM/Mole),
 Raman scattering activities (A**4/amu), Raman depolarization ratios,
 reduced masses (AMU), force constants (mDyne/A) and normal coordinates:
                      1                      2                      3
                        a                      a                      a 
 Frequencies --  -359.5845               377.7009               430.4277
 Red. masses --    12.0108                12.5370                12.3925
 Frc consts  --     0.0000                 0.0000                 0.0000
 IR Inten    --     0.5964                 0.4584                 0.5035
 Raman Activ --     0.0000                 0.0000                 0.0000
 Depolar     --     0.0000                 0.0000                 0.0000
 Atom AN      X      Y      Z        X      Y      Z        X      Y      Z
   1   6    -0.34   0.51   0.04    -0.01  -0.35  -0.02    -0.00   0.01  -0.19
   2   6     0.49   0.08  -0.00     0.69   0.12  -0.00     0.01  -0.05   0.86
   3   6    -0.15  -0.60  -0.03    -0.13   0.32   0.02    -0.00   0.01  -0.19
   4   7     0.00   0.00   0.00    -0.51  -0.09   0.00    -0.01   0.03  -0.44
                      4                      5                      6
                        a                      a                      a 
 Frequencies --   773.6825              1874.3089              2253.5563
 Red. masses --    12.5731                12.0937                12.8026
 Frc consts  --     0.0000                 0.0000                 0.0000
 IR Inten    --     0.2559                 0.1698                 1.2141
 Raman Activ --     0.0000                 0.0000                 0.0000
 Depolar     --     0.0000                 0.0000                 0.0000
 Atom AN      X      Y      Z        X      Y      Z        X      Y      Z
   1   6     0.02  -0.51  -0.03     0.68   0.08  -0.00    -0.17   0.00   0.00
   2   6    -0.08   0.43   0.03     0.02  -0.14  -0.01     0.13  -0.73  -0.05
   3   6     0.15  -0.49  -0.03    -0.67  -0.16  -0.00     0.16   0.06   0.00
   4   7    -0.09   0.52   0.03    -0.03   0.20   0.01    -0.11   0.62   0.04
