      -----------------------------------------------------------      
     |                   =====================                   |     
     |                           x T B                           |     
     |                   =====================                   |     
     |                         S. Grimme                         |     
     |          Mulliken Center for Theoretical Chemistry        |     
     |                    University of Bonn                     |     
      -----------------------------------------------------------      

   * xtb version 6.2.2 (9d81278992624c895f80dd42a50cac0aa55982e2) compiled by '@Darwin' on 04/03/2020

   xtb is free software: you can redistribute it and/or modify it under
   the terms of the GNU Lesser General Public License as published by
   the Free Software Foundation, either version 3 of the License, or
   (at your option) any later version.
   
   xtb is distributed in the hope that it will be useful,
   but WITHOUT ANY WARRANTY; without even the implied warranty of
   MERCHANTABILITY or FITNESS FOR A PARTICULAR PURPOSE.  See the
   GNU Lesser General Public License for more details.
   
   Cite this work as:
   * S. Grimme, C. Bannwarth, P. Shushkov, J. Chem. Theory Comput., 2017,
     13, 1989-2009. DOI: 10.1021/acs.jctc.7b00118
   * C. Bannwarth, S. Ehlert and S. Grimme., J. Chem. Theory Comput., 2019,
     15, 1652-1671. DOI: 10.1021/acs.jctc.8b01176
   * P. Pracht, E. Caldeweyher, S. Ehlert, S. Grimme, ChemRxiv, 2019, preprint.
     DOI: 10.26434/chemrxiv.8326202.v1
   
   for DFT-D4:
   * E. Caldeweyher, C. Bannwarth and S. Grimme, J. Chem. Phys., 2017,
     147, 034112. DOI: 10.1063/1.4993215
   * E. Caldeweyher, S. Ehlert, A. Hansen, H. Neugebauer, S. Spicher,
     C. Bannwarth and S. Grimme, J. Chem. Phys., 2019, 150, 154122.
     DOI: 10.1063/1.5090222
   
   for sTDA-xTB:
   * S. Grimme and C. Bannwarth, J. Chem. Phys., 2016, 145, 054103.
     DOI: 10.1063/1.4959605
   
   in the mass-spec context:
   * V. Asgeirsson, C. Bauer and S. Grimme, Chem. Sci., 2017, 8, 4879.
     DOI: 10.1039/c7sc00601b
   
   for metadynamics refer to:
   * S. Grimme, J. Chem. Theory Comput., 2019, 155, 2847-2862
     DOI: 10.1021/acs.jctc.9b00143
   
   with help from (in alphabetical order)
   C. Bannwarth, F. Bohle, G. Brandenburg, E. Caldeweyher, M. Checinski,
   S. Dohm, S. Ehlert, S. Ehrlich, F. März, H. Neugebauer, J. Pisarek,
   P. Pracht, P. Shushkov, and S. Spicher.
   
 * started run on 2020/05/12 at 11:45:03.501     

           -------------------------------------------------
          |                Calculation Setup                |
           -------------------------------------------------

          program call               : xtb --input C3N1_0_S_1.input C3N1_0_S_1.xyz --ohess --molden --namespace C3N1_0_S_1 output.out
          calculation namespace      : C3N1_0_S_1
          coordinate file            : C3N1_0_S_1.xyz
          number of atoms            :                     4
          number of electrons        :                    17
          charge                     :                     0
          spin                       :                   0.5
          first test random number   :      0.69091176859735

   ID    Z sym.   atoms
    1    6 C      1-3
    2    7 N      4

           -------------------------------------------------
          |                 G F N 2 - x T B                 |
           -------------------------------------------------

        Reference                      10.1021/acs.jctc.8b01176
      * Hamiltonian:
        H0-scaling (s, p, d)           1.850000    2.230000    2.230000
        zeta-weighting                 0.500000
      * Dispersion:
        s8                             2.700000
        a1                             0.520000
        a2                             5.000000
        s9                             5.000000
      * Repulsion:
        kExp                           1.500000    1.000000
        rExp                           1.000000
      * Coulomb:
        alpha                          2.000000
        third order                    shell-resolved
        anisotropic                    true
        a3                             3.000000
        a5                             4.000000
        cn-shift                       1.200000
        cn-exp                         4.000000
        max-rad                        5.000000


          ...................................................
          :                      SETUP                      :
          :.................................................:
          :  # basis functions                  16          :
          :  # atomic orbitals                  16          :
          :  # shells                            8          :
          :  # electrons                        17          :
          :  max. iterations                   250          :
          :  Hamiltonian                  GFN2-xTB          :
          :  restarted?                      false          :
          :  GBSA solvation                  false          :
          :  PC potential                    false          :
          :  electronic temp.          300.0000000     K    :
          :  accuracy                    1.0000000          :
          :  -> integral cutoff          0.2500000E+02      :
          :  -> integral neglect         0.1000000E-07      :
          :  -> SCF convergence          0.1000000E-05 Eh   :
          :  -> wf. convergence          0.1000000E-03 e    :
          :  Broyden damping             0.4000000          :
          ...................................................

 iter      E             dE          RMSdq      gap      omega  full diag
   1     -8.6252493 -0.862525E+01  0.120E+01    0.71       0.0  T
   2     -7.7583262  0.866923E+00  0.157E+01    1.42       1.0  T
   3     -8.7663768 -0.100805E+01  0.640E+00    0.73       1.0  T
   4     -8.5399752  0.226402E+00  0.815E+00    1.04       1.0  T
   5     -8.5603173 -0.203421E-01  0.705E+00    0.71       1.0  T
   6     -8.7789537 -0.218636E+00  0.350E+00    0.81       1.0  T
   7     -8.8302662 -0.513124E-01  0.119E+00    0.71       1.0  T
   8     -8.8182146  0.120515E-01  0.166E+00    0.77       1.0  T
   9     -8.8190874 -0.872752E-03  0.146E+00    0.74       1.0  T
  10     -8.8243998 -0.531237E-02  0.108E+00    0.74       1.0  T
  11     -8.8289134 -0.451363E-02  0.641E-01    0.72       1.0  T
  12     -8.8302789 -0.136553E-02  0.371E-01    0.72       1.0  T
  13     -8.8309732 -0.694318E-03  0.647E-02    0.73       1.0  T
  14     -8.8309890 -0.158056E-04  0.383E-02    0.73       1.3  T
  15     -8.8309963 -0.725687E-05  0.998E-03    0.73       5.0  T
  16     -8.8309967 -0.421373E-06  0.151E-03    0.73      33.0  T
  17     -8.8309967  0.712224E-08  0.151E-03    0.73      33.2  T
  18     -8.8309967 -0.112854E-07  0.317E-04    0.73     157.7  T
  19     -8.8309967 -0.221206E-09  0.294E-05    0.73    1700.0  T

   *** convergence criteria satisfied after 19 iterations ***

         #    Occupation            Energy/Eh            Energy/eV
      -------------------------------------------------------------
         1        2.0000           -0.7240182             -19.7015
       ...           ...                  ...                  ...
         3        2.0000           -0.6604706             -17.9723
         4        2.0000           -0.5634420             -15.3320
         5        2.0000           -0.5363735             -14.5955
         6        2.0000           -0.5259783             -14.3126
         7        2.0000           -0.5169713             -14.0675
         8        1.5756           -0.4529967             -12.3267
         9        1.4244           -0.4524175             -12.3109 (HOMO)
        10        0.0000           -0.4256001             -11.5812 (LUMO)
        11        0.0000           -0.4235622             -11.5257
        12                         -0.4114034             -11.1949
        13                         -0.3370134              -9.1706
        14                          0.0408712               1.1122
       ...                                ...                  ...
        16                          0.0685778               1.8661
      -------------------------------------------------------------
                  HL-Gap            0.0268174 Eh            0.7297 eV
             Fermi-level           -0.4457811 Eh          -12.1303 eV

 SCC (total)                   0 d,  0 h,  0 min,  0.004 sec
 SCC setup                      ...        0 min,  0.000 sec (  2.181%)
 Dispersion                     ...        0 min,  0.000 sec (  0.372%)
 integral evaluation            ...        0 min,  0.001 sec ( 24.369%)
 zeroth order Hamiltonian       ...        0 min,  0.000 sec (  0.426%)
 iterations                     ...        0 min,  0.002 sec ( 44.477%)
 molecular gradient             ...        0 min,  0.001 sec ( 25.167%)
 printout                       ...        0 min,  0.000 sec (  2.677%)

         :::::::::::::::::::::::::::::::::::::::::::::::::::::
         ::                     SUMMARY                     ::
         :::::::::::::::::::::::::::::::::::::::::::::::::::::
         :: total energy              -8.789874612925 Eh    ::
         :: gradient norm              0.221020154170 Eh/a0 ::
         :: HOMO-LUMO gap              0.729739676442 eV    ::
         ::.................................................::
         :: SCC energy                -8.830996718211 Eh    ::
         :: -> isotropic ES           -0.024202801130 Eh    ::
         :: -> anisotropic ES         -0.001038329189 Eh    ::
         :: -> anisotropic XC          0.011240323108 Eh    ::
         :: -> dispersion             -0.001869884163 Eh    ::
         :: repulsion energy           0.041122044372 Eh    ::
         :: add. restraining           0.000000000000 Eh    ::
         :::::::::::::::::::::::::::::::::::::::::::::::::::::

      ----------------------------------------------------------- 
     |                   =====================                   |
     |                        A N C O P T                        |
     |                   =====================                   |
     |               Approximate Normal Coordinate               |
     |                Rational Function Optimizer                |
      ----------------------------------------------------------- 

          ...................................................
          :                      SETUP                      :
          :.................................................:
          :   optimization level            normal          :
          :   max. optcycles                   200          :
          :   ANC micro-cycles                  20          :
          :   degrees of freedom                 6          :
          :.................................................:
          :   RF solver                   davidson          :
          :   write xtbopt.log                true          :
          :   linear?                        false          :
          :   energy convergence         0.5000000E-05 Eh   :
          :   grad. convergence          0.1000000E-02 Eh/α :
          :   maximium RF displ.         1.0000000          :
          :   Hlow (freq-cutoff)         0.1000000E-01      :
          :   Hmax (freq-cutoff)         5.0000000          :
          :   S6 in model hess.         20.0000000          :
          ...................................................

generating ANC from model Hessian ...
Using Lindh-Hessian (1995)
 Shifting diagonal of input Hessian by    0.0000000000000000     
 Lowest  eigenvalues of input Hessian
   -0.000000   -0.000000   -0.000000    0.000000    0.000000    0.000000
    0.065297    0.080935    0.090208    0.603913    0.985903    1.118455
 Highest eigenvalues
    0.065297    0.080935    0.090208    0.603913    0.985903    1.118455


........................................................................
.............................. CYCLE    1 ..............................
........................................................................
   1     -8.8309967 -0.883100E+01  0.116E-05    0.73       0.0  T
   2     -8.8309967  0.125695E-10  0.478E-05    0.73    1047.0  T
   3     -8.8309967 -0.113065E-10  0.175E-05    0.73    2849.1  T
     SCC iter.                  ...        0 min,  0.000 sec
     gradient                   ...        0 min,  0.001 sec
 * total energy  :    -8.7898746 Eh     change        0.1049205E-09 Eh
   gradient norm :     0.2210202 Eh/α   predicted     0.0000000E+00 (-100.00%)
   displ. norm   :     0.3589010 α      lambda       -0.7308398E-01
   maximum displ.:     0.3119231 α      in ANC's #4, #1, #2, ...

........................................................................
.............................. CYCLE    2 ..............................
........................................................................
   1     -8.9184161 -0.891842E+01  0.248E+00    1.01       0.0  T
   2     -8.7793208  0.139095E+00  0.520E+00    1.25       1.0  T
   3     -8.9231546 -0.143834E+00  0.166E+00    1.06       1.0  T
   4     -8.9331951 -0.100405E-01  0.650E-01    1.06       1.0  T
   5     -8.9334351 -0.240026E-03  0.208E-01    1.07       1.0  T
   6     -8.9334439 -0.878076E-05  0.126E-01    1.07       1.0  T
   7     -8.9332892  0.154670E-03  0.215E-01    1.06       1.0  T
   8     -8.9335028 -0.213563E-03  0.339E-02    1.07       1.5  T
   9     -8.9335055 -0.272883E-05  0.128E-02    1.07       3.9  T
  10     -8.9335058 -0.283254E-06  0.430E-03    1.07      11.6  T
  11     -8.9335058 -0.415078E-07  0.943E-04    1.07      53.0  T
  12     -8.9335059 -0.188836E-08  0.285E-04    1.07     175.5  T
     SCC iter.                  ...        0 min,  0.001 sec
     gradient                   ...        0 min,  0.001 sec
 * total energy  :    -8.8451001 Eh     change       -0.5522553E-01 Eh
   gradient norm :     0.0966817 Eh/α   predicted    -0.4124894E-01 ( -25.31%)
   displ. norm   :     0.4012402 α      lambda       -0.2842911E-01
   maximum displ.:     0.3232225 α      in ANC's #1, #4, #2, ...

........................................................................
.............................. CYCLE    3 ..............................
........................................................................
   1     -8.9905486 -0.899055E+01  0.290E+00    1.50       0.0  T
   2     -8.9302162  0.603324E-01  0.396E+00    1.57       1.0  T
   3     -8.9979422 -0.677260E-01  0.170E+00    1.53       1.0  T
   4     -9.0041744 -0.623215E-02  0.531E-01    1.53       1.0  T
   5     -9.0048010 -0.626593E-03  0.735E-02    1.54       1.0  T
   6     -9.0048015 -0.551127E-06  0.208E-02    1.54       2.4  T
   7     -9.0047956  0.590003E-05  0.331E-02    1.54       1.5  T
   8     -9.0048020 -0.634491E-05  0.921E-03    1.54       5.4  T
   9     -9.0048022 -0.265902E-06  0.865E-04    1.54      57.8  T
  10     -9.0048022 -0.129877E-09  0.872E-05    1.54     573.4  T
     SCC iter.                  ...        0 min,  0.001 sec
     gradient                   ...        0 min,  0.001 sec
 * total energy  :    -8.8576200 Eh     change       -0.1251984E-01 Eh
   gradient norm :     0.0838999 Eh/α   predicted    -0.1650301E-01 (  31.81%)
   displ. norm   :     0.4645446 α      lambda       -0.1824725E-01
   maximum displ.:     0.4548969 α      in ANC's #1, #2, #6, ...

........................................................................
.............................. CYCLE    4 ..............................
........................................................................
   1     -8.9965925 -0.899659E+01  0.363E+00    1.40       0.0  T
   2     -8.9820458  0.145467E-01  0.288E+00    1.40       1.0  T
   3     -8.9595642  0.224816E-01  0.302E+00    1.35       1.0  T
   4     -9.0009181 -0.413538E-01  0.274E-01    1.33       1.0  T
   5     -9.0010944 -0.176367E-03  0.880E-02    1.33       1.0  T
   6     -9.0010988 -0.440252E-05  0.402E-02    1.33       1.2  T
   7     -9.0011012 -0.235006E-05  0.500E-03    1.34      10.0  T
   8     -9.0011011  0.537580E-07  0.350E-03    1.34      14.3  T
   9     -9.0011012 -0.770093E-07  0.973E-04    1.34      51.4  T
  10     -9.0011012 -0.408962E-08  0.358E-04    1.34     139.5  T
     SCC iter.                  ...        0 min,  0.001 sec
     gradient                   ...        0 min,  0.001 sec
 * total energy  :    -8.8779663 Eh     change       -0.2034629E-01 Eh
   gradient norm :     0.0514591 Eh/α   predicted    -0.1109252E-01 ( -45.48%)
   displ. norm   :     0.5912261 α      lambda       -0.2574922E-01
   maximum displ.:     0.5114852 α      in ANC's #1, #2, #4, ...

........................................................................
.............................. CYCLE    5 ..............................
........................................................................
   1     -9.0057850 -0.900579E+01  0.747E+00    0.37       0.0  T
   2     -8.9482280  0.575571E-01  0.480E+00    0.03       1.0  T
   3     -8.9119124  0.363156E-01  0.581E+00    0.46       1.0  T
   4     -9.0103674 -0.984550E-01  0.249E+00    0.24       1.0  T
   5     -9.0232948 -0.129274E-01  0.122E+00    0.15       1.0  T
   6     -9.0228813  0.413483E-03  0.102E+00    0.15       1.0  T
   7     -9.0240309 -0.114959E-02  0.177E-01    0.09       1.0  T
   8     -9.0240307  0.228100E-06  0.179E-01    0.09       1.0  T
   9     -9.0240490 -0.182795E-04  0.362E-02    0.10       1.4  T
  10     -9.0240503 -0.134034E-05  0.265E-02    0.10       1.9  T
  11     -9.0240512 -0.838886E-06  0.238E-03    0.10      21.0  T
  12     -9.0240512  0.354814E-08  0.397E-03    0.10      12.6  T
  13     -9.0240512 -0.690906E-08  0.265E-03    0.10      18.9  T
  14     -9.0240512 -0.641623E-08  0.948E-05    0.10     527.2  T
  15     -9.0240512 -0.423483E-11  0.597E-05    0.10     837.3  T
     SCC iter.                  ...        0 min,  0.001 sec
     gradient                   ...        0 min,  0.001 sec
 * total energy  :    -8.8896917 Eh     change       -0.1172544E-01 Eh
   gradient norm :     0.1590515 Eh/α   predicted    -0.1737490E-01 (  48.18%)
   displ. norm   :     0.9433700 α      lambda       -0.4652302E-01
   maximum displ.:     0.7768946 α      in ANC's #1, #2, #4, ...

........................................................................
.............................. CYCLE    6 ..............................
........................................................................
   1     -9.2191823 -0.921918E+01  0.113E+01    2.32       0.0  T
   2     -9.2783540 -0.591717E-01  0.743E+00    0.58       1.0  T
   3     -9.2986754 -0.203214E-01  0.500E+00    2.36       1.0  T
   4     -9.3335277 -0.348523E-01  0.940E-01    1.07       1.0  T
   5     -9.3345024 -0.974763E-03  0.658E-01    0.99       1.0  T
   6     -9.3355515 -0.104905E-02  0.181E-01    0.91       1.0  T
   7     -9.3356378 -0.863225E-04  0.223E-02    0.94       2.2  T
   8     -9.3356381 -0.277115E-06  0.761E-03    0.94       6.6  T
   9     -9.3356381 -0.213530E-07  0.128E-03    0.94      39.2  T
  10     -9.3356381 -0.121330E-08  0.582E-04    0.94      85.9  T
  11     -9.3356381 -0.930500E-09  0.130E-04    0.94     385.9  T
     SCC iter.                  ...        0 min,  0.001 sec
     gradient                   ...        0 min,  0.001 sec
 * total energy  :    -8.3118122 Eh     change        0.5778796E+00 Eh
   gradient norm :     3.4101386 Eh/α   predicted    -0.4396314E-01 (-107.61%)
   displ. norm   :     0.5397778 α      lambda       -0.1826118E+01
   maximum displ.:     0.4094288 α      in ANC's #1, #4, #6, ...

........................................................................
.............................. CYCLE    7 ..............................
........................................................................
   1     -8.6118975 -0.861190E+01  0.920E+00    1.71       0.0  T
   2     -7.3011756  0.131072E+01  0.164E+01    0.53       1.0  T
   3     -9.0603456 -0.175917E+01  0.456E+00    0.49       1.0  T
   4     -9.0963170 -0.359714E-01  0.292E+00    0.32       1.0  T
   5     -9.1018987 -0.558163E-02  0.206E+00    0.54       1.0  T
   6     -9.1063333 -0.443464E-02  0.329E-01    0.64       1.0  T
   7     -9.1065852 -0.251905E-03  0.967E-02    0.57       1.0  T
   8     -9.1065926 -0.739647E-05  0.588E-02    0.57       1.0  T
   9     -9.1065900  0.260853E-05  0.488E-02    0.55       1.0  T
  10     -9.1066022 -0.122321E-04  0.189E-02    0.55       2.6  T
  11     -9.1066029 -0.699699E-06  0.766E-03    0.55       6.5  T
  12     -9.1066031 -0.189869E-06  0.254E-03    0.55      19.7  T
  13     -9.1066031 -0.170752E-07  0.603E-04    0.55      83.0  T
  14     -9.1066031 -0.113777E-08  0.191E-04    0.55     262.2  T
     SCC iter.                  ...        0 min,  0.001 sec
     gradient                   ...        0 min,  0.001 sec
 * total energy  :    -8.9298250 Eh     change       -0.6180129E+00 Eh
   gradient norm :     0.1357545 Eh/α   predicted    -0.1179088E+01 (  90.79%)
   displ. norm   :     0.3728943 α      lambda       -0.3682745E-01
   maximum displ.:     0.3517090 α      in ANC's #2, #4, #1, ...

........................................................................
.............................. CYCLE    8 ..............................
........................................................................
   1     -9.1435064 -0.914351E+01  0.165E+00    0.77       0.0  T
   2     -9.1431883  0.318134E-03  0.998E-01    0.71       1.0  T
   3     -9.1406705  0.251773E-02  0.103E+00    0.80       1.0  T
   4     -9.1442088 -0.353831E-02  0.826E-02    0.79       1.0  T
   5     -9.1442141 -0.525693E-05  0.429E-02    0.76       1.2  T
   6     -9.1442152 -0.107613E-05  0.129E-02    0.77       3.9  T
   7     -9.1442152 -0.567914E-07  0.112E-02    0.77       4.5  T
   8     -9.1442158 -0.578602E-06  0.197E-03    0.77      25.4  T
   9     -9.1442158 -0.178327E-08  0.522E-04    0.77      95.8  T
  10     -9.1442158 -0.168164E-09  0.706E-05    0.77     708.5  T
     SCC iter.                  ...        0 min,  0.001 sec
     gradient                   ...        0 min,  0.001 sec
 * total energy  :    -8.9603150 Eh     change       -0.3048993E-01 Eh
   gradient norm :     0.1293367 Eh/α   predicted    -0.2097415E-01 ( -31.21%)
   displ. norm   :     0.6156883 α      lambda       -0.6936023E-01
   maximum displ.:     0.4863953 α      in ANC's #2, #1, #6, ...

........................................................................
.............................. CYCLE    9 ..............................
........................................................................
   1     -9.1458516 -0.914585E+01  0.298E+00    1.49       0.0  T
   2     -9.1472088 -0.135714E-02  0.186E+00    1.82       1.0  T
   3     -9.1424086  0.480018E-02  0.122E+00    1.51       1.0  T
   4     -9.1475669 -0.515828E-02  0.418E-01    1.66       1.0  T
   5     -9.1482526 -0.685743E-03  0.838E-02    1.70       1.0  T
   6     -9.1482516  0.100502E-05  0.199E-02    1.70       2.5  T
   7     -9.1482525 -0.859695E-06  0.143E-02    1.70       3.5  T
   8     -9.1482536 -0.107508E-05  0.354E-03    1.70      14.1  T
   9     -9.1482536 -0.185060E-07  0.425E-04    1.70     117.6  T
  10     -9.1482536 -0.120568E-09  0.153E-04    1.70     327.5  T
     SCC iter.                  ...        0 min,  0.001 sec
     gradient                   ...        0 min,  0.001 sec
 * total energy  :    -9.0037322 Eh     change       -0.4341725E-01 Eh
   gradient norm :     0.1723346 Eh/α   predicted    -0.4782636E-01 (  10.16%)
   displ. norm   :     0.3138134 α      lambda       -0.3383985E-01
   maximum displ.:     0.2317710 α      in ANC's #1, #4, #2, ...

........................................................................
.............................. CYCLE   10 ..............................
........................................................................
   1     -9.1863931 -0.918639E+01  0.153E+00    1.72       0.0  T
   2     -9.1863056  0.875580E-04  0.989E-01    1.82       1.0  T
   3     -9.1848066  0.149896E-02  0.801E-01    1.71       1.0  T
   4     -9.1869312 -0.212460E-02  0.730E-02    1.76       1.0  T
   5     -9.1869382 -0.697117E-05  0.367E-02    1.77       1.4  T
   6     -9.1869383 -0.615287E-07  0.106E-02    1.77       4.7  T
   7     -9.1869388 -0.540967E-06  0.494E-03    1.77      10.1  T
   8     -9.1869389 -0.960600E-07  0.129E-03    1.77      38.9  T
   9     -9.1869389 -0.550513E-09  0.266E-04    1.77     187.9  T
  10     -9.1869389 -0.828493E-11  0.147E-05    1.77    3392.5  T
     SCC iter.                  ...        0 min,  0.001 sec
     gradient                   ...        0 min,  0.001 sec
 * total energy  :    -9.0282701 Eh     change       -0.2453784E-01 Eh
   gradient norm :     0.1074194 Eh/α   predicted    -0.1858617E-01 ( -24.26%)
   displ. norm   :     0.2574906 α      lambda       -0.1762378E-01
   maximum displ.:     0.1969799 α      in ANC's #4, #1, #2, ...

........................................................................
.............................. CYCLE   11 ..............................
........................................................................
   1     -9.2231368 -0.922314E+01  0.118E+00    1.77       0.0  T
   2     -9.2230215  0.115245E-03  0.857E-01    1.89       1.0  T
   3     -9.2234832 -0.461657E-03  0.521E-01    1.79       1.0  T
   4     -9.2239706 -0.487426E-03  0.532E-02    1.83       1.0  T
   5     -9.2239711 -0.480836E-06  0.220E-02    1.83       2.3  T
   6     -9.2239718 -0.680777E-06  0.569E-03    1.83       8.8  T
   7     -9.2239716  0.206116E-06  0.712E-03    1.83       7.0  T
   8     -9.2239718 -0.277028E-06  0.140E-03    1.83      35.7  T
   9     -9.2239718 -0.322106E-08  0.254E-04    1.83     197.0  T
  10     -9.2239718 -0.184244E-10  0.101E-05    1.83    4973.6  T
     SCC iter.                  ...        0 min,  0.001 sec
     gradient                   ...        0 min,  0.001 sec
 * total energy  :    -9.0385500 Eh     change       -0.1027995E-01 Eh
   gradient norm :     0.0547204 Eh/α   predicted    -0.9396129E-02 (  -8.60%)
   displ. norm   :     0.2183007 α      lambda       -0.5037140E-02
   maximum displ.:     0.1433742 α      in ANC's #1, #2, #4, ...

........................................................................
.............................. CYCLE   12 ..............................
........................................................................
   1     -9.2081019 -0.920810E+01  0.959E-01    1.66       0.0  T
   2     -9.2082082 -0.106331E-03  0.571E-01    1.74       1.0  T
   3     -9.2078555  0.352736E-03  0.311E-01    1.65       1.0  T
   4     -9.2082507 -0.395196E-03  0.805E-02    1.71       1.0  T
   5     -9.2082702 -0.195454E-04  0.242E-02    1.71       2.1  T
   6     -9.2082702 -0.250295E-07  0.303E-03    1.71      16.5  T
   7     -9.2082702  0.346862E-07  0.348E-03    1.71      14.4  T
   8     -9.2082703 -0.684375E-07  0.727E-04    1.71      68.8  T
   9     -9.2082703 -0.604279E-09  0.137E-04    1.71     365.9  T
     SCC iter.                  ...        0 min,  0.001 sec
     gradient                   ...        0 min,  0.001 sec
 * total energy  :    -9.0396543 Eh     change       -0.1104301E-02 Eh
   gradient norm :     0.0935233 Eh/α   predicted    -0.2638592E-02 ( 138.94%)
   displ. norm   :     0.0495892 α      lambda       -0.3953876E-02
   maximum displ.:     0.0422130 α      in ANC's #6, #2, #1, ...

........................................................................
.............................. CYCLE   13 ..............................
........................................................................
   1     -9.2276625 -0.922766E+01  0.489E-01    1.88       0.0  T
   2     -9.2277549 -0.924141E-04  0.348E-01    1.78       1.0  T
   3     -9.2277542  0.724461E-06  0.199E-01    1.83       1.0  T
   4     -9.2278372 -0.830256E-04  0.614E-02    1.82       1.0  T
   5     -9.2278482 -0.109656E-04  0.140E-02    1.81       3.6  T
   6     -9.2278481  0.136425E-06  0.608E-03    1.81       8.2  T
   7     -9.2278483 -0.232882E-06  0.113E-03    1.81      44.2  T
   8     -9.2278483 -0.118819E-08  0.469E-04    1.81     106.6  T
   9     -9.2278483 -0.149983E-09  0.599E-05    1.81     834.3  T
     SCC iter.                  ...        0 min,  0.001 sec
     gradient                   ...        0 min,  0.001 sec
 * total energy  :    -9.0418712 Eh     change       -0.2216899E-02 Eh
   gradient norm :     0.0356976 Eh/α   predicted    -0.1981798E-02 ( -10.60%)
   displ. norm   :     0.0362860 α      lambda       -0.4392581E-03
   maximum displ.:     0.0292326 α      in ANC's #4, #1, #2, ...

........................................................................
.............................. CYCLE   14 ..............................
........................................................................
   1     -9.2333117 -0.923331E+01  0.167E-01    1.82       0.0  T
   2     -9.2333133 -0.161202E-05  0.984E-02    1.82       1.0  T
   3     -9.2333008  0.125016E-04  0.702E-02    1.81       1.0  T
   4     -9.2333164 -0.155500E-04  0.834E-03    1.82       6.0  T
   5     -9.2333165 -0.106816E-06  0.428E-03    1.82      11.7  T
   6     -9.2333165  0.220210E-07  0.198E-03    1.82      25.2  T
   7     -9.2333165 -0.245785E-07  0.377E-04    1.82     132.7  T
   8     -9.2333165 -0.129614E-09  0.990E-05    1.82     505.3  T
     SCC iter.                  ...        0 min,  0.001 sec
     gradient                   ...        0 min,  0.001 sec
 * total energy  :    -9.0421820 Eh     change       -0.3108115E-03 Eh
   gradient norm :     0.0234471 Eh/α   predicted    -0.2199188E-03 ( -29.24%)
   displ. norm   :     0.0234060 α      lambda       -0.2213471E-03
   maximum displ.:     0.0191361 α      in ANC's #4, #2, #1, ...

........................................................................
.............................. CYCLE   15 ..............................
........................................................................
   1     -9.2366720 -0.923667E+01  0.115E-01    1.81       0.0  T
   2     -9.2366723 -0.283602E-06  0.712E-02    1.81       1.0  T
   3     -9.2366651  0.715580E-05  0.526E-02    1.81       1.0  T
   4     -9.2366741 -0.899178E-05  0.564E-03    1.81       8.9  T
   5     -9.2366741 -0.481011E-08  0.304E-03    1.81      16.5  T
   6     -9.2366741  0.417389E-07  0.283E-03    1.81      17.7  T
   7     -9.2366741 -0.510665E-07  0.308E-04    1.81     162.4  T
   8     -9.2366741 -0.363745E-10  0.654E-05    1.81     765.0  T
     SCC iter.                  ...        0 min,  0.001 sec
     gradient                   ...        0 min,  0.001 sec
 * total energy  :    -9.0423140 Eh     change       -0.1319538E-03 Eh
   gradient norm :     0.0085919 Eh/α   predicted    -0.1107337E-03 ( -16.08%)
   displ. norm   :     0.0075096 α      lambda       -0.3883624E-04
   maximum displ.:     0.0069143 α      in ANC's #1, #4, #6, ...

........................................................................
.............................. CYCLE   16 ..............................
........................................................................
   1     -9.2379667 -0.923797E+01  0.412E-02    1.81       0.0  T
   2     -9.2379668 -0.103052E-06  0.239E-02    1.81       2.1  T
   3     -9.2379665  0.299388E-06  0.106E-02    1.81       4.7  T
   4     -9.2379668 -0.348729E-06  0.235E-03    1.81      21.3  T
   5     -9.2379668 -0.586399E-08  0.140E-03    1.81      35.7  T
   6     -9.2379668  0.166721E-07  0.180E-03    1.81      27.8  T
   7     -9.2379668 -0.198053E-07  0.110E-04    1.81     456.1  T
   8     -9.2379668 -0.181899E-11  0.126E-05    1.81    3981.6  T
     SCC iter.                  ...        0 min,  0.001 sec
     gradient                   ...        0 min,  0.001 sec
 * total energy  :    -9.0423406 Eh     change       -0.2660028E-04 Eh
   gradient norm :     0.0033711 Eh/α   predicted    -0.1941709E-04 ( -27.00%)
   displ. norm   :     0.0096783 α      lambda       -0.1631641E-04
   maximum displ.:     0.0073246 α      in ANC's #1, #4, #6, ...

........................................................................
.............................. CYCLE   17 ..............................
........................................................................
   1     -9.2379538 -0.923795E+01  0.437E-02    1.81       0.0  T
   2     -9.2379538 -0.436059E-07  0.252E-02    1.80       2.0  T
   3     -9.2379529  0.867991E-06  0.175E-02    1.81       2.9  T
   4     -9.2379540 -0.102932E-05  0.160E-03    1.81      31.2  T
   5     -9.2379540  0.159660E-07  0.180E-03    1.81      27.8  T
   6     -9.2379540 -0.168281E-07  0.508E-04    1.81      98.5  T
   7     -9.2379540 -0.149396E-08  0.596E-05    1.81     839.3  T
     SCC iter.                  ...        0 min,  0.001 sec
     gradient                   ...        0 min,  0.001 sec
 * total energy  :    -9.0423495 Eh     change       -0.8905937E-05 Eh
   gradient norm :     0.0005073 Eh/α   predicted    -0.8157863E-05 (  -8.40%)
   displ. norm   :     0.0036865 α      lambda       -0.5923277E-06
   maximum displ.:     0.0023789 α      in ANC's #4, #1, #2, ...

........................................................................
.............................. CYCLE   18 ..............................
........................................................................
   1     -9.2378021 -0.923780E+01  0.161E-02    1.81       0.0  T
   2     -9.2378022 -0.102289E-07  0.913E-03    1.81       5.5  T
   3     -9.2378021  0.214770E-07  0.262E-03    1.81      19.1  T
   4     -9.2378022 -0.250883E-07  0.804E-04    1.81      62.2  T
   5     -9.2378022 -0.849852E-09  0.635E-04    1.81      78.7  T
     SCC iter.                  ...        0 min,  0.000 sec
     gradient                   ...        0 min,  0.001 sec
 * total energy  :    -9.0423497 Eh     change       -0.2430608E-06 Eh
   gradient norm :     0.0001307 Eh/α   predicted    -0.2964312E-06 (  21.96%)
   displ. norm   :     0.0013357 α      lambda       -0.9575011E-07
   maximum displ.:     0.0008261 α      in ANC's #1, #2, #4, ...

   *** GEOMETRY OPTIMIZATION CONVERGED AFTER 18 ITERATIONS ***

------------------------------------------------------------------------
 total energy gain   :        -0.2524751 Eh     -158.4305 kcal/mol
 total RMSD          :         1.0672968 a0        0.5648 Å
 total power (kW/mol):       -36.8262969 (step)********** (real)
------------------------------------------------------------------------

 ANCopt (total)                0 d,  0 h,  0 min,  0.051 sec
 optimizer setup                ...        0 min,  0.000 sec (  0.172%)
 model hessian                  ...        0 min,  0.000 sec (  0.170%)
 ANC generation                 ...        0 min,  0.000 sec (  0.093%)
 coordinate transformation      ...        0 min,  0.000 sec (  0.081%)
 single point calculation       ...        0 min,  0.049 sec ( 96.834%)
 optimization log               ...        0 min,  0.000 sec (  0.813%)
 hessian update                 ...        0 min,  0.000 sec (  0.070%)
 rational function              ...        0 min,  0.000 sec (  0.783%)

================
 final structure:
================
4
 xtb: 6.2.2 (9d81278992624c895f80dd42a50cac0aa55982e2)
C         0.79083464024485   -0.87167398466989   -0.06430380109191
C        -0.07096027764565    0.41227480331981    0.02685429347308
C        -0.45338231133255   -1.08693865208558   -0.06088794042182
N        -0.26649205126665    1.54633783343566    0.09833744804065

 Bond Distances (Angstroems)
 ---------------------------
C1-C2=1.5490         C1-C3=1.2627         C2-C1=1.5490         C2-C3=1.5497         C2-N4=1.1530         C3-C1=1.2627         
C3-C2=1.5497         N4-C2=1.1530         
 C  C  Rav=1.4538 sigma=0.1351  Rmin=1.2627  Rmax=1.5497     3
 N  C  Rav=1.1530 sigma=0.0000  Rmin=1.1530  Rmax=1.1530     1

 selected bond angles (degree)
 --------------------
C3-C1-C2= 65.98                C3-C2-C1= 48.09                N4-C2-C1=155.96                N4-C2-C3=155.95                
C2-C3-C1= 65.93                

 selected dihedral angles (degree)
 ---------------------------------
N4-C2-C1-C3=180.17            C1-C3-C2-N4=179.83            
           -------------------------------------------------
          |                Final Singlepoint                |
           -------------------------------------------------

          ...................................................
          :                      SETUP                      :
          :.................................................:
          :  # basis functions                  16          :
          :  # atomic orbitals                  16          :
          :  # shells                            8          :
          :  # electrons                        17          :
          :  max. iterations                   250          :
          :  Hamiltonian                  GFN2-xTB          :
          :  restarted?                      false          :
          :  GBSA solvation                  false          :
          :  PC potential                    false          :
          :  electronic temp.          300.0000000     K    :
          :  accuracy                    1.0000000          :
          :  -> integral cutoff          0.2500000E+02      :
          :  -> integral neglect         0.1000000E-07      :
          :  -> SCF convergence          0.1000000E-05 Eh   :
          :  -> wf. convergence          0.1000000E-03 e    :
          :  Broyden damping             0.4000000          :
          ...................................................

 iter      E             dE          RMSdq      gap      omega  full diag
   1     -9.2378022 -0.923780E+01  0.215E-04    1.81       0.0  T
   2     -9.2378022  0.195975E-09  0.231E-04    1.81     216.1  T
   3     -9.2378022 -0.264940E-09  0.126E-04    1.81     397.3  T

   *** convergence criteria satisfied after 3 iterations ***

         #    Occupation            Energy/Eh            Energy/eV
      -------------------------------------------------------------
         1        2.0000           -0.7243165             -19.7097
       ...           ...                  ...                  ...
         3        2.0000           -0.5862141             -15.9517
         4        2.0000           -0.5805618             -15.7979
         5        2.0000           -0.5608852             -15.2625
         6        2.0000           -0.5047840             -13.7359
         7        2.0000           -0.4801949             -13.0668
         8        2.0000           -0.4783774             -13.0173
         9        1.0000           -0.4164252             -11.3315 (HOMO)
        10                         -0.3500768              -9.5261 (LUMO)
        11                         -0.2647587              -7.2045
        12                         -0.2383961              -6.4871
        13                         -0.0521635              -1.4194
        14                         -0.0283133              -0.7704
       ...                                ...                  ...
        16                          0.9730568              26.4782
      -------------------------------------------------------------
                  HL-Gap            0.0663484 Eh            1.8054 eV
             Fermi-level           -0.4152977 Eh          -11.3008 eV

 SCC (total)                   0 d,  0 h,  0 min,  0.002 sec
 SCC setup                      ...        0 min,  0.000 sec (  2.988%)
 Dispersion                     ...        0 min,  0.000 sec (  0.365%)
 integral evaluation            ...        0 min,  0.001 sec ( 39.164%)
 zeroth order Hamiltonian       ...        0 min,  0.000 sec (  0.442%)
 iterations                     ...        0 min,  0.000 sec ( 17.493%)
 molecular gradient             ...        0 min,  0.001 sec ( 37.185%)
 printout                       ...        0 min,  0.000 sec (  1.979%)

         :::::::::::::::::::::::::::::::::::::::::::::::::::::
         ::                     SUMMARY                     ::
         :::::::::::::::::::::::::::::::::::::::::::::::::::::
         :: total energy              -9.042349738334 Eh    ::
         :: gradient norm              0.000133525761 Eh/a0 ::
         :: HOMO-LUMO gap              1.805431109869 eV    ::
         ::.................................................::
         :: SCC energy                -9.237802156147 Eh    ::
         :: -> isotropic ES            0.003572061361 Eh    ::
         :: -> anisotropic ES          0.000843274499 Eh    ::
         :: -> anisotropic XC          0.016321205609 Eh    ::
         :: -> dispersion             -0.001731922204 Eh    ::
         :: repulsion energy           0.195452411797 Eh    ::
         :: add. restraining           0.000000000000 Eh    ::
         :::::::::::::::::::::::::::::::::::::::::::::::::::::

           ------------------------------------------------- 
          |                Numerical Hessian                |
           ------------------------------------------------- 
step length          :   0.00500
SCC accuracy         :   0.30000
Hessian scale factor :   1.00000
frozen atoms in %    :   0.00000    0
RMS gradient         :   0.00013
estimated CPU  time      0.00 min
estimated wall time      0.00 min

writing file <hessian>.

 projected vibrational frequencies (cm-1)
eigval :       -0.00    -0.00    -0.00     0.00     0.00     0.00
eigval :     -359.58   377.70   430.43   773.68  1874.31  2253.56
           -------------------------------------------------
          |                Property Printout                |
           -------------------------------------------------

    * Orbital Energies and Occupations

         #    Occupation            Energy/Eh            Energy/eV
      -------------------------------------------------------------
         1        2.0000           -0.7243168             -19.7097
         2        2.0000           -0.6947858             -18.9061
         3        2.0000           -0.5862143             -15.9517
         4        2.0000           -0.5805620             -15.7979
         5        2.0000           -0.5608853             -15.2625
         6        2.0000           -0.5047841             -13.7359
         7        2.0000           -0.4801948             -13.0668
         8        2.0000           -0.4783776             -13.0173
         9        1.0000           -0.4164255             -11.3315 (HOMO)
        10                         -0.3500769              -9.5261 (LUMO)
        11                         -0.2647590              -7.2045
        12                         -0.2383961              -6.4871
        13                         -0.0521637              -1.4194
        14                         -0.0283135              -0.7704
        15                          0.6686793              18.1957
        16                          0.9730568              26.4782
      -------------------------------------------------------------
                  HL-Gap            0.0663486 Eh            1.8054 eV
             Fermi-level           -0.4152980 Eh          -11.3008 eV

     #   Z        covCN         q      C6AA      α(0)
     1   6 C      1.954    -0.014    31.451     9.057
     2   6 C      2.856     0.207    23.621     7.966
     3   6 C      1.953    -0.014    31.454     9.057
     4   7 N      0.911    -0.179    24.870     7.213

 Mol. C6AA /au·bohr⁶  :        442.736753
 Mol. C8AA /au·bohr⁸  :      12050.211163
 Mol. α(0) /au        :         33.292419


Wiberg/Mayer (AO) data.
largest (>0.10) Wiberg bond orders for each atom
          total WBO             WBO to atom ...
     1  C   3.039        C    3 2.170    C    2 0.664    N    4 0.205
     2  C   3.943        N    4 2.615    C    1 0.664    C    3 0.663
     3  C   3.038        C    1 2.170    C    2 0.663    N    4 0.205
     4  N   3.025        C    2 2.615    C    3 0.205    C    1 0.205

MOs/occ written to file <molden.input>


molecular dipole:
                 x           y           z       tot (Debye)
 q only:        0.053      -0.308      -0.019
   full:        0.112      -0.647      -0.041       1.673
molecular quadrupole (traceless):
                xx          xy          yy          xz          yz          zz
 q only:        0.668       0.376      -1.453       0.025      -0.142       0.784
  q+dip:        2.227       0.965      -3.215       0.043      -0.272       0.988
   full:        1.576       0.988      -3.998       0.072      -0.408       2.422

           -------------------------------------------------
          |                Geometry Summary                 |
           -------------------------------------------------

      molecular mass/u    :       50.0389109
   center of mass at/Å    :       -0.0106296       0.0616809       0.0039224
  moments of inertia/u·Å² :        0.9575120E+01   0.6035182E+02   0.6992693E+02
rotational constants/cm⁻¹ :        0.1760566E+01   0.2793227E+00   0.2410750E+00
Molecule has the following symmetry elements: (C2) 2*(sigma) 
It seems to be the C2v point group

 * 2 selected distances

     #   Z        #   Z                                     value/Å
     1   6 C      3   6 C                                 1.2627060 (max)
     2   6 C      4   7 N                                 1.1530141 (min)

 * 2 distinct bonds (by element types)

   Z      Z             #   av. dist./Å        max./Å        min./Å
   6 C    6 C           1     1.2627060     1.2627060     1.2627060
   6 C    7 N           1     1.1530141     1.1530141     1.1530141

           -------------------------------------------------
          |               Frequency Printout                |
           -------------------------------------------------
 projected vibrational frequencies (cm-1)
eigval :       -0.00    -0.00    -0.00     0.00     0.00     0.00
eigval :     -359.58   377.70   430.43   773.68  1874.31  2253.56
 reduced masses (amu)
   1: 12.13   2: 13.41   3: 12.03   4: 12.01   5: 12.66   6: 13.48   7: 12.01   8: 12.54
   9: 12.39  10: 12.57  11: 12.09  12: 12.80
 IR intensities (amu)
   1:  0.09   2:  0.13   3:  0.09   4:  0.06   5:  0.06   6:  0.14   7:  0.60   8:  0.46
   9:  0.50  10:  0.26  11:  0.17  12:  1.21
 Raman intensities (amu)
   1:  0.00   2:  0.00   3:  0.00   4:  0.00   5:  0.00   6:  0.00   7:  0.00   8:  0.00
   9:  0.00  10:  0.00  11:  0.00  12:  0.00
 output can be read by thermo (or use thermo option).
 writing <g98.out> molden fake output.
 recommended (thermochemical) frequency scaling factor: 1.0
           -------------------------------------------------
          |             Thermodynamic Functions             |
           -------------------------------------------------

c2v symmetry found (for desy threshold:  0.10E+00) used in thermo

          ...................................................
          :                      SETUP                      :
          :.................................................:
          :  # frequencies                           5      :
          :  # imaginary freq.                       1      :
          :  linear?                             false      :
          :  only rotor calc.                    false      :
          :  symmetry                              c2v      :
          :  rotational number                       2      :
          :  scaling factor                  1.0000000      :
          :  rotor cutoff                   50.0000000 cm⁻¹ :
          :  imag. cutoff                  -20.0000000 cm⁻¹ :
          :.................................................:

    mode    ω/cm⁻¹     T·S(HO)/kcal·mol⁻¹    T·S(FR)/kcal·mol⁻¹   T·S(vib)
   ------------------------------------------------------------------------
   ------------------------------------------------------------------------

   temp. (K)  partition function   enthalpy   heat capacity  entropy
                                   cal/mol     cal/K/mol   cal/K/mol   J/K/mol
 298.15  VIB   1.40                  439.366      3.640      2.139
         ROT  0.768E+04              888.752      2.981     20.759
         INT  0.107E+05             1328.118      6.621     22.898
         TR   0.342E+27             1481.254      4.968     37.637
         TOT                        2809.3720    11.5895    60.5348   253.2777

   temp. (K)  partition function   enthalpy   heat capacity  entropy
                                   cal/mol     cal/K/mol   cal/K/mol   J/K/mol
 120.00  VIB   1.02                   19.095      0.773      0.193
         ROT  0.196E+04              357.707      2.981     18.046
         INT  0.199E+04              376.802      3.754     18.239
         TR   0.874E+26              596.178      4.968     33.118
         TOT                         972.9800     8.7219    51.3566   214.8759

   temp. (K)  partition function   enthalpy   heat capacity  entropy
                                   cal/mol     cal/K/mol   cal/K/mol   J/K/mol
 100.00  VIB   1.01                    7.287      0.418      0.086
         ROT  0.149E+04              298.089      2.981     17.503
         INT  0.150E+04              305.376      3.399     17.589
         TR   0.665E+26              496.815      4.968     32.212
         TOT                         802.1908     8.3674    49.8010   208.3674

   temp. (K)  partition function   enthalpy   heat capacity  entropy
                                   cal/mol     cal/K/mol   cal/K/mol   J/K/mol
  80.00  VIB   1.00                    1.750      0.155      0.025
         ROT  0.107E+04              238.471      2.981     16.838
         INT  0.107E+04              240.221      3.136     16.863
         TR   0.476E+26              397.452      4.968     31.104
         TOT                         637.6731     8.1043    47.9670   200.6939

   temp. (K)  partition function   enthalpy   heat capacity  entropy
                                   cal/mol     cal/K/mol   cal/K/mol   J/K/mol
  60.00  VIB   1.00                    0.166      0.026      0.003
         ROT   693.                  178.853      2.981     15.980
         INT   693.                  179.020      3.007     15.983
         TR   0.309E+26              298.089      4.968     29.676
         TOT                         477.1088     7.9750    45.6589   191.0366

   temp. (K)  partition function   enthalpy   heat capacity  entropy
                                   cal/mol     cal/K/mol   cal/K/mol   J/K/mol
  40.00  VIB   1.00                    0.002      0.001     -0.000
         ROT   377.                  119.236      2.981     14.771
         INT   377.                  119.237      2.981     14.771
         TR   0.168E+26              198.726      4.968     27.662
         TOT                         317.9632     7.9496    42.4335   177.5420

   temp. (K)  partition function   enthalpy   heat capacity  entropy
                                   cal/mol     cal/K/mol   cal/K/mol   J/K/mol
  20.00  VIB   1.00                    0.000      0.000     -0.001
         ROT   133.                   59.618      2.981     12.705
         INT   133.                   59.618      2.981     12.705
         TR   0.595E+25               99.363      4.968     24.220
         TOT                         158.9808     7.9490    36.9250   154.4941

   temp. (K)  partition function   enthalpy   heat capacity  entropy
                                   cal/mol     cal/K/mol   cal/K/mol   J/K/mol
  10.00  VIB   1.00                    0.000      0.000     -0.001
         ROT   47.2                   29.809      2.981     10.639
         INT   47.2                   29.809      2.981     10.638
         TR   0.210E+25               49.681      4.968     20.778
         TOT                          79.4904     7.9490    31.4165   131.4465

       T/K    H(0)-H(T)+PV         H(T)/Eh          T*S/Eh         G(T)/Eh
   ------------------------------------------------------------------------
    298.15    0.447702E-02    0.174846E-01    0.287620E-01   -0.112774E-01
    120.00    0.155054E-02    0.145581E-01    0.982103E-02    0.473711E-02
    100.00    0.127837E-02    0.142860E-01    0.793630E-02    0.634968E-02
     80.00    0.101620E-02    0.140238E-01    0.611522E-02    0.790858E-02
     60.00    0.760321E-03    0.137679E-01    0.436572E-02    0.940220E-02
     40.00    0.506707E-03    0.135143E-01    0.270489E-02    0.108094E-01
     20.00    0.253352E-03    0.132610E-01    0.117687E-02    0.120841E-01
     10.00    0.126676E-03    0.131343E-01    0.500653E-03    0.126336E-01 (used)
   ------------------------------------------------------------------------

         :::::::::::::::::::::::::::::::::::::::::::::::::::::
         ::                  THERMODYNAMIC                  ::
         :::::::::::::::::::::::::::::::::::::::::::::::::::::
         :: total free energy          -9.029716115988 Eh   ::
         ::.................................................::
         :: total energy               -9.042349738448 Eh   ::
         :: zero point energy           0.013007599602 Eh   ::
         :: G(RRHO) w/o ZPVE           -0.000373977142 Eh   ::
         :: G(RRHO) contrib.            0.012633622460 Eh   ::
         :::::::::::::::::::::::::::::::::::::::::::::::::::::
imag cut-off (cm-1) :    5.00
 found            1  significant imaginary frequency
 writing imag mode distorted coords to xtbhess.xyz
 for further optimization.

optimized geometry written to: xtbopt.xyz


           -------------------------------------------------
          | TOTAL ENERGY               -9.042349738448 Eh   |
          | TOTAL ENTHALPY             -9.029215462831 Eh   |
          | TOTAL FREE ENERGY          -9.029716115988 Eh   |
          | GRADIENT NORM               0.000133542242 Eh/α |
          | HOMO-LUMO GAP               1.805437230331 eV   |
           -------------------------------------------------

------------------------------------------------------------------------
 * finished run on 2020/05/12 at 11:45:03.637     
------------------------------------------------------------------------
 total:
 * wall-time:     0 d,  0 h,  0 min,  0.136 sec
 *  cpu-time:     0 d,  0 h,  0 min,  0.136 sec
 * ratio c/w:     0.997 speedup
 SCF:
 * wall-time:     0 d,  0 h,  0 min,  0.004 sec
 *  cpu-time:     0 d,  0 h,  0 min,  0.004 sec
 * ratio c/w:     1.000 speedup
 ANC optimizer:
 * wall-time:     0 d,  0 h,  0 min,  0.054 sec
 *  cpu-time:     0 d,  0 h,  0 min,  0.054 sec
 * ratio c/w:     0.999 speedup
 numerical hessian:
 * wall-time:     0 d,  0 h,  0 min,  0.061 sec
 *  cpu-time:     0 d,  0 h,  0 min,  0.061 sec
 * ratio c/w:     0.996 speedup

