[Molden Format]
[Title]
[Atoms] AU
C      1     6  0.14944516922307E+01 -0.16472329851952E+01 -0.12151890326310E+00
C      2     6 -0.13409122160979E+00  0.77908718475501E+00  0.50746363544980E-01
C      3     6 -0.85677947509307E+00 -0.20540118908987E+01 -0.11505494539338E+00
N      4     7 -0.50358099552781E+00  0.29221576913389E+01  0.18582748511150E+00
[GTO]
           1 0
 s           4   1.0000000000000000     
   51.049363095579913      -0.16312063210127389     
   8.7911227406887544      -0.19911024581000730     
  0.70640422258929825       0.31882047753655751     
  0.26922813413411617       0.12706504184240380     
 p           4   1.0000000000000000     
   5.8263656140800002       0.73716451545209605     
   1.5106896018720002       0.68216371614850257     
  0.53256483288000001       0.35783053929253711     
  0.21202323690600003        5.3983030275847881E-002

           2 0
 s           4   1.0000000000000000     
   51.049363095579913      -0.16312063210127389     
   8.7911227406887544      -0.19911024581000730     
  0.70640422258929825       0.31882047753655751     
  0.26922813413411617       0.12706504184240380     
 p           4   1.0000000000000000     
   5.8263656140800002       0.73716451545209605     
   1.5106896018720002       0.68216371614850257     
  0.53256483288000001       0.35783053929253711     
  0.21202323690600003        5.3983030275847881E-002

           3 0
 s           4   1.0000000000000000     
   51.049363095579913      -0.16312063210127389     
   8.7911227406887544      -0.19911024581000730     
  0.70640422258929825       0.31882047753655751     
  0.26922813413411617       0.12706504184240380     
 p           4   1.0000000000000000     
   5.8263656140800002       0.73716451545209605     
   1.5106896018720002       0.68216371614850257     
  0.53256483288000001       0.35783053929253711     
  0.21202323690600003        5.3983030275847881E-002

           4 0
 s           4   1.0000000000000000     
   63.594024466941008      -0.19234388414721629     
   10.951417231523665      -0.23478107924953728     
  0.87999310257376984       0.37593753901700888     
  0.33538715296521110       0.14982889271862770     
 p           4   1.0000000000000000     
   7.2965040481495080       0.97658666315667420     
   1.8918745450712575       0.90372226730345739     
  0.66694432110824120       0.47404958461536373     
  0.26552202674130870        7.1516067715011844E-002

[MO]
Sym=     1a
Ene=  -0.72431678176709258     
Spin= Alpha
Occup=     2.00000000
           1 -0.38298326625694545     
           2  0.16766290781749874     
           3  -6.1746653723132393E-002
           4  -6.0797062330585827E-003
           5 -0.37269700311820131     
           6  -2.0918604728183115E-002
           7  0.12127044625915681     
           8   7.8789386095829538E-003
           9 -0.38291274693789301     
          10 -0.13724742167757659     
          11 -0.11439520302201564     
          12  -5.2350874479100886E-003
          13 -0.10207350801513053     
          14  -1.3227069496482243E-002
          15   7.6687033835263235E-002
          16   4.8817561188790534E-003
Sym=     2a
Ene=  -0.69478583408470462     
Spin= Alpha
Occup=     2.00000000
           1 -0.16034396809676116     
           2   5.5570878770778681E-002
           3   4.6822249601131467E-002
           4   2.1117703948318458E-003
           5  0.34361085077902698     
           6  -5.5476769051343106E-002
           7  0.32198716875291034     
           8   2.0378769625054978E-002
           9 -0.16041588550371602     
          10  -6.8002112624327468E-002
          11   2.5379962248990313E-002
          12   2.4476140150795846E-003
          13  0.51286478307304328     
          14   3.3220355734627456E-002
          15 -0.19256668650884246     
          16  -1.2128360152957767E-002
Sym=     3a
Ene=  -0.58621433166532999     
Spin= Alpha
Occup=     2.00000000
           1 -0.36328026232291899     
           2 -0.19377499259977013     
           3 -0.14311454922798844     
           4  -6.2577996780531176E-003
           5  -1.9447869852560931E-003
           6 -0.49560388444907350     
           7  -8.3786237148709641E-002
           8   1.4810484557865333E-003
           9  0.36642750347228409     
          10 -0.22779229279220808     
          11   6.5190047153949590E-002
          12   7.1058766242017343E-003
          13   2.2101672234622382E-003
          14 -0.33391354433597337     
          15  -5.6977834756912905E-002
          16   9.6588462479354684E-004
Sym=     4a
Ene=  -0.58056202747658858     
Spin= Alpha
Occup=     2.00000000
           1 -0.24752785685620390     
           2   5.8321833918294659E-002
           3  0.41411983719337553     
           4   2.5056462231807984E-002
           5  0.29833427507228150     
           6   3.9006172136316741E-002
           7 -0.24616591683882452     
           8  -1.5281343180681301E-002
           9 -0.24305140585729937     
          10 -0.19676624431197332     
          11  0.37125039938470633     
          12   2.5835834121297460E-002
          13 -0.33495765451093223     
          14   1.6069588663073991E-002
          15 -0.10732919859557960     
          16  -6.6115946292286329E-003
Sym=     5a
Ene=  -0.56088533110157357     
Spin= Alpha
Occup=     2.00000000
           1   1.8418924887676457E-004
           2   4.3175830971017275E-003
           3  -2.0440328570241608E-002
           4  0.32493949753237233     
           5   2.0905104224707896E-004
           6   7.3762196947140292E-003
           7  -3.3813809099425288E-002
           8  0.55481579985812546     
           9   1.8374555780355451E-004
          10   4.5331952591542071E-003
          11  -2.0392341052212326E-002
          12  0.32476916565653219     
          13   7.3664277651855396E-005
          14   5.8325537924053539E-003
          15  -2.6735779272472289E-002
          16  0.43877942926147107     
Sym=     6a
Ene=  -0.50478413130630284     
Spin= Alpha
Occup=     2.00000000
           1  0.42120786231781837     
           2  0.29986968363691435     
           3  -6.0587617248468235E-002
           4  -7.7742661947795945E-003
           5  -2.2274899842076967E-005
           6 -0.28897684714282151     
           7  -4.9903845238941383E-002
           8   8.0017995506726902E-004
           9 -0.42144515800756049     
          10  0.26260919242874081     
          11  0.15750370498751809     
          12   6.2036940766936307E-003
          13   1.4846415771938527E-004
          14 -0.55503262046973889     
          15  -9.5675527052075632E-002
          16   1.5473718108175848E-003
Sym=     7a
Ene=  -0.48019476490981572     
Spin= Alpha
Occup=     2.00000000
           1  -1.6158678003656893E-002
           2  -2.0289481626244863E-002
           3  0.22059211214689875     
           4   2.2568943378992276E-002
           5 -0.15760855783694841     
           6   3.3516421623553727E-002
           7 -0.19428526463595999     
           8  -1.5724740633432419E-002
           9  -1.6123594565478370E-002
          10  -5.4926927471189782E-002
          11  0.21464599373263285     
          12   2.2668336815897916E-002
          13  0.60851944762028187     
          14 -0.11381657898058871     
          15  0.66024837834873107     
          16   3.2307546048839911E-002
Sym=     8a
Ene=  -0.47837758242309891     
Spin= Alpha
Occup=     2.00000000
           1  -2.4081968389056863E-004
           2  -7.2140420591052853E-003
           3   3.5134545557555255E-002
           4 -0.50589199777890381     
           5  -2.5404800934063867E-003
           6   3.3225396570768480E-003
           7  -1.5927405875366101E-002
           8  0.20656872584846167     
           9  -2.4043272793372849E-004
          10  -7.7115371917471053E-003
          11   3.5054916627384997E-002
          12 -0.50597660251588383     
          13   1.0087742600590003E-002
          14   5.5835216998704014E-003
          15  -2.3235543712598641E-002
          16  0.56670165825098651     
Sym=     9a
Ene=  -0.41642550766256758     
Spin= Alpha
Occup=     1.00000000
           1 -0.39089427578788799     
           2 -0.60572252094368617     
           3  -6.7101586156587054E-002
           4   4.0150802692262228E-003
           5  -1.6448241400037023E-002
           6  -3.0288390636492267E-003
           7   1.6603190814111643E-002
           8   1.0590890087451266E-003
           9 -0.39099945807879405     
          10  0.59310985975941999     
          11  0.14049405994103245     
          12   7.3100046397738688E-004
          13  -1.3235645110354461E-002
          14   4.7730589841951231E-004
          15   2.2200760862481146E-003
          16   8.2210294898849291E-005
Sym=    10a
Ene=  -0.35007691030108695     
Spin= Alpha
Occup=     0.00000000
           1 -0.10796772940366267     
           2 -0.18355097781218602     
           3  0.47059265358624291     
           4   3.1658724821705675E-002
           5   1.4256810685788241E-004
           6  0.41597250026873184     
           7   7.1642507779786105E-002
           8  -1.1632425351523496E-003
           9  0.10725352838424650     
          10  -1.4062427229400744E-002
          11 -0.50518738453241885     
          12  -3.1140925769998662E-002
          13   2.8587953861705993E-005
          14 -0.66965653124902902     
          15 -0.11541718419087064     
          16   1.8676848642447130E-003
Sym=    11a
Ene=  -0.26475904254920385     
Spin= Alpha
Occup=     0.00000000
           1  -5.0761027109369382E-006
           2   1.0927106996596167E-002
           3  -5.0292132232931823E-002
           4  0.81137213126249119     
           5   2.8716940347950130E-006
           6   2.5112933900422757E-005
           7  -1.4915185721541257E-004
           8   2.3974838851957168E-003
           9   4.3078749967029393E-006
          10  -1.0953703096703493E-002
          11   5.0371972981905065E-002
          12 -0.81272860600387842     
          13   2.9743358968274411E-007
          14   1.5532143216347405E-005
          15   1.4949312254780456E-004
          16  -2.3083310326786777E-003
Sym=    12a
Ene=  -0.23839609058962072     
Spin= Alpha
Occup=     0.00000000
           1  -1.7050979568430423E-004
           2  -2.9598284466514032E-003
           3   1.3748011145390447E-002
           4 -0.23004984415914423     
           5   1.1437210144037660E-003
           6   1.1675913852096835E-002
           7  -5.3680475081962734E-002
           8  0.86937214648362360     
           9  -1.7058733092481396E-004
          10  -2.9925470022084352E-003
          11   1.3425212144279797E-002
          12 -0.22512674785054060     
          13   6.2693031221283132E-005
          14  -1.0006698904001753E-002
          15   4.5964346591834015E-002
          16 -0.74764203342883784     
Sym=    13a
Ene=   -5.2163681142356456E-002
Spin= Alpha
Occup=     0.00000000
           1   7.5301143070959795E-002
           2   5.8318992101888352E-002
           3  0.67868682482975762     
           4   4.1272805966734660E-002
           5   1.2451384726080216E-002
           6 -0.80459416958279273     
           7 -0.14604158507775611     
           8   1.7733673943901994E-003
           9  -8.2636623264586373E-002
          10  0.28223670258917266     
          11 -0.63393398330608064     
          12  -4.3080977734404308E-002
          13  -9.6400073871839007E-004
          14  0.42072628195019773     
          15   7.7806459992939905E-002
          16  -8.3943155558442316E-004
Sym=    14a
Ene=   -2.8313499851434661E-002
Spin= Alpha
Occup=     0.00000000
           1 -0.28565164008560434     
           2  0.17698007812558000     
           3 -0.50409447729468637     
           4  -3.3419318769696359E-002
           5  0.95778090647086400     
           6   9.9593313513748463E-002
           7 -0.51404503255748224     
           8  -3.4227826538152463E-002
           9 -0.28353974857832598     
          10  -5.9839443714291484E-003
          11 -0.51690191371118122     
          12  -3.1749322196375232E-002
          13  -8.6046436683513444E-002
          14  -7.1628634479057887E-002
          15  0.38342670096695503     
          16   2.5111677814166292E-002
Sym=    15a
Ene=   0.66867932593876567     
Spin= Alpha
Occup=     0.00000000
           1 -0.89964016970344840     
           2  0.98886294540321096     
           3  0.11416894789092957     
           4  -6.2439365544389308E-003
           5   9.4032615921235295E-004
           6  0.15767262284809061     
           7   2.7930187982681012E-002
           8  -3.9433366817835235E-004
           9  0.89965050440713001     
          10  0.96985971260832626     
          11  0.22464226644646845     
          12   8.5559089423784701E-004
          13  -7.9127529785746659E-004
          14  -5.6511068731607293E-002
          15  -8.8531786425079702E-003
          16   2.1162406488368641E-004
Sym=    16a
Ene=   0.97305680333132694     
Spin= Alpha
Occup=     0.00000000
           1  0.18737698281846180     
           2 -0.10313380566795427     
           3  0.17764109912398937     
           4   1.2542071303664623E-002
           5  0.66544731591154238     
           6 -0.22138565157909879     
           7   1.2822222120782296     
           8   8.1144373130212555E-002
           9  0.18554427631292308     
          10   3.6133539691592359E-002
          11  0.20110893364241367     
          12   1.2120015756860463E-002
          13 -0.98984062349328905     
          14 -0.16689906775881166     
          15  0.96857944130347295     
          16   6.0957672968989712E-002
