      -----------------------------------------------------------      
     |                   =====================                   |     
     |                           x T B                           |     
     |                   =====================                   |     
     |                         S. Grimme                         |     
     |          Mulliken Center for Theoretical Chemistry        |     
     |                    University of Bonn                     |     
      -----------------------------------------------------------      

   * xtb version 6.2.2 (9d81278992624c895f80dd42a50cac0aa55982e2) compiled by '@Darwin' on 04/03/2020

   xtb is free software: you can redistribute it and/or modify it under
   the terms of the GNU Lesser General Public License as published by
   the Free Software Foundation, either version 3 of the License, or
   (at your option) any later version.
   
   xtb is distributed in the hope that it will be useful,
   but WITHOUT ANY WARRANTY; without even the implied warranty of
   MERCHANTABILITY or FITNESS FOR A PARTICULAR PURPOSE.  See the
   GNU Lesser General Public License for more details.
   
   Cite this work as:
   * S. Grimme, C. Bannwarth, P. Shushkov, J. Chem. Theory Comput., 2017,
     13, 1989-2009. DOI: 10.1021/acs.jctc.7b00118
   * C. Bannwarth, S. Ehlert and S. Grimme., J. Chem. Theory Comput., 2019,
     15, 1652-1671. DOI: 10.1021/acs.jctc.8b01176
   * P. Pracht, E. Caldeweyher, S. Ehlert, S. Grimme, ChemRxiv, 2019, preprint.
     DOI: 10.26434/chemrxiv.8326202.v1
   
   for DFT-D4:
   * E. Caldeweyher, C. Bannwarth and S. Grimme, J. Chem. Phys., 2017,
     147, 034112. DOI: 10.1063/1.4993215
   * E. Caldeweyher, S. Ehlert, A. Hansen, H. Neugebauer, S. Spicher,
     C. Bannwarth and S. Grimme, J. Chem. Phys., 2019, 150, 154122.
     DOI: 10.1063/1.5090222
   
   for sTDA-xTB:
   * S. Grimme and C. Bannwarth, J. Chem. Phys., 2016, 145, 054103.
     DOI: 10.1063/1.4959605
   
   in the mass-spec context:
   * V. Asgeirsson, C. Bauer and S. Grimme, Chem. Sci., 2017, 8, 4879.
     DOI: 10.1039/c7sc00601b
   
   for metadynamics refer to:
   * S. Grimme, J. Chem. Theory Comput., 2019, 155, 2847-2862
     DOI: 10.1021/acs.jctc.9b00143
   
   with help from (in alphabetical order)
   C. Bannwarth, F. Bohle, G. Brandenburg, E. Caldeweyher, M. Checinski,
   S. Dohm, S. Ehlert, S. Ehrlich, F. März, H. Neugebauer, J. Pisarek,
   P. Pracht, P. Shushkov, and S. Spicher.
   
 * started run on 2020/05/12 at 14:38:39.257     

           -------------------------------------------------
          |                Calculation Setup                |
           -------------------------------------------------

          program call               : xtb --input C4_0_S_0.input C4_0_S_0.xyz --ohess --molden --namespace C4_0_S_0 output.out
          calculation namespace      : C4_0_S_0
          coordinate file            : C4_0_S_0.xyz
          number of atoms            :                     4
          number of electrons        :                    16
          charge                     :                     0
          spin                       :                   0.0
          first test random number   :      0.57890667767920

   ID    Z sym.   atoms
    1    6 C      1-4

           -------------------------------------------------
          |                 G F N 2 - x T B                 |
           -------------------------------------------------

        Reference                      10.1021/acs.jctc.8b01176
      * Hamiltonian:
        H0-scaling (s, p, d)           1.850000    2.230000    2.230000
        zeta-weighting                 0.500000
      * Dispersion:
        s8                             2.700000
        a1                             0.520000
        a2                             5.000000
        s9                             5.000000
      * Repulsion:
        kExp                           1.500000    1.000000
        rExp                           1.000000
      * Coulomb:
        alpha                          2.000000
        third order                    shell-resolved
        anisotropic                    true
        a3                             3.000000
        a5                             4.000000
        cn-shift                       1.200000
        cn-exp                         4.000000
        max-rad                        5.000000

q/qsh data taken from xtbrestart
CAMM data taken from xtbrestart

          ...................................................
          :                      SETUP                      :
          :.................................................:
          :  # basis functions                  16          :
          :  # atomic orbitals                  16          :
          :  # shells                            8          :
          :  # electrons                        16          :
          :  max. iterations                   250          :
          :  Hamiltonian                  GFN2-xTB          :
          :  restarted?                       true          :
          :  GBSA solvation                  false          :
          :  PC potential                    false          :
          :  electronic temp.          300.0000000     K    :
          :  accuracy                    1.0000000          :
          :  -> integral cutoff          0.2500000E+02      :
          :  -> integral neglect         0.1000000E-07      :
          :  -> SCF convergence          0.1000000E-05 Eh   :
          :  -> wf. convergence          0.1000000E-03 e    :
          :  Broyden damping             0.4000000          :
          ...................................................

 iter      E             dE          RMSdq      gap      omega  full diag
   1     -7.7254034 -0.772540E+01  0.128E+01    0.08       0.0  T
   2     -4.2199508  0.350545E+01  0.221E+01    0.68       1.0  T
   3     -7.0791996 -0.285925E+01  0.118E+01    0.26       1.0  T
   4     -6.6167333  0.462466E+00  0.134E+01    0.34       1.0  T
   5     -7.6617281 -0.104499E+01  0.991E+00    0.13       1.0  T
   6     -7.9037189 -0.241991E+00  0.639E+00    0.06       1.0  T
   7     -7.9288221 -0.251032E-01  0.585E+00    0.06       1.0  T
   8     -7.9215486  0.727353E-02  0.457E+00    0.03       1.0  T
   9     -7.9846432 -0.630946E-01  0.267E+00    0.00       1.0  T
  10     -7.9654311  0.192121E-01  0.408E+00    0.04       1.0  T
  11     -7.9640375  0.139355E-02  0.426E+00    0.05       1.0  T
  12     -8.0010449 -0.370074E-01  0.174E+00    0.02       1.0  T
  13     -8.0046881 -0.364316E-02  0.706E-01    0.00       1.0  T
  14     -8.0039254  0.762746E-03  0.863E-01    0.01       1.0  T
  15     -8.0060514 -0.212607E-02  0.497E-01    0.01       1.0  T
  16     -8.0059641  0.873079E-04  0.540E-01    0.01       1.0  T
  17     -8.0065966 -0.632500E-03  0.102E-01    0.00       1.0  T
  18     -8.0065928  0.385762E-05  0.876E-02    0.00       1.0  T
  19     -8.0065912  0.154546E-05  0.631E-02    0.00       1.0  T
  20     -8.0066003 -0.905375E-05  0.945E-03    0.00       5.3  T
  21     -8.0066003 -0.639124E-07  0.789E-03    0.00       6.3  T
  22     -8.0066004 -0.518634E-07  0.172E-03    0.00      29.0  T
  23     -8.0066004 -0.588597E-08  0.514E-04    0.00      97.3  T
  24     -8.0066004 -0.661323E-09  0.266E-04    0.00     188.2  T

   *** convergence criteria satisfied after 24 iterations ***

         #    Occupation            Energy/Eh            Energy/eV
      -------------------------------------------------------------
         1        2.0000           -0.7232458             -19.6805
         2        2.0000           -0.6712054             -18.2644
         3        2.0000           -0.6712051             -18.2644
         4        2.0000           -0.5601215             -15.2417
         5        2.0000           -0.5234320             -14.2433
         6        2.0000           -0.5126213             -13.9491
         7        2.0000           -0.5126211             -13.9491
         8        1.0000           -0.4363334             -11.8732 (HOMO)
         9        1.0000           -0.4363333             -11.8732 (LUMO)
        10                         -0.4051456             -11.0246
        11                         -0.4051455             -11.0246
        12                         -0.4000708             -10.8865
        13                         -0.3258901              -8.8679
       ...                                ...                  ...
        16                          0.0750805               2.0430
      -------------------------------------------------------------
                  HL-Gap            0.0000001 Eh            0.0000 eV
             Fermi-level           -0.4363333 Eh          -11.8732 eV

 SCC (total)                   0 d,  0 h,  0 min,  0.004 sec
 SCC setup                      ...        0 min,  0.000 sec (  1.832%)
 Dispersion                     ...        0 min,  0.000 sec (  0.364%)
 integral evaluation            ...        0 min,  0.001 sec ( 23.829%)
 zeroth order Hamiltonian       ...        0 min,  0.000 sec (  0.450%)
 iterations                     ...        0 min,  0.002 sec ( 45.688%)
 molecular gradient             ...        0 min,  0.001 sec ( 25.628%)
 printout                       ...        0 min,  0.000 sec (  2.050%)

         :::::::::::::::::::::::::::::::::::::::::::::::::::::
         ::                     SUMMARY                     ::
         :::::::::::::::::::::::::::::::::::::::::::::::::::::
         :: total energy              -7.961759526515 Eh    ::
         :: gradient norm              0.197628487482 Eh/a0 ::
         :: HOMO-LUMO gap              0.000003422754 eV    ::
         ::.................................................::
         :: SCC energy                -8.006600385025 Eh    ::
         :: -> isotropic ES           -0.044453781129 Eh    ::
         :: -> anisotropic ES         -0.001212170875 Eh    ::
         :: -> anisotropic XC          0.008526674313 Eh    ::
         :: -> dispersion             -0.002041133459 Eh    ::
         :: repulsion energy           0.044840789665 Eh    ::
         :: add. restraining           0.000000000000 Eh    ::
         :::::::::::::::::::::::::::::::::::::::::::::::::::::

      ----------------------------------------------------------- 
     |                   =====================                   |
     |                        A N C O P T                        |
     |                   =====================                   |
     |               Approximate Normal Coordinate               |
     |                Rational Function Optimizer                |
      ----------------------------------------------------------- 

          ...................................................
          :                      SETUP                      :
          :.................................................:
          :   optimization level            normal          :
          :   max. optcycles                   200          :
          :   ANC micro-cycles                  20          :
          :   degrees of freedom                 6          :
          :.................................................:
          :   RF solver                   davidson          :
          :   write xtbopt.log                true          :
          :   linear?                        false          :
          :   energy convergence         0.5000000E-05 Eh   :
          :   grad. convergence          0.1000000E-02 Eh/α :
          :   maximium RF displ.         1.0000000          :
          :   Hlow (freq-cutoff)         0.1000000E-01      :
          :   Hmax (freq-cutoff)         5.0000000          :
          :   S6 in model hess.         20.0000000          :
          ...................................................

generating ANC from model Hessian ...
Using Lindh-Hessian (1995)
 Shifting diagonal of input Hessian by    0.0000000000000000     
 Lowest  eigenvalues of input Hessian
   -0.000000   -0.000000   -0.000000   -0.000000    0.000000    0.000000
    0.059746    0.071062    0.071062    0.571709    0.976882    0.976884
 Highest eigenvalues
    0.059746    0.071062    0.071062    0.571709    0.976882    0.976884


........................................................................
.............................. CYCLE    1 ..............................
........................................................................
   1     -8.0066004 -0.800660E+01  0.487E-05    0.00       0.0  T
   2     -8.0066004  0.117595E-09  0.150E-04    0.00     332.5  T
   3     -8.0066004  0.214229E-11  0.162E-04    0.00     308.1  T
     SCC iter.                  ...        0 min,  0.000 sec
     gradient                   ...        0 min,  0.001 sec
 * total energy  :    -7.9617595 Eh     change       -0.2372920E-09 Eh
   gradient norm :     0.1976284 Eh/α   predicted     0.0000000E+00 (-100.00%)
   displ. norm   :     0.3390665 α      lambda       -0.6336898E-01
   maximum displ.:     0.3100480 α      in ANC's #4, #1, #3, ...

........................................................................
.............................. CYCLE    2 ..............................
........................................................................
   1     -8.0966742 -0.809667E+01  0.147E+00    0.00       0.0  T
   2     -8.0983734 -0.169924E-02  0.115E+00    0.00       1.0  T
   3     -8.1005493 -0.217584E-02  0.598E-01    0.00       1.0  T
   4     -8.1006273 -0.780850E-04  0.658E-02    0.00       1.0  T
   5     -8.1004765  0.150805E-03  0.231E-01    0.00       1.0  T
   6     -8.1006334 -0.156818E-03  0.151E-02    0.00       3.3  T
   7     -8.1006329  0.495669E-06  0.153E-02    0.00       3.3  T
   8     -8.1006336 -0.687765E-06  0.273E-03    0.00      18.3  T
   9     -8.1006336 -0.140549E-07  0.521E-04    0.00      95.9  T
  10     -8.1006336 -0.492054E-09  0.728E-05    0.00     686.9  T
     SCC iter.                  ...        0 min,  0.001 sec
     gradient                   ...        0 min,  0.001 sec
 * total energy  :    -8.0081337 Eh     change       -0.4637422E-01 Eh
   gradient norm :     0.0754559 Eh/α   predicted    -0.3532712E-01 ( -23.82%)
   displ. norm   :     0.2780711 α      lambda       -0.1644771E-01
   maximum displ.:     0.2078965 α      in ANC's #1, #4, #3, ...

........................................................................
.............................. CYCLE    3 ..............................
........................................................................
   1     -8.1517041 -0.815170E+01  0.130E+00    0.00       0.0  T
   2     -8.1531118 -0.140775E-02  0.832E-01    0.00       1.0  T
   3     -8.1537946 -0.682771E-03  0.485E-01    0.00       1.0  T
   4     -8.1536758  0.118735E-03  0.326E-01    0.01       1.0  T
   5     -8.1539189 -0.243061E-03  0.294E-02    0.00       1.7  T
   6     -8.1539193 -0.400366E-06  0.115E-02    0.00       4.3  T
   7     -8.1539173  0.202247E-05  0.315E-02    0.00       1.6  T
   8     -8.1539195 -0.226704E-05  0.164E-03    0.00      30.5  T
   9     -8.1539195 -0.497840E-09  0.946E-04    0.00      52.9  T
  10     -8.1539195 -0.183614E-08  0.198E-04    0.00     253.1  T
     SCC iter.                  ...        0 min,  0.001 sec
     gradient                   ...        0 min,  0.001 sec
 * total energy  :    -8.0127255 Eh     change       -0.4591780E-02 Eh
   gradient norm :     0.0525454 Eh/α   predicted    -0.8859750E-02 (  92.95%)
   displ. norm   :     0.0923435 α      lambda       -0.4060189E-02
   maximum displ.:     0.0725322 α      in ANC's #4, #1, #3, ...

........................................................................
.............................. CYCLE    4 ..............................
........................................................................
   1     -8.1325590 -0.813256E+01  0.485E-01    0.00       0.0  T
   2     -8.1326359 -0.768860E-04  0.340E-01    0.00       1.0  T
   3     -8.1326338  0.209206E-05  0.199E-01    0.00       1.0  T
   4     -8.1320259  0.607926E-03  0.503E-01    0.01       1.0  T
   5     -8.1327042 -0.678333E-03  0.225E-02    0.00       2.2  T
   6     -8.1327032  0.102288E-05  0.251E-02    0.00       2.0  T
   7     -8.1327043 -0.107603E-05  0.144E-02    0.00       3.5  T
   8     -8.1327047 -0.409101E-06  0.614E-03    0.00       8.1  T
   9     -8.1327048 -0.982484E-07  0.466E-04    0.00     107.3  T
  10     -8.1327048 -0.459863E-09  0.782E-05    0.00     639.3  T
     SCC iter.                  ...        0 min,  0.001 sec
     gradient                   ...        0 min,  0.001 sec
 * total energy  :    -8.0145476 Eh     change       -0.1822115E-02 Eh
   gradient norm :     0.0070234 Eh/α   predicted    -0.2047404E-02 (  12.36%)
   displ. norm   :     0.0307121 α      lambda       -0.1037407E-03
   maximum displ.:     0.0295272 α      in ANC's #1, #4, #3, ...

........................................................................
.............................. CYCLE    5 ..............................
........................................................................
   1     -8.1344081 -0.813441E+01  0.181E-01    0.00       0.0  T
   2     -8.1343796  0.285620E-04  0.143E-01    0.00       1.0  T
   3     -8.1341352  0.244385E-03  0.337E-01    0.01       1.0  T
   4     -8.1343939 -0.258742E-03  0.108E-01    0.00       1.0  T
   5     -8.1343835  0.104180E-04  0.124E-01    0.00       1.0  T
   6     -8.1344181 -0.345610E-04  0.417E-02    0.00       1.2  T
   7     -8.1344226 -0.455201E-05  0.106E-03    0.00      47.2  T
   8     -8.1344226  0.100323E-08  0.868E-04    0.00      57.6  T
   9     -8.1344226  0.358998E-09  0.800E-04    0.00      62.5  T
     SCC iter.                  ...        0 min,  0.001 sec
     gradient                   ...        0 min,  0.001 sec
 * total energy  :    -8.0146158 Eh     change       -0.6817520E-04 Eh
   gradient norm :     0.0018849 Eh/α   predicted    -0.5191810E-04 ( -23.85%)
   displ. norm   :     0.0354669 α      lambda       -0.2540450E-04
   maximum displ.:     0.0308572 α      in ANC's #1, #3, #2, ...

........................................................................
.............................. CYCLE    6 ..............................
........................................................................
   1     -8.1346157 -0.813462E+01  0.171E+00    0.04       0.0  T
   2     -8.1243530  0.102626E-01  0.179E+00    0.01       1.0  T
   3     -8.0969700  0.273831E-01  0.355E+00    0.08       1.0  T
   4     -8.1351319 -0.381619E-01  0.236E-01    0.02       1.0  T
   5     -8.1351054  0.265108E-04  0.194E-01    0.01       1.0  T
   6     -8.1351927 -0.872797E-04  0.103E-01    0.01       1.0  T
   7     -8.1352065 -0.138027E-04  0.555E-02    0.01       1.0  T
   8     -8.1352075 -0.987635E-06  0.535E-02    0.01       1.0  T
   9     -8.1352149 -0.746889E-05  0.275E-03    0.01      18.2  T
  10     -8.1352149 -0.427338E-08  0.164E-03    0.01      30.5  T
  11     -8.1352149 -0.222942E-08  0.236E-04    0.01     211.5  T
  12     -8.1352149 -0.283134E-10  0.851E-05    0.01     587.6  T
     SCC iter.                  ...        0 min,  0.001 sec
     gradient                   ...        0 min,  0.001 sec
 * total energy  :    -8.0147117 Eh     change       -0.9587205E-04 Eh
   gradient norm :     0.0131346 Eh/α   predicted    -0.1271006E-04 ( -86.74%)
   displ. norm   :     0.1382361 α      lambda       -0.1397528E-02
   maximum displ.:     0.1131370 α      in ANC's #3, #2, #1, ...

........................................................................
.............................. CYCLE    7 ..............................
........................................................................
   1     -8.1387822 -0.813878E+01  0.448E+00    0.30       0.0  T
   2     -8.1018590  0.369232E-01  0.328E+00    0.16       1.0  T
   3     -7.8020738  0.299785E+00  0.678E+00    0.53       1.0  T
   4     -8.1404795 -0.338406E+00  0.736E-01    0.18       1.0  T
   5     -8.1411132 -0.633701E-03  0.446E-01    0.17       1.0  T
   6     -8.1413726 -0.259369E-03  0.297E-01    0.17       1.0  T
   7     -8.1413547  0.178803E-04  0.283E-01    0.17       1.0  T
   8     -8.1415367 -0.182040E-03  0.792E-02    0.17       1.0  T
   9     -8.1415516 -0.148037E-04  0.803E-03    0.16       6.2  T
  10     -8.1415516 -0.558593E-07  0.732E-03    0.16       6.8  T
  11     -8.1415517 -0.625265E-07  0.133E-03    0.16      37.6  T
  12     -8.1415517 -0.165842E-08  0.406E-04    0.16     123.1  T
  13     -8.1415517 -0.352015E-09  0.145E-04    0.16     344.6  T
     SCC iter.                  ...        0 min,  0.001 sec
     gradient                   ...        0 min,  0.001 sec
 * total energy  :    -8.0207579 Eh     change       -0.6046164E-02 Eh
   gradient norm :     0.0874211 Eh/α   predicted    -0.7121195E-03 ( -88.22%)
   displ. norm   :     0.6020840 α      lambda       -0.4161429E-01
   maximum displ.:     0.4923584 α      in ANC's #3, #2, #1, ...

........................................................................
.............................. CYCLE    8 ..............................
........................................................................
   1     -8.1650294 -0.816503E+01  0.340E+00    1.41       0.0  T
   2     -8.1491964  0.158330E-01  0.252E+00    1.39       1.0  T
   3     -8.0841583  0.650381E-01  0.350E+00    1.28       1.0  T
   4     -8.1622257 -0.780674E-01  0.873E-01    1.36       1.0  T
   5     -8.1672087 -0.498307E-02  0.274E-01    1.44       1.0  T
   6     -8.1675956 -0.386848E-03  0.123E-01    1.43       1.0  T
   7     -8.1676187 -0.230768E-04  0.904E-02    1.43       1.0  T
   8     -8.1676393 -0.205810E-04  0.643E-03    1.43       7.8  T
   9     -8.1676393  0.233115E-08  0.415E-03    1.43      12.1  T
  10     -8.1676393 -0.177323E-07  0.405E-04    1.43     123.6  T
  11     -8.1676393 -0.223652E-09  0.577E-05    1.43     866.8  T
     SCC iter.                  ...        0 min,  0.001 sec
     gradient                   ...        0 min,  0.001 sec
 * total energy  :    -8.0619625 Eh     change       -0.4120464E-01 Eh
   gradient norm :     0.1173311 Eh/α   predicted    -0.2834984E-01 ( -31.20%)
   displ. norm   :     0.8796478 α      lambda       -0.6212153E-01
   maximum displ.:     0.7279361 α      in ANC's #3, #1, #2, ...

........................................................................
.............................. CYCLE    9 ..............................
........................................................................
   1     -8.1620235 -0.816202E+01  0.531E+00    1.09       0.0  T
   2     -8.1435205  0.185030E-01  0.376E+00    0.54       1.0  T
   3     -8.0527271  0.907934E-01  0.436E+00    1.34       1.0  T
   4     -8.0841396 -0.314126E-01  0.333E+00    0.84       1.0  T
   5     -8.1682121 -0.840725E-01  0.658E-01    0.91       1.0  T
   6     -8.1696094 -0.139729E-02  0.424E-01    0.84       1.0  T
   7     -8.1697576 -0.148175E-03  0.348E-01    0.84       1.0  T
   8     -8.1699948 -0.237227E-03  0.296E-02    0.79       1.7  T
   9     -8.1699940  0.806003E-06  0.322E-02    0.79       1.6  T
  10     -8.1699958 -0.178910E-05  0.193E-03    0.79      26.0  T
  11     -8.1699958 -0.702589E-08  0.717E-04    0.79      69.7  T
  12     -8.1699958 -0.278616E-09  0.214E-04    0.79     233.8  T
     SCC iter.                  ...        0 min,  0.001 sec
     gradient                   ...        0 min,  0.001 sec
 * total energy  :    -8.0913600 Eh     change       -0.2939752E-01 Eh
   gradient norm :     0.1528571 Eh/α   predicted    -0.5509501E-01 (  87.41%)
   displ. norm   :     0.2742070 α      lambda       -0.3301997E-01
   maximum displ.:     0.1433731 α      in ANC's #4, #5, #1, ...

........................................................................
.............................. CYCLE   10 ..............................
........................................................................
   1     -8.2118594 -0.821186E+01  0.240E+00    1.17       0.0  T
   2     -8.2042871  0.757233E-02  0.171E+00    1.53       1.0  T
   3     -8.1977777  0.650939E-02  0.193E+00    1.20       1.0  T
   4     -8.2094642 -0.116864E-01  0.112E+00    1.32       1.0  T
   5     -8.2176967 -0.823259E-02  0.969E-02    1.39       1.0  T
   6     -8.2176959  0.796896E-06  0.648E-02    1.39       1.0  T
   7     -8.2176891  0.684995E-05  0.444E-02    1.40       1.1  T
   8     -8.2176979 -0.885262E-05  0.688E-03    1.39       7.3  T
   9     -8.2176980 -0.310771E-07  0.263E-03    1.39      19.0  T
  10     -8.2176980 -0.176027E-07  0.338E-04    1.39     148.0  T
  11     -8.2176980 -0.533156E-10  0.321E-05    1.39    1555.5  T
     SCC iter.                  ...        0 min,  0.001 sec
     gradient                   ...        0 min,  0.001 sec
 * total energy  :    -8.1157450 Eh     change       -0.2438501E-01 Eh
   gradient norm :     0.0948914 Eh/α   predicted    -0.1775137E-01 ( -27.20%)
   displ. norm   :     0.5585196 α      lambda       -0.3805462E-01
   maximum displ.:     0.2910159 α      in ANC's #2, #4, #1, ...

........................................................................
.............................. CYCLE   11 ..............................
........................................................................
   1     -8.2648992 -0.826490E+01  0.488E+00    1.44       0.0  T
   2     -8.2620553  0.284387E-02  0.315E+00    1.06       1.0  T
   3     -8.2341763  0.278790E-01  0.303E+00    1.38       1.0  T
   4     -8.2706400 -0.364637E-01  0.102E+00    1.33       1.0  T
   5     -8.2751866 -0.454657E-02  0.139E-01    1.25       1.0  T
   6     -8.2751287  0.578835E-04  0.123E-01    1.25       1.0  T
   7     -8.2751827 -0.539832E-04  0.679E-02    1.25       1.0  T
   8     -8.2752050 -0.223214E-04  0.508E-03    1.25       9.8  T
   9     -8.2752050 -0.156630E-07  0.772E-04    1.25      64.8  T
  10     -8.2752050 -0.867443E-09  0.226E-04    1.25     221.1  T
     SCC iter.                  ...        0 min,  0.001 sec
     gradient                   ...        0 min,  0.001 sec
 * total energy  :    -8.1400259 Eh     change       -0.2428091E-01 Eh
   gradient norm :     0.0566389 Eh/α   predicted    -0.2496277E-01 (   2.81%)
   displ. norm   :     0.3314570 α      lambda       -0.1256206E-01
   maximum displ.:     0.2287139 α      in ANC's #3, #1, #2, ...

........................................................................
.............................. CYCLE   12 ..............................
........................................................................
   1     -8.2605612 -0.826056E+01  0.304E+00    1.19       0.0  T
   2     -8.2339946  0.265666E-01  0.317E+00    1.18       1.0  T
   3     -8.2666985 -0.327039E-01  0.166E+00    1.18       1.0  T
   4     -8.2714382 -0.473963E-02  0.163E-01    1.17       1.0  T
   5     -8.2714414 -0.321697E-05  0.915E-02    1.17       1.0  T
   6     -8.2714735 -0.321298E-04  0.447E-02    1.17       1.1  T
   7     -8.2714842 -0.107275E-04  0.880E-03    1.17       5.7  T
   8     -8.2714845 -0.301897E-06  0.243E-03    1.17      20.6  T
   9     -8.2714845 -0.114368E-08  0.294E-04    1.17     170.0  T
  10     -8.2714845 -0.213660E-10  0.174E-04    1.17     286.9  T
     SCC iter.                  ...        0 min,  0.001 sec
     gradient                   ...        0 min,  0.001 sec
 * total energy  :    -8.1444250 Eh     change       -0.4399086E-02 Eh
   gradient norm :     0.0311068 Eh/α   predicted    -0.6971087E-02 (  58.47%)
   displ. norm   :     0.1814945 α      lambda       -0.4602221E-02
   maximum displ.:     0.1377547 α      in ANC's #1, #4, #3, ...

........................................................................
.............................. CYCLE   13 ..............................
........................................................................
   1     -8.2509519 -0.825095E+01  0.180E+00    1.10       0.0  T
   2     -8.2488984  0.205357E-02  0.132E+00    1.12       1.0  T
   3     -8.2488572  0.411772E-04  0.114E+00    1.13       1.0  T
   4     -8.2530757 -0.421851E-02  0.531E-01    1.13       1.0  T
   5     -8.2541285 -0.105278E-02  0.998E-02    1.14       1.0  T
   6     -8.2541614 -0.329741E-04  0.628E-02    1.14       1.0  T
   7     -8.2541729 -0.114073E-04  0.745E-03    1.14       6.7  T
   8     -8.2541731 -0.244524E-06  0.162E-03    1.14      30.9  T
   9     -8.2541731 -0.743878E-09  0.173E-04    1.14     288.5  T
  10     -8.2541731 -0.379217E-10  0.748E-05    1.14     668.3  T
     SCC iter.                  ...        0 min,  0.001 sec
     gradient                   ...        0 min,  0.001 sec
 * total energy  :    -8.1437245 Eh     change        0.7005643E-03 Eh
   gradient norm :     0.0451471 Eh/α   predicted    -0.2376910E-02 (-439.29%)
   displ. norm   :     0.1386112 α      lambda       -0.4845140E-02
   maximum displ.:     0.1020334 α      in ANC's #2, #3, #1, ...

........................................................................
.............................. CYCLE   14 ..............................
........................................................................
   1     -8.2576829 -0.825768E+01  0.130E+00    1.19       0.0  T
   2     -8.2572247  0.458195E-03  0.769E-01    1.18       1.0  T
   3     -8.2512863  0.593837E-02  0.103E+00    1.19       1.0  T
   4     -8.2579004 -0.661406E-02  0.711E-02    1.19       1.0  T
   5     -8.2579112 -0.108780E-04  0.462E-02    1.19       1.1  T
   6     -8.2579152 -0.400005E-05  0.317E-02    1.19       1.6  T
   7     -8.2579171 -0.189472E-05  0.101E-02    1.19       4.9  T
   8     -8.2579175 -0.328770E-06  0.287E-03    1.19      17.4  T
   9     -8.2579175 -0.223896E-08  0.194E-04    1.19     257.5  T
  10     -8.2579175 -0.227605E-10  0.136E-04    1.19     368.6  T
     SCC iter.                  ...        0 min,  0.001 sec
     gradient                   ...        0 min,  0.001 sec
 * total energy  :    -8.1445618 Eh     change       -0.8373576E-03 Eh
   gradient norm :     0.0348927 Eh/α   predicted    -0.2469116E-02 ( 194.87%)
   displ. norm   :     0.1001550 α      lambda       -0.2989678E-02
   maximum displ.:     0.0607138 α      in ANC's #1, #2, #4, ...

........................................................................
.............................. CYCLE   15 ..............................
........................................................................
   1     -8.2700767 -0.827008E+01  0.866E-01    1.21       0.0  T
   2     -8.2697946  0.282057E-03  0.602E-01    1.23       1.0  T
   3     -8.2696189  0.175714E-03  0.532E-01    1.21       1.0  T
   4     -8.2705929 -0.973972E-03  0.230E-01    1.20       1.0  T
   5     -8.2707904 -0.197556E-03  0.331E-02    1.21       1.5  T
   6     -8.2707845  0.595688E-05  0.366E-02    1.21       1.4  T
   7     -8.2707919 -0.745137E-05  0.209E-03    1.21      23.9  T
   8     -8.2707920 -0.144648E-07  0.102E-03    1.21      48.9  T
   9     -8.2707920 -0.299586E-09  0.130E-04    1.21     384.8  T
  10     -8.2707920 -0.281570E-10  0.280E-05    1.21    1784.8  T
     SCC iter.                  ...        0 min,  0.001 sec
     gradient                   ...        0 min,  0.001 sec
 * total energy  :    -8.1457052 Eh     change       -0.1143429E-02 Eh
   gradient norm :     0.0140766 Eh/α   predicted    -0.1509835E-02 (  32.04%)
   displ. norm   :     0.0407431 α      lambda       -0.4059697E-03
   maximum displ.:     0.0290438 α      in ANC's #1, #3, #2, ...

........................................................................
.............................. CYCLE   16 ..............................
........................................................................
   1     -8.2648022 -0.826480E+01  0.374E-01    1.20       0.0  T
   2     -8.2648701 -0.678870E-04  0.186E-01    1.19       1.0  T
   3     -8.2648741 -0.398675E-05  0.150E-01    1.20       1.0  T
   4     -8.2648612  0.128810E-04  0.105E-01    1.20       1.0  T
   5     -8.2649212 -0.599472E-04  0.928E-03    1.20       5.4  T
   6     -8.2649212 -0.104809E-07  0.247E-03    1.20      20.3  T
   7     -8.2649212 -0.202666E-07  0.164E-03    1.20      30.6  T
   8     -8.2649212 -0.156602E-07  0.373E-04    1.20     134.0  T
   9     -8.2649212 -0.291056E-10  0.330E-05    1.20    1515.7  T
     SCC iter.                  ...        0 min,  0.000 sec
     gradient                   ...        0 min,  0.001 sec
 * total energy  :    -8.1458848 Eh     change       -0.1795437E-03 Eh
   gradient norm :     0.0045350 Eh/α   predicted    -0.2033215E-03 (  13.24%)
   displ. norm   :     0.0127548 α      lambda       -0.3420833E-04
   maximum displ.:     0.0093258 α      in ANC's #2, #4, #3, ...

........................................................................
.............................. CYCLE   17 ..............................
........................................................................
   1     -8.2656147 -0.826561E+01  0.110E-01    1.19       0.0  T
   2     -8.2655966  0.180621E-04  0.945E-02    1.19       1.0  T
   3     -8.2656093 -0.126788E-04  0.674E-02    1.19       1.0  T
   4     -8.2656238 -0.144705E-04  0.671E-03    1.19       7.5  T
   5     -8.2656238 -0.740827E-07  0.413E-03    1.19      12.1  T
   6     -8.2656238  0.196520E-07  0.244E-03    1.19      20.5  T
   7     -8.2656239 -0.399706E-07  0.267E-04    1.19     187.2  T
   8     -8.2656239 -0.161419E-09  0.122E-04    1.19     410.7  T
     SCC iter.                  ...        0 min,  0.001 sec
     gradient                   ...        0 min,  0.001 sec
 * total energy  :    -8.1459062 Eh     change       -0.2136297E-04 Eh
   gradient norm :     0.0017623 Eh/α   predicted    -0.1710705E-04 ( -19.92%)
   displ. norm   :     0.0144127 α      lambda       -0.8407421E-05
   maximum displ.:     0.0095527 α      in ANC's #3, #4, #2, ...

........................................................................
.............................. CYCLE   18 ..............................
........................................................................
   1     -8.2660742 -0.826607E+01  0.117E-01    1.17       0.0  T
   2     -8.2660668  0.737559E-05  0.787E-02    1.17       1.0  T
   3     -8.2660507  0.161550E-04  0.815E-02    1.17       1.0  T
   4     -8.2660796 -0.289950E-04  0.177E-02    1.17       2.8  T
   5     -8.2660807 -0.108206E-05  0.336E-03    1.17      14.9  T
   6     -8.2660807  0.293857E-07  0.220E-03    1.17      22.8  T
   7     -8.2660807 -0.326089E-07  0.235E-04    1.17     213.0  T
   8     -8.2660807 -0.664180E-10  0.113E-04    1.17     442.9  T
     SCC iter.                  ...        0 min,  0.000 sec
     gradient                   ...        0 min,  0.001 sec
 * total energy  :    -8.1459109 Eh     change       -0.4700251E-05 Eh
   gradient norm :     0.0008211 Eh/α   predicted    -0.4205135E-05 ( -10.53%)
   displ. norm   :     0.0036841 α      lambda       -0.1487510E-05
   maximum displ.:     0.0035124 α      in ANC's #1, #3, #5, ...

   *** GEOMETRY OPTIMIZATION CONVERGED AFTER 18 ITERATIONS ***

------------------------------------------------------------------------
 total energy gain   :        -0.1841513 Eh     -115.5567 kcal/mol
 total RMSD          :         1.2642559 a0        0.6690 Å
 total power (kW/mol):       -26.8605137 (step)********** (real)
------------------------------------------------------------------------

 ANCopt (total)                0 d,  0 h,  0 min,  0.044 sec
 optimizer setup                ...        0 min,  0.000 sec (  0.179%)
 model hessian                  ...        0 min,  0.000 sec (  0.149%)
 ANC generation                 ...        0 min,  0.000 sec (  0.132%)
 coordinate transformation      ...        0 min,  0.000 sec (  0.077%)
 single point calculation       ...        0 min,  0.042 sec ( 96.272%)
 optimization log               ...        0 min,  0.001 sec (  1.445%)
 hessian update                 ...        0 min,  0.000 sec (  0.058%)
 rational function              ...        0 min,  0.000 sec (  0.686%)

================
 final structure:
================
4
 xtb: 6.2.2 (9d81278992624c895f80dd42a50cac0aa55982e2)
C         0.66654167330785   -0.27678095367439   -0.31443147632229
C        -0.56075501176817    0.23196815636143    0.50533069700958
C        -0.50165286211542   -1.05567685368413   -0.09850347870253
C         0.39586620057573    1.10048965099709   -0.09239474198477

 Bond Distances (Angstroems)
 ---------------------------
C1-C2=1.5611         C1-C3=1.4206         C1-C4=1.4211         C2-C1=1.5611         C2-C3=1.4234         C2-C4=1.4236         
C3-C1=1.4206         C3-C2=1.4234         C4-C1=1.4211         C4-C2=1.4236         
 C  C  Rav=1.4500 sigma=0.0556  Rmin=1.4206  Rmax=1.5611     5

 selected bond angles (degree)
 --------------------
C3-C1-C2= 56.80                C4-C1-C2= 56.80                C4-C1-C3=110.55                C3-C2-C1= 56.62                
C4-C2-C1= 56.64                C4-C2-C3=110.23                C2-C3-C1= 66.59                C2-C4-C1= 66.57                

 selected dihedral angles (degree)
 ---------------------------------
C3-C2-C1-C4=158.40            C4-C2-C1-C3=201.60            C2-C3-C1-C4=340.79            C1-C3-C2-C4= 19.13            
C2-C4-C1-C3= 19.21            C1-C4-C2-C3=340.87            
           -------------------------------------------------
          |                Final Singlepoint                |
           -------------------------------------------------

          ...................................................
          :                      SETUP                      :
          :.................................................:
          :  # basis functions                  16          :
          :  # atomic orbitals                  16          :
          :  # shells                            8          :
          :  # electrons                        16          :
          :  max. iterations                   250          :
          :  Hamiltonian                  GFN2-xTB          :
          :  restarted?                      false          :
          :  GBSA solvation                  false          :
          :  PC potential                    false          :
          :  electronic temp.          300.0000000     K    :
          :  accuracy                    1.0000000          :
          :  -> integral cutoff          0.2500000E+02      :
          :  -> integral neglect         0.1000000E-07      :
          :  -> SCF convergence          0.1000000E-05 Eh   :
          :  -> wf. convergence          0.1000000E-03 e    :
          :  Broyden damping             0.4000000          :
          ...................................................

 iter      E             dE          RMSdq      gap      omega  full diag
   1     -8.2660807 -0.826608E+01  0.159E-05    1.17       0.0  T
   2     -8.2660807  0.198952E-12  0.114E-05    1.17    4385.0  T
   3     -8.2660807  0.383693E-12  0.115E-05    1.17    4359.4  T

   *** convergence criteria satisfied after 3 iterations ***

         #    Occupation            Energy/Eh            Energy/eV
      -------------------------------------------------------------
         1        2.0000           -0.7472598             -20.3340
         2        2.0000           -0.6661126             -18.1258
         3        2.0000           -0.6057511             -16.4833
         4        2.0000           -0.5604962             -15.2519
         5        2.0000           -0.5311070             -14.4522
         6        2.0000           -0.4988556             -13.5746
         7        2.0000           -0.4595321             -12.5045
         8        2.0000           -0.4324286             -11.7670 (HOMO)
         9                         -0.3893231             -10.5940 (LUMO)
        10                         -0.3710394             -10.0965
        11                         -0.2658137              -7.2332
        12                         -0.2451570              -6.6711
        13                          0.1166586               3.1744
       ...                                ...                  ...
        16                          0.3367000               9.1621
      -------------------------------------------------------------
                  HL-Gap            0.0431055 Eh            1.1730 eV
             Fermi-level           -0.4108759 Eh          -11.1805 eV

 SCC (total)                   0 d,  0 h,  0 min,  0.003 sec
 SCC setup                      ...        0 min,  0.000 sec (  1.560%)
 Dispersion                     ...        0 min,  0.000 sec (  0.353%)
 integral evaluation            ...        0 min,  0.001 sec ( 29.730%)
 zeroth order Hamiltonian       ...        0 min,  0.000 sec (  1.365%)
 iterations                     ...        0 min,  0.001 sec ( 20.999%)
 molecular gradient             ...        0 min,  0.001 sec ( 43.708%)
 printout                       ...        0 min,  0.000 sec (  1.988%)

         :::::::::::::::::::::::::::::::::::::::::::::::::::::
         ::                     SUMMARY                     ::
         :::::::::::::::::::::::::::::::::::::::::::::::::::::
         :: total energy              -8.145910854973 Eh    ::
         :: gradient norm              0.000948076162 Eh/a0 ::
         :: HOMO-LUMO gap              1.172959576581 eV    ::
         ::.................................................::
         :: SCC energy                -8.266080733886 Eh    ::
         :: -> isotropic ES           -0.012438876247 Eh    ::
         :: -> anisotropic ES          0.002793936352 Eh    ::
         :: -> anisotropic XC          0.008450893521 Eh    ::
         :: -> dispersion             -0.001795966315 Eh    ::
         :: repulsion energy           0.120169875143 Eh    ::
         :: add. restraining           0.000000000000 Eh    ::
         :::::::::::::::::::::::::::::::::::::::::::::::::::::

           ------------------------------------------------- 
          |                Numerical Hessian                |
           ------------------------------------------------- 
step length          :   0.00500
SCC accuracy         :   0.30000
Hessian scale factor :   1.00000
frozen atoms in %    :   0.00000    0
RMS gradient         :   0.00095
estimated CPU  time      0.00 min
estimated wall time      0.00 min

writing file <hessian>.

 projected vibrational frequencies (cm-1)
eigval :       -0.00    -0.00    -0.00     0.00     0.00     0.00
eigval :      247.74   550.52   832.04  1051.93  1384.49  1422.59
           -------------------------------------------------
          |                Property Printout                |
           -------------------------------------------------

    * Orbital Energies and Occupations

         #    Occupation            Energy/Eh            Energy/eV
      -------------------------------------------------------------
         1        2.0000           -0.7472598             -20.3340
         2        2.0000           -0.6661126             -18.1258
         3        2.0000           -0.6057511             -16.4833
         4        2.0000           -0.5604963             -15.2519
         5        2.0000           -0.5311070             -14.4522
         6        2.0000           -0.4988556             -13.5746
         7        2.0000           -0.4595321             -12.5045
         8        2.0000           -0.4324286             -11.7670 (HOMO)
         9                         -0.3893231             -10.5940 (LUMO)
        10                         -0.3710394             -10.0965
        11                         -0.2658137              -7.2332
        12                         -0.2451570              -6.6711
        13                          0.1166586               3.1744
        14                          0.1455104               3.9595
        15                          0.3057335               8.3194
        16                          0.3367000               9.1621
      -------------------------------------------------------------
                  HL-Gap            0.0431055 Eh            1.1730 eV
             Fermi-level           -0.4108759 Eh          -11.1805 eV

     #   Z        covCN         q      C6AA      α(0)
     1   6 C      2.931     0.064    26.575     8.454
     2   6 C      2.931     0.062    26.619     8.461
     3   6 C      1.996    -0.063    32.736     9.240
     4   6 C      1.996    -0.063    32.737     9.240

 Mol. C6AA /au·bohr⁶  :        473.351457
 Mol. C8AA /au·bohr⁸  :      13690.146707
 Mol. α(0) /au        :         35.395560


Wiberg/Mayer (AO) data.
largest (>0.10) Wiberg bond orders for each atom
          total WBO             WBO to atom ...
     1  C   3.381        C    3 1.174    C    4 1.174    C    2 1.033
     2  C   3.368        C    3 1.167    C    4 1.167    C    1 1.033
     3  C   2.718        C    1 1.174    C    2 1.167    C    4 0.377
     4  C   2.718        C    1 1.174    C    2 1.167    C    3 0.377

MOs/occ written to file <molden.input>


molecular dipole:
                 x           y           z       tot (Debye)
 q only:        0.027      -0.012       0.044
Molecule has the following symmetry elements: 2*(sigma) 
WARNING: These symmetry elements match no point group I know of. Sorry.
Trying fallback mode to highest recognized Axis...
   full:        0.216      -0.091       0.366       1.106
molecular quadrupole (traceless):
                xx          xy          yy          xz          yz          zz
 q only:        0.287      -0.430      -0.568      -0.169       0.068       0.281
  q+dip:        0.562      -1.346      -2.108       0.396      -0.177       1.545
   full:        0.487      -2.224      -3.913       1.857      -0.796       3.426

           -------------------------------------------------
          |                Geometry Summary                 |
           -------------------------------------------------

      molecular mass/u    :       48.0429436
   center of mass at/Å    :        0.0000000       0.0000000       0.0000002
  moments of inertia/u·Å² :        0.1523187E+02   0.3335322E+02   0.4739279E+02
rotational constants/cm⁻¹ :        0.1106734E+01   0.5054274E+00   0.3557004E+00

           -------------------------------------------------
          |               Frequency Printout                |
           -------------------------------------------------
 projected vibrational frequencies (cm-1)
eigval :       -0.00    -0.00    -0.00     0.00     0.00     0.00
eigval :      247.74   550.52   832.04  1051.93  1384.49  1422.59
 reduced masses (amu)
   1: 12.01   2: 12.01   3: 12.01   4: 12.01   5: 12.01   6: 12.01   7: 12.01   8: 12.01
   9: 12.01  10: 12.01  11: 12.01  12: 12.01
 IR intensities (amu)
   1:  0.01   2:  0.16   3:  0.18   4:  0.07   5:  0.10   6:  0.08   7:  0.77   8:  1.61
   9:  0.13  10:  0.02  11:  0.02  12:  0.16
 Raman intensities (amu)
   1:  0.00   2:  0.00   3:  0.00   4:  0.00   5:  0.00   6:  0.00   7:  0.00   8:  0.00
   9:  0.00  10:  0.00  11:  0.00  12:  0.00
 output can be read by thermo (or use thermo option).
 writing <g98.out> molden fake output.
 recommended (thermochemical) frequency scaling factor: 1.0
           -------------------------------------------------
          |             Thermodynamic Functions             |
           -------------------------------------------------

c1  symmetry found (for desy threshold:  0.10E+00) used in thermo

          ...................................................
          :                      SETUP                      :
          :.................................................:
          :  # frequencies                           6      :
          :  # imaginary freq.                       0      :
          :  linear?                             false      :
          :  only rotor calc.                    false      :
          :  symmetry                               c1      :
          :  rotational number                       1      :
          :  scaling factor                  1.0000000      :
          :  rotor cutoff                   50.0000000 cm⁻¹ :
          :  imag. cutoff                  -20.0000000 cm⁻¹ :
          :.................................................:

    mode    ω/cm⁻¹     T·S(HO)/kcal·mol⁻¹    T·S(FR)/kcal·mol⁻¹   T·S(vib)
   ------------------------------------------------------------------------
       1    247.74    -0.00000 ( 99.83%)     0.01422 (  0.17%)     0.00002
   ------------------------------------------------------------------------

   temp. (K)  partition function   enthalpy   heat capacity  entropy
                                   cal/mol     cal/K/mol   cal/K/mol   J/K/mol
 298.15  VIB   1.58                  497.910      4.038      2.584
         ROT  0.119E+05              888.752      2.981     21.622
         INT  0.188E+05             1386.663      7.019     24.206
         TR   0.322E+27             1481.254      4.968     37.516
         TOT                        2867.9165    11.9868    61.7222   258.2457

   temp. (K)  partition function   enthalpy   heat capacity  entropy
                                   cal/mol     cal/K/mol   cal/K/mol   J/K/mol
 120.00  VIB   1.06                   40.556      1.127      0.446
         ROT  0.303E+04              357.707      2.981     18.909
         INT  0.319E+04              398.262      4.108     19.356
         TR   0.823E+26              596.178      4.968     32.997
         TOT                         994.4403     9.0764    52.3521   219.0414

   temp. (K)  partition function   enthalpy   heat capacity  entropy
                                   cal/mol     cal/K/mol   cal/K/mol   J/K/mol
 100.00  VIB   1.03                   21.228      0.804      0.271
         ROT  0.230E+04              298.089      2.981     18.366
         INT  0.237E+04              319.317      3.785     18.637
         TR   0.626E+26              496.815      4.968     32.091
         TOT                         816.1318     8.7534    50.7280   212.2458

   temp. (K)  partition function   enthalpy   heat capacity  entropy
                                   cal/mol     cal/K/mol   cal/K/mol   J/K/mol
  80.00  VIB   1.01                    8.403      0.479      0.129
         ROT  0.165E+04              238.471      2.981     17.701
         INT  0.167E+04              246.874      3.460     17.830
         TR   0.448E+26              397.452      4.968     30.983
         TOT                         644.3265     8.4280    48.8128   204.2328

   temp. (K)  partition function   enthalpy   heat capacity  entropy
                                   cal/mol     cal/K/mol   cal/K/mol   J/K/mol
  60.00  VIB   1.00                    1.871      0.186      0.037
         ROT  0.107E+04              178.853      2.981     16.843
         INT  0.107E+04              180.724      3.167     16.880
         TR   0.291E+26              298.089      4.968     29.555
         TOT                         478.8133     8.1351    46.4344   194.2817

   temp. (K)  partition function   enthalpy   heat capacity  entropy
                                   cal/mol     cal/K/mol   cal/K/mol   J/K/mol
  40.00  VIB   1.00                    0.096      0.021      0.002
         ROT   582.                  119.236      2.981     15.634
         INT   583.                  119.331      3.002     15.637
         TR   0.158E+26              198.726      4.968     27.541
         TOT                         318.0572     7.9703    43.1780   180.6566

   temp. (K)  partition function   enthalpy   heat capacity  entropy
                                   cal/mol     cal/K/mol   cal/K/mol   J/K/mol
  20.00  VIB   1.00                    0.000      0.000     -0.001
         ROT   206.                   59.618      2.981     13.568
         INT   206.                   59.618      2.981     13.567
         TR   0.560E+25               99.363      4.968     24.099
         TOT                         158.9808     7.9491    37.6659   157.5942

   temp. (K)  partition function   enthalpy   heat capacity  entropy
                                   cal/mol     cal/K/mol   cal/K/mol   J/K/mol
  10.00  VIB   1.00                    0.000      0.000     -0.003
         ROT   72.8                   29.809      2.981     11.502
         INT   72.8                   29.809      2.981     11.499
         TR   0.198E+25               49.681      4.968     20.657
         TOT                          79.4904     7.9490    32.1566   134.5430

       T/K    H(0)-H(T)+PV         H(T)/Eh          T*S/Eh         G(T)/Eh
   ------------------------------------------------------------------------
    298.15    0.457032E-02    0.170759E-01    0.293262E-01   -0.122503E-01
    120.00    0.158474E-02    0.140903E-01    0.100114E-01    0.407890E-02
    100.00    0.130059E-02    0.138062E-01    0.808401E-02    0.572215E-02
     80.00    0.102680E-02    0.135324E-01    0.622305E-02    0.730932E-02
     60.00    0.763038E-03    0.132686E-01    0.443988E-02    0.882874E-02
     40.00    0.506856E-03    0.130124E-01    0.275234E-02    0.102601E-01
     20.00    0.253352E-03    0.127589E-01    0.120049E-02    0.115584E-01
     10.00    0.126676E-03    0.126323E-01    0.512447E-03    0.121198E-01 (used)
   ------------------------------------------------------------------------

         :::::::::::::::::::::::::::::::::::::::::::::::::::::
         ::                  THERMODYNAMIC                  ::
         :::::::::::::::::::::::::::::::::::::::::::::::::::::
         :: total free energy          -8.133791049166 Eh   ::
         ::.................................................::
         :: total energy               -8.145910854974 Eh   ::
         :: zero point energy           0.012505577069 Eh   ::
         :: G(RRHO) w/o ZPVE           -0.000385771260 Eh   ::
         :: G(RRHO) contrib.            0.012119805808 Eh   ::
         :::::::::::::::::::::::::::::::::::::::::::::::::::::

optimized geometry written to: xtbopt.xyz


           -------------------------------------------------
          | TOTAL ENERGY               -8.145910854974 Eh   |
          | TOTAL ENTHALPY             -8.133278601890 Eh   |
          | TOTAL FREE ENERGY          -8.133791049166 Eh   |
          | GRADIENT NORM               0.000948071764 Eh/α |
          | HOMO-LUMO GAP               1.172959672505 eV   |
           -------------------------------------------------

------------------------------------------------------------------------
 * finished run on 2020/05/12 at 14:38:39.378     
------------------------------------------------------------------------
 total:
 * wall-time:     0 d,  0 h,  0 min,  0.120 sec
 *  cpu-time:     0 d,  0 h,  0 min,  0.119 sec
 * ratio c/w:     0.986 speedup
 SCF:
 * wall-time:     0 d,  0 h,  0 min,  0.004 sec
 *  cpu-time:     0 d,  0 h,  0 min,  0.004 sec
 * ratio c/w:     0.993 speedup
 ANC optimizer:
 * wall-time:     0 d,  0 h,  0 min,  0.047 sec
 *  cpu-time:     0 d,  0 h,  0 min,  0.047 sec
 * ratio c/w:     0.995 speedup
 numerical hessian:
 * wall-time:     0 d,  0 h,  0 min,  0.055 sec
 *  cpu-time:     0 d,  0 h,  0 min,  0.054 sec
 * ratio c/w:     0.990 speedup

