 Entering Gaussian System
 *********************************************
 Gaussian 98:
 frequency output generated by the xtb code
 *********************************************
                         Standard orientation:
 --------------------------------------------------------------------
  Center     Atomic     Atomic              Coordinates (Angstroms)
  Number     Number      Type              X           Y           Z
 --------------------------------------------------------------------
    1          6             0        0.666539   -0.276785   -0.314433
    2          6             0       -0.560752    0.231972    0.505332
    3          6             0       -0.501659   -1.055674   -0.098500
    4          6             0        0.395872    1.100487   -0.092398
 --------------------------------------------------------------------
     1 basis functions        1 primitive gaussians
     1 alpha electrons        1 beta electrons

 Harmonic frequencies (cm**-1), IR intensities (KM/Mole),
 Raman scattering activities (A**4/amu), Raman depolarization ratios,
 reduced masses (AMU), force constants (mDyne/A) and normal coordinates:
                      1                      2                      3
                        a                      a                      a 
 Frequencies --   247.7390               550.5167               832.0373
 Red. masses --    12.0107                12.0107                12.0107
 Frc consts  --     0.0000                 0.0000                 0.0000
 IR Inten    --     0.7699                 1.6115                 0.1349
 Raman Activ --     0.0000                 0.0000                 0.0000
 Depolar     --     0.0000                 0.0000                 0.0000
 Atom AN      X      Y      Z        X      Y      Z        X      Y      Z
   1   6     0.26  -0.11   0.37     0.45  -0.19  -0.14    -0.30   0.12   0.39
   2   6     0.18  -0.08   0.42     0.31  -0.13  -0.38     0.46  -0.19  -0.13
   3   6    -0.12   0.34  -0.39    -0.38   0.16   0.26    -0.26  -0.39  -0.13
   4   6    -0.33  -0.15  -0.39    -0.39   0.15   0.26     0.10   0.46  -0.13
                      4                      5                      6
                        a                      a                      a 
 Frequencies --  1051.9323              1384.4939              1422.5947
 Red. masses --    12.0107                12.0107                12.0107
 Frc consts  --     0.0000                 0.0000                 0.0000
 IR Inten    --     0.0171                 0.0171                 0.1612
 Raman Activ --     0.0000                 0.0000                 0.0000
 Depolar     --     0.0000                 0.0000                 0.0000
 Atom AN      X      Y      Z        X      Y      Z        X      Y      Z
   1   6    -0.22  -0.53  -0.00     0.19   0.47   0.00    -0.46   0.18   0.18
   2   6     0.23   0.55   0.00     0.19   0.44  -0.01     0.34  -0.15  -0.36
   3   6     0.31  -0.14  -0.21    -0.24  -0.43  -0.08     0.24   0.42   0.09
   4   6    -0.31   0.12   0.21    -0.14  -0.49   0.08    -0.12  -0.45   0.09
