$hessian                                                                        
        0.3064778880   0.0363789039  -0.1165993470  -0.1621264121   0.0837904903
        0.1402110593  -0.1726063319  -0.1795842463  -0.0019891437   0.0282548561
        0.0594148520  -0.0216225687
        0.0363789039   0.3763796428   0.0493140186   0.0838439816   0.0052828447
       -0.0579963726  -0.1397862374  -0.0909810508   0.0288979227   0.0195633519
       -0.2906814368  -0.0202155687
       -0.1165993470   0.0493140186   0.0831521630   0.1090347377  -0.0450866641
       -0.0615593858   0.0119706817   0.0182709008  -0.0106890400  -0.0044060725
       -0.0224982553  -0.0109037372
       -0.1621264121   0.0838439816   0.1090347377   0.2495981176   0.0560786785
       -0.1459565570   0.0157718864  -0.0038528247  -0.0177779445  -0.1032435919
       -0.1360698354   0.0546997638
        0.0837904903   0.0052828447  -0.0450866641   0.0560786785   0.3601804860
        0.0616180158  -0.0176309968  -0.2418135865  -0.0960099080  -0.1222381720
       -0.1236497441   0.0794785563
        0.1402110593  -0.0579963726  -0.0615593858  -0.1459565570   0.0616180158
        0.1464226045  -0.0477619767  -0.1239871529  -0.0430630920   0.0535074744
        0.1203655097  -0.0418001267
       -0.1726063319  -0.1397862374   0.0119706817   0.0157718864  -0.0176309968
       -0.0477619767   0.1886663105   0.1802701359   0.0025954497  -0.0318318650
       -0.0228529016   0.0331958453
       -0.1795842463  -0.0909810508   0.0182709008  -0.0038528247  -0.2418135865
       -0.1239871529   0.1802701359   0.3840626651   0.0970254368   0.0031669351
       -0.0512680277   0.0086908153
       -0.0019891437   0.0288979227  -0.0106890400  -0.0177779445  -0.0960099080
       -0.0430630920   0.0025954497   0.0970254368   0.0540400549   0.0171716384
       -0.0299134515  -0.0002879228
        0.0282548561   0.0195633519  -0.0044060725  -0.1032435919  -0.1222381720
        0.0535074744  -0.0318318650   0.0031669351   0.0171716384   0.1068206008
        0.0995078850  -0.0662730404
        0.0594148520  -0.2906814368  -0.0224982553  -0.1360698354  -0.1236497441
        0.1203655097  -0.0228529016  -0.0512680277  -0.0299134515   0.0995078850
        0.4655992087  -0.0679538029
       -0.0216225687  -0.0202155687  -0.0109037372   0.0546997638   0.0794785563
       -0.0418001267   0.0331958453   0.0086908153  -0.0002879228  -0.0662730404
       -0.0679538029   0.0529917868
