4
 energy: -7.961759526752 gnorm: 0.197628435555 xtb: 6.2.2 (9d81278992624c895f80dd42a50cac0aa55982e2)
C         1.31731500000000   -0.54813700000000   -0.13275600000000
C         0.00122900000000   -0.00159000000000    0.37851800000000
C        -1.13444900000000   -0.86632200000000   -0.12613000000000
C        -0.18409500000000    1.41604900000000   -0.11963100000000
4
 energy: -8.008133746464 gnorm: 0.075455942376 xtb: 6.2.2 (9d81278992624c895f80dd42a50cac0aa55982e2)
C         1.22399602943227   -0.50931415527541   -0.12105334480893
C         0.00111913363755   -0.00144761033537    0.34480882032650
C        -1.05407034787369   -0.80495777804841   -0.11489664621113
C        -0.17104481519613    1.31571954365919   -0.10885782930644
4
 energy: -8.012725526847 gnorm: 0.052545413972 xtb: 6.2.2 (9d81278992624c895f80dd42a50cac0aa55982e2)
C         1.14724232328659   -0.47733132356279   -0.12948820083471
C         0.00120065368194   -0.00155633316083    0.37125991820921
C        -0.98807036780698   -0.75445802127110   -0.12371569845162
C        -0.16037260916155    1.23334567799472   -0.11805501892288
4
 energy: -8.014547641750 gnorm: 0.007023359469 xtb: 6.2.2 (9d81278992624c895f80dd42a50cac0aa55982e2)
C         1.15407492129565   -0.48014262559071   -0.14313004103178
C         0.00131496373378   -0.00171711543510    0.41206763999953
C        -0.99403724620461   -0.75896876176003   -0.13731630347780
C        -0.16135263882482    1.24082850278584   -0.13162029548996
4
 energy: -8.014615816952 gnorm: 0.001885330439 xtb: 6.2.2 (9d81278992624c895f80dd42a50cac0aa55982e2)
C         1.14704110382576   -0.47724527616776   -0.14600453382359
C         0.00119001945125   -0.00166563739913    0.42067314662714
C        -0.98804118249862   -0.75470504556510   -0.14017007678666
C        -0.16018994077840    1.23361595913199   -0.13449753601690
4
 energy: -8.014711688999 gnorm: 0.013163337668 xtb: 6.2.2 (9d81278992624c895f80dd42a50cac0aa55982e2)
C         1.13726920165427   -0.47384589777999   -0.15004081434033
C        -0.00174639463148   -0.00005944257346    0.43055051688116
C        -0.98045174389137   -0.75537128869547   -0.14316449663577
C        -0.15507106313143    1.22927662904893   -0.13734420590506
4
 energy: -8.020757853296 gnorm: 0.087685011240 xtb: 6.2.2 (9d81278992624c895f80dd42a50cac0aa55982e2)
C         1.10434408721299   -0.46597847861512   -0.15873449345749
C        -0.02606299249698    0.01358513359321    0.43758134529376
C        -0.95855337441108   -0.79201249147307   -0.14308697944980
C        -0.11972772030492    1.24440583649498   -0.13575887238646
4
 energy: -8.061962496902 gnorm: 0.118922587284 xtb: 6.2.2 (9d81278992624c895f80dd42a50cac0aa55982e2)
C         0.95402155668773   -0.43709241538102   -0.20405681873239
C        -0.13412064607908    0.07969510453130    0.48732991282192
C        -0.84675866917010   -0.93687385077576   -0.14965864244266
C         0.02685775856145    1.29427116162548   -0.13361345164688
4
 energy: -8.091360020844 gnorm: 0.160017511480 xtb: 6.2.2 (9d81278992624c895f80dd42a50cac0aa55982e2)
C         0.72428528955020   -0.43378089286348   -0.27921911558669
C        -0.30246333524996    0.20507731833847    0.57191372767724
C        -0.62316812114347   -1.09615034356957   -0.16531222466837
C         0.20134616684324    1.32485391809457   -0.12738138742219
4
 energy: -8.115745030253 gnorm: 0.097904312379 xtb: 6.2.2 (9d81278992624c895f80dd42a50cac0aa55982e2)
C         0.77298306546826   -0.41363943920496   -0.26516358677625
C        -0.36284614219813    0.21352468190699    0.48831489403603
C        -0.62834881333105   -1.06454918740592   -0.12712080846517
C         0.21821189006092    1.26466394470389   -0.09602949879461
4
 energy: -8.140025940043 gnorm: 0.058628458029 xtb: 6.2.2 (9d81278992624c895f80dd42a50cac0aa55982e2)
C         0.75206463208447   -0.28964396913475   -0.29966273808629
C        -0.50111725758634    0.18691310969445    0.51080857720164
C        -0.57241153305751   -0.98899872696444   -0.10466617747878
C         0.32146415855938    1.09172958640474   -0.10647866163657
4
 energy: -8.144425026249 gnorm: 0.031406422494 xtb: 6.2.2 (9d81278992624c895f80dd42a50cac0aa55982e2)
C         0.67137294503805   -0.27819812257807   -0.32887910131033
C        -0.57505446469096    0.23937338373521    0.53723414414248
C        -0.48554984706060   -1.02914387384667   -0.10743490013760
C         0.38923136671352    1.06796861268952   -0.10091914269455
4
 energy: -8.143724461950 gnorm: 0.045843828491 xtb: 6.2.2 (9d81278992624c895f80dd42a50cac0aa55982e2)
C         0.68034878409151   -0.31095535355319   -0.31171327338542
C        -0.54704087102772    0.24335591118175    0.50248112915217
C        -0.50319561250810   -1.06215765529843   -0.10177326000891
C         0.36988769944432    1.12975709766987   -0.08899359575784
4
 energy: -8.144561819549 gnorm: 0.036271896469 xtb: 6.2.2 (9d81278992624c895f80dd42a50cac0aa55982e2)
C         0.69106188489554   -0.26526305126521   -0.31141421676385
C        -0.54944475568418    0.21893560524870    0.50701436827675
C        -0.53703614790124   -1.05744863511115   -0.09924020689820
C         0.39541901868988    1.10377608112766   -0.09635894461470
4
 energy: -8.145705248077 gnorm: 0.014237630117 xtb: 6.2.2 (9d81278992624c895f80dd42a50cac0aa55982e2)
C         0.67326779740871   -0.28011026210473   -0.31720289684117
C        -0.55415566241435    0.22934956303115    0.51848219175649
C        -0.50198825734142   -1.03850702821525   -0.10368587337313
C         0.38287612234706    1.08926772728883   -0.09759242154219
4
 energy: -8.145884791803 gnorm: 0.004542875707 xtb: 6.2.2 (9d81278992624c895f80dd42a50cac0aa55982e2)
C         0.67290581567665   -0.28045543523884   -0.31490061258481
C        -0.55601285144443    0.23101028736590    0.50995149905050
C        -0.50586955611798   -1.05156833078083   -0.10077021058068
C         0.38897659188576    1.10101347865378   -0.09427967588501
4
 energy: -8.145906154772 gnorm: 0.001792989901 xtb: 6.2.2 (9d81278992624c895f80dd42a50cac0aa55982e2)
C         0.66989185928011   -0.27775126124430   -0.31502813962871
C        -0.55844779895517    0.23111806667660    0.50879076085061
C        -0.50418051698229   -1.05308017331695   -0.09995177604993
C         0.39273645665735    1.09971336788465   -0.09380984517198
4
 energy: -8.145910855023 gnorm: 0.000948216681 xtb: 6.2.2 (9d81278992624c895f80dd42a50cac0aa55982e2)
C         0.66654167330785   -0.27678095367439   -0.31443147632229
C        -0.56075501176817    0.23196815636143    0.50533069700958
C        -0.50165286211542   -1.05567685368413   -0.09850347870253
C         0.39586620057573    1.10048965099709   -0.09239474198477
