5
 energy: -9.101548078906 gnorm: 0.071791442606 xtb: 6.2.2 (9d81278992624c895f80dd42a50cac0aa55982e2)
C        -0.29218200000000   -0.00569600000000   -0.06870000000000
C         1.07973900000000   -0.03313800000000   -0.61228200000000
O         0.83278000000000    0.05227300000000    0.77154300000000
H        -0.81486600000000    0.97212800000000   -0.10649100000000
H        -0.80547100000000   -0.98556600000000    0.01593000000000
5
 energy: -9.107157566333 gnorm: 0.035083348153 xtb: 6.2.2 (9d81278992624c895f80dd42a50cac0aa55982e2)
C        -0.28342693429147   -0.00432001575939   -0.04734970895228
C         1.06297531009344   -0.03189409959209   -0.59133206202326
O         0.88608153851526    0.05259817401825    0.77287301571222
H        -0.83733384205570    0.93361105398699   -0.12599918327023
H        -0.82829607226152   -0.94999411265376   -0.00819206146645
5
 energy: -9.108654908538 gnorm: 0.012560253159 xtb: 6.2.2 (9d81278992624c895f80dd42a50cac0aa55982e2)
C        -0.27307806370041   -0.00621579847734   -0.07844417339910
C         1.07475097172129   -0.03048085673420   -0.56976959853275
O         0.90573263955957    0.05209413654816    0.76343119320257
H        -0.85806576196245    0.90183816813653   -0.11449975297379
H        -0.84933978561800   -0.91723464947314   -0.00071766829693
5
 energy: -9.108782573193 gnorm: 0.006262420915 xtb: 6.2.2 (9d81278992624c895f80dd42a50cac0aa55982e2)
C        -0.27444439403655   -0.00618572127940   -0.07785645432194
C         1.07149745840286   -0.03054521635647   -0.57053759072919
O         0.90910470942869    0.05233101032575    0.76694813999082
H        -0.85747148071952    0.90786716645440   -0.11655097272613
H        -0.84868629307548   -0.92346623914428   -0.00200312221356
5
 energy: -9.108826146884 gnorm: 0.002232541619 xtb: 6.2.2 (9d81278992624c895f80dd42a50cac0aa55982e2)
C        -0.27608505858905   -0.00644762811343   -0.08191538211420
C         1.07006250154019   -0.03051125230933   -0.56987389335752
O         0.91161198559940    0.05248661128746    0.76922952307073
H        -0.85720331761435    0.91124233086422   -0.11620229671146
H        -0.84838611093618   -0.92676906172892   -0.00123795088755
5
 energy: -9.108830636792 gnorm: 0.000932221911 xtb: 6.2.2 (9d81278992624c895f80dd42a50cac0aa55982e2)
C        -0.27702761845039   -0.00656715830038   -0.08375248565700
C         1.06997831963296   -0.03048325421364   -0.56941802572271
O         0.91192701077407    0.05250429396273    0.76948343319267
H        -0.85684874018732    0.91156816837833   -0.11565654097701
H        -0.84802897176933   -0.92702104982703   -0.00065638083594
