[Molden Format]
[Title]
[Atoms] AU
C      1     6 -0.52350689669188E+00 -0.12407664609768E-01 -0.15826739642157E+00
C      2     6  0.20219617380251E+01 -0.57617461525250E-01 -0.10760509766500E+01
O      3     8  0.17232977314227E+01  0.99212241491906E-01  0.14541066226537E+01
H      4     1 -0.16192010422645E+01  0.17226221190180E+01 -0.21855652111049E+00
H      5     1 -0.16025515304814E+01 -0.17518073446489E+01 -0.12317284749550E-02
[GTO]
           1 0
 s           4   1.0000000000000000     
   51.049363095579913      -0.16312063210127389     
   8.7911227406887544      -0.19911024581000730     
  0.70640422258929825       0.31882047753655751     
  0.26922813413411617       0.12706504184240380     
 p           4   1.0000000000000000     
   5.8263656140800002       0.73716451545209605     
   1.5106896018720002       0.68216371614850257     
  0.53256483288000001       0.35783053929253711     
  0.21202323690600003        5.3983030275847881E-002

           2 0
 s           4   1.0000000000000000     
   51.049363095579913      -0.16312063210127389     
   8.7911227406887544      -0.19911024581000730     
  0.70640422258929825       0.31882047753655751     
  0.26922813413411617       0.12706504184240380     
 p           4   1.0000000000000000     
   5.8263656140800002       0.73716451545209605     
   1.5106896018720002       0.68216371614850257     
  0.53256483288000001       0.35783053929253711     
  0.21202323690600003        5.3983030275847881E-002

           3 0
 s           4   1.0000000000000000     
   69.137961906196551      -0.20478756370077797     
   11.906129132707308      -0.24997023136827334     
  0.95670827744340703       0.40025880240639616     
  0.36462520496073686       0.15952206667693555     
 p           4   1.0000000000000000     
   8.2124193257781641        1.1321556799186829     
   2.1293576997098116        1.0476840782254817     
  0.75066448202360914       0.54956508217158984     
  0.29885246543283073        8.2908486592766617E-002

           4 0
 s           3   1.0000000000000000     
   3.3702276975336001       0.27359110588908298     
  0.61389118221497996       0.26460540653860526     
  0.16614291148415999        8.2465947534082318E-002

           5 0
 s           3   1.0000000000000000     
   3.3702276975336001       0.27359110588908298     
  0.61389118221497996       0.26460540653860526     
  0.16614291148415999        8.2465947534082318E-002

[MO]
Sym=     1a
Ene=  -0.74193149289831584     
Spin= Alpha
Occup=     2.00000000
           1 -0.23808171306593573     
           2 -0.16340822344090847     
           3  -4.7782846776953068E-003
           4  -6.3873318398461512E-002
           5 -0.24211318211763180     
           6   6.7176725938849380E-002
           7  -9.4964272384396968E-003
           8 -0.15696815792981197     
           9 -0.62194207449638439     
          10   6.6323140683505866E-002
          11   1.1038653193788014E-002
          12  0.17139723117687339     
          13  -1.9549172740813501E-002
          14  -1.9549188073559785E-002
Sym=     2a
Ene=  -0.65076285003568779     
Spin= Alpha
Occup=     2.00000000
           1 -0.43525980893128474     
           2  -2.4768561417132457E-003
           3   5.1226988560397931E-003
           4   8.2087125817883605E-002
           5 -0.15031290805273828     
           6  0.18688110669350230     
           7   5.7901897474614064E-003
           8   7.8252456712659735E-002
           9  0.56321524219854402     
          10  0.27655916901405792     
          11   1.7373304651521728E-002
          12  0.25656443063933815     
          13 -0.15376146855259804     
          14 -0.15376150803046862     
Sym=     3a
Ene=  -0.61366796947107827     
Spin= Alpha
Occup=     2.00000000
           1 -0.22822763243642963     
           2  0.19001841003399966     
           3  -1.2956133450026842E-002
           4 -0.22169018601420509     
           5  0.40605870954015433     
           6   6.7057274086325225E-002
           7   4.7359478409932610E-003
           8   7.0577730721533991E-002
           9 -0.29469595131679582     
          10  0.31955632927476224     
          11  -2.6808937249382863E-002
          12 -0.45308196750060070     
          13 -0.14905953496450769     
          14 -0.14905951371499623     
Sym=     4a
Ene=  -0.57979300008093382     
Spin= Alpha
Occup=     2.00000000
           1   3.4904760002962614E-008
           2  -2.1111629728635707E-003
           3  0.44058458836896869     
           4  -2.7558443596740166E-002
           5  -4.2630358638176482E-009
           6  -1.3658428568664731E-003
           7  0.28503047828723671     
           8  -1.7828607943646744E-002
           9  -5.8298736671478652E-008
          10  -2.6215345577962935E-003
          11  0.54706524243426247     
          12  -3.4218863192299442E-002
          13  0.22767631392548254     
          14 -0.22767639508825332     
Sym=     5a
Ene=  -0.55514039937435433     
Spin= Alpha
Occup=     2.00000000
           1 -0.17834561951179667     
           2  0.37577582623926509     
           3   1.7901511505704227E-002
           4  0.25740958404464021     
           5 -0.11074251397069228     
           6 -0.14204771107234695     
           7  -2.9560166306395676E-003
           8  -3.6376241110165207E-002
           9 -0.14228341257849536     
          10 -0.58987828944240028     
          11  -6.5845175626416856E-003
          12  -6.0078236820901292E-002
          13 -0.24872848388239549     
          14 -0.24872834207840000     
Sym=     6a
Ene=  -0.49266275367725565     
Spin= Alpha
Occup=     2.00000000
           1   4.4164898644960301E-002
           2  0.21090892329284192     
           3  -2.6502806420617461E-002
           4 -0.43986339276795511     
           5  0.26886195685335129     
           6 -0.29262645623188699     
           7  -2.7463716457149165E-002
           8 -0.41665324387749125     
           9  0.19057806798512009     
          10   2.0575897077159282E-002
          11   3.1380370696817234E-002
          12  0.50010681775424404     
          13  -8.1571349484810804E-002
          14  -8.1571120935704455E-002
Sym=     7a
Ene=  -0.47343654064268337     
Spin= Alpha
Occup=     2.00000000
           1  -2.0905478821619796E-008
           2   1.8229317198862859E-003
           3 -0.38043959903665131     
           4   2.3796522919479344E-002
           5  -1.2158953331685141E-007
           6  -1.0249628725869226E-003
           7  0.21391760992321651     
           8  -1.3380371094737723E-002
           9  -6.2538938576059446E-008
          10  -3.2991382319574104E-003
          11  0.68850622630205383     
          12  -4.3066054258412860E-002
          13 -0.35848792585444139     
          14  0.35848803452398398     
Sym=     8a
Ene=  -0.41852318877764766     
Spin= Alpha
Occup=     1.00000000
           1   6.1625068376884994E-002
           2   9.3240344105507758E-002
           3  -2.1326723656449310E-002
           4 -0.34809932661958803     
           5 -0.62547983038557831     
           6 -0.52120479612573922     
           7   2.3047633260474404E-002
           8  0.40839673458610048     
           9   1.2657226936744117E-002
          10  0.21488392032906442     
          11  -5.7692352192783647E-003
          12 -0.10869535052201912     
          13  -6.6144183054610367E-002
          14  -6.6144187156426851E-002
Sym=     9a
Ene=  -0.30643626263344659     
Spin= Alpha
Occup=     1.00000000
           1  -1.9822735093672179E-008
           2  -1.2894350484594935E-004
           3   2.6910145919720629E-002
           4  -1.6832388813389965E-003
           5  -4.8241909050796255E-009
           6   4.5117696935329538E-003
           7 -0.94156664787027256     
           8   5.8894809391400287E-002
           9   1.2854930622124224E-009
          10  -2.3939500615432537E-003
          11  0.49959042223855044     
          12  -3.1249284155732412E-002
          13  0.12007927082628952     
          14 -0.12007928565690047     
Sym=    10a
Ene=  -0.11422419873979617     
Spin= Alpha
Occup=     0.00000000
           1 -0.13073162935706695     
           2 -0.17809372191405928     
           3  -5.1705957939325427E-002
           4 -0.81299278459028790     
           5  -4.1698678452681978E-002
           6  0.50719096274531250     
           7   2.3288457893104235E-002
           8  0.33346370933669178     
           9  0.17465582207963004     
          10 -0.70281581042023977     
          11  -4.1758304001073302E-003
          12  -1.2918996413206306E-002
          13   1.2468352012818028E-002
          14   1.2468318225950022E-002
Sym=    11a
Ene=    5.5335688846897470E-002
Spin= Alpha
Occup=     0.00000000
           1  0.96977367865811204     
           2  0.22824957868084542     
           3   4.2805554842649217E-003
           4   5.0944129103724485E-002
           5   4.7278502275061876E-002
           6  0.44474569904514738     
           7   2.9605547850958695E-002
           8  0.43924198095214773     
           9 -0.44900915653498225     
          10  0.19166802487103582     
          11   3.5144289987062982E-002
          12  0.54717823319144376     
          13 -0.41925296215903368     
          14 -0.41925249287098559     
Sym=    12a
Ene=   0.12807049164265821     
Spin= Alpha
Occup=     0.00000000
           1  0.61087244077461433     
           2 -0.72769033146208828     
           3  -7.4970635070209912E-003
           4  -6.4106135044235416E-002
           5 -0.16906284556709161     
           6  -6.7655602305507628E-002
           7  -3.1145153711592481E-002
           8 -0.49274325652248396     
           9  0.43138331210603542     
          10  -4.5307222302958063E-002
          11  -3.2145025646557447E-002
          12 -0.51044036243412072     
          13 -0.62906334796525798     
          14 -0.62906359491337316     
Sym=    13a
Ene=   0.22596161136995466     
Spin= Alpha
Occup=     0.00000000
           1  -6.3953524739044957E-010
           2  -5.3275655718710759E-003
           3   1.1118329711466060     
           4  -6.9545067664235641E-002
           5  -4.8866001357973738E-007
           6   9.2898280152032739E-004
           7 -0.19381712016867464     
           8   1.2122660393621174E-002
           9   3.4492493143903093E-007
          10   4.9463690396642115E-004
          11 -0.10321681849811309     
          12   6.4557082900049672E-003
          13 -0.84320574003925608     
          14  0.84320605334635379     
Sym=    14a
Ene=   0.33915466602157790     
Spin= Alpha
Occup=     0.00000000
           1  0.31208758464234609     
           2  0.85984669506715672     
           3  -8.4915812374453201E-003
           4 -0.20161860955665370     
           5 -0.80969501841956681     
           6  0.65803188442334981     
           7  -3.6910640846205073E-002
           8 -0.64051197824437567     
           9  0.21994880064864505     
          10  0.21365425486529527     
          11  -2.3152294163656641E-002
          12 -0.38651021591684764     
          13  0.23257558983084850     
          14  0.23257457135849371     
