$hessian                                                                        
        0.6180617584  -0.0010591471  -0.0253774205  -0.2943415017   0.0068511054
        0.1298184426  -0.1328541950  -0.0079637031  -0.1191325370  -0.0964091651
        0.1020756601   0.0010793754  -0.0944568965  -0.0999039153   0.0136121394
       -0.0010591471   0.5047309944  -0.0209502389   0.0043685379  -0.0282360087
        0.0014365554  -0.0044259197  -0.0275368597  -0.0047786273   0.1027713971
       -0.2244101943   0.0007583005  -0.1016548682  -0.2245479317   0.0235340103
       -0.0253774205  -0.0209502389   0.1723996179   0.0903521618   0.0011944628
       -0.0162238060  -0.0627673987  -0.0044597101  -0.0933834900  -0.0074853725
        0.0089865291  -0.0304994658   0.0052780298   0.0152289572  -0.0322928560
       -0.2943415017   0.0043685379   0.0903521618   0.3517276438  -0.0086449084
       -0.1624461206  -0.0107596780   0.0028186031   0.0448379810  -0.0234180573
        0.0071697311   0.0132999189  -0.0232084069  -0.0057119638   0.0139560588
        0.0068511054  -0.0282360087   0.0011944628  -0.0086449084   0.0366671842
        0.0261687583   0.0020725566  -0.0142099059  -0.0266219375   0.0155508786
        0.0021207281  -0.0153269506  -0.0158296322   0.0036580023   0.0145856670
        0.1298184426   0.0014365554  -0.0162238060  -0.1624461206   0.0261687583
        0.4658277845   0.0330549593  -0.0267005819  -0.4415003542  -0.0012056099
        0.0005318418  -0.0031894366   0.0007783286  -0.0014365737  -0.0049141876
       -0.1328541950  -0.0044259197  -0.0627673987  -0.0107596780   0.0020725566
        0.0330549593   0.1726883522   0.0050754305   0.0705077251  -0.0146014663
        0.0008459761  -0.0206263919  -0.0144730129  -0.0035680435  -0.0201688938
       -0.0079637031  -0.0275368597  -0.0044597101   0.0028186031  -0.0142099059
       -0.0267005819   0.0050754305   0.0365665727   0.0315745639   0.0115177464
        0.0037184630   0.0191553489  -0.0114480769   0.0014617299  -0.0195696209
       -0.1191325370  -0.0047786273  -0.0933834900   0.0448379810  -0.0266219375
       -0.4415003542   0.0705077251   0.0315745639   0.5333532610   0.0011941444
       -0.0024496566  -0.0002827674   0.0025926864   0.0022756575   0.0018133507
       -0.0964091651   0.1027713971  -0.0074853725  -0.0234180573   0.0155508786
       -0.0012056099  -0.0146014663   0.0115177464   0.0011941444   0.1272042218
       -0.1201362858   0.0065823339   0.0072244669  -0.0097037362   0.0009145041
        0.1020756601  -0.2244101943   0.0089865291   0.0071697311   0.0021207281
        0.0005318418   0.0008459761   0.0037184630  -0.0024496566  -0.1201362858
        0.2430650791  -0.0076125550   0.0100449185  -0.0244940759   0.0005438406
        0.0010793754   0.0007583005  -0.0304994658   0.0132999189  -0.0153269506
       -0.0031894366  -0.0206263919   0.0191553489  -0.0002827674   0.0065823339
       -0.0076125550   0.0301817071  -0.0003352363   0.0030258561   0.0037899627
       -0.0944568965  -0.1016548682   0.0052780298  -0.0232084069  -0.0158296322
        0.0007783286  -0.0144730129  -0.0114480769   0.0025926864   0.0072244669
        0.0100449185  -0.0003352363   0.1249138494   0.1188876589  -0.0083138085
       -0.0999039153  -0.2245479317   0.0152289572  -0.0057119638   0.0036580023
       -0.0014365737  -0.0035680435   0.0014617299   0.0022756575  -0.0097037362
       -0.0244940759   0.0030258561   0.1188876589   0.2439222754  -0.0190938970
        0.0136121394   0.0235340103  -0.0322928560   0.0139560588   0.0145856670
       -0.0049141876  -0.0201688938  -0.0195696209   0.0018133507   0.0009145041
        0.0005438406   0.0037899627  -0.0083138085  -0.0190938970   0.0316037302
