 Entering Gaussian System
 *********************************************
 Gaussian 98:
 frequency output generated by the xtb code
 *********************************************
                         Standard orientation:
 --------------------------------------------------------------------
  Center     Atomic     Atomic              Coordinates (Angstroms)
  Number     Number      Type              X           Y           Z
 --------------------------------------------------------------------
    1          6             0       -0.277028   -0.006566   -0.083752
    2          6             0        1.069976   -0.030490   -0.569422
    3          8             0        0.911930    0.052501    0.769480
    4          1             0       -0.856844    0.911572   -0.115655
    5          1             0       -0.848034   -0.927017   -0.000652
 --------------------------------------------------------------------
     1 basis functions        1 primitive gaussians
     1 alpha electrons        1 beta electrons

 Harmonic frequencies (cm**-1), IR intensities (KM/Mole),
 Raman scattering activities (A**4/amu), Raman depolarization ratios,
 reduced masses (AMU), force constants (mDyne/A) and normal coordinates:
                      1                      2                      3
                        a                      a                      a 
 Frequencies --   811.7272               866.0687              1025.6500
 Red. masses --    13.3552                 2.6217                 4.0585
 Frc consts  --     0.0000                 0.0000                 0.0000
 IR Inten    --     0.5807                 0.0593                 0.3922
 Raman Activ --     0.0000                 0.0000                 0.0000
 Depolar     --     0.0000                 0.0000                 0.0000
 Atom AN      X      Y      Z        X      Y      Z        X      Y      Z
   1   6    -0.34  -0.04  -0.56    -0.00   0.08  -0.01     0.09   0.01   0.24
   2   6    -0.28   0.02   0.31     0.00  -0.28   0.02    -0.30  -0.01  -0.13
   3   8     0.58   0.02   0.21    -0.00   0.21  -0.01     0.17   0.01   0.21
   4   1    -0.09   0.00   0.01    -0.12  -0.04   0.65     0.03  -0.02  -0.61
   5   1    -0.09  -0.00   0.01     0.12  -0.12  -0.64     0.03  -0.05  -0.61
                      4                      5                      6
                        a                      a                      a 
 Frequencies --  1045.3870              1136.3479              1398.5007
 Red. masses --     3.5764                11.8068                 3.1873
 Frc consts  --     0.0000                 0.0000                 0.0000
 IR Inten    --     0.2199                 0.6558                 0.2779
 Raman Activ --     0.0000                 0.0000                 0.0000
 Depolar     --     0.0000                 0.0000                 0.0000
 Atom AN      X      Y      Z        X      Y      Z        X      Y      Z
   1   6     0.00  -0.43   0.03     0.52  -0.02  -0.29     0.04   0.00   0.02
   2   6     0.00   0.13  -0.01    -0.43  -0.02  -0.36     0.22  -0.02  -0.27
   3   8    -0.00   0.15  -0.01    -0.13   0.03   0.46     0.05   0.01   0.22
   4   1     0.55   0.25   0.15     0.11  -0.00   0.20    -0.55  -0.32   0.01
   5   1    -0.55   0.22  -0.18     0.11   0.03   0.19    -0.56   0.32  -0.03
                      7                      8                      9
                        a                      a                      a 
 Frequencies --  1498.7814              2989.7450              2994.3448
 Red. masses --    11.4252                 1.4008                 2.1163
 Frc consts  --     0.0000                 0.0000                 0.0000
 IR Inten    --     0.6990                 0.1573                 0.2241
 Raman Activ --     0.0000                 0.0000                 0.0000
 Depolar     --     0.0000                 0.0000                 0.0000
 Atom AN      X      Y      Z        X      Y      Z        X      Y      Z
   1   6    -0.52  -0.00   0.01     0.19   0.00  -0.00    -0.00   0.32  -0.02
   2   6     0.36  -0.03  -0.53     0.01   0.00   0.01    -0.00   0.01  -0.00
   3   8     0.05   0.03   0.44     0.00  -0.00  -0.01    -0.00   0.00  -0.00
   4   1     0.17   0.18   0.02    -0.35   0.60  -0.03     0.37  -0.56   0.02
   5   1     0.17  -0.18   0.04    -0.34  -0.60   0.05    -0.36  -0.56   0.05
