5
 energy: -9.108830632661 gnorm: 0.000933670324 xtb: 6.2.2 (9d81278992624c895f80dd42a50cac0aa55982e2)
C        -0.27702794518251   -0.00656585396120   -0.08375150718570
C         1.06997617235294   -0.03048985041809   -0.56942170744398
O         0.91192997167846    0.05250086211115    0.76948015832375
H        -0.85684437093469    0.91157245295733   -0.11565514099638
H        -0.84803382790896   -0.92701661068919   -0.00065180269944
