$hessian                                                                        
        0.2467343523  -0.0091296584   0.1994978528  -0.2030940006   0.0056427622
       -0.1152776961   0.0012763709   0.0019593702  -0.0527635776  -0.0223930324
       -0.0028535723  -0.0154107605  -0.0225236902   0.0043810983  -0.0160458185
       -0.0091296584  -0.0211845672  -0.0109143903   0.0097691882  -0.0135235661
        0.0040659444  -0.0014712156   0.0365691514   0.0065868265  -0.0112045687
       -0.0012547981   0.0226097049   0.0120362545  -0.0006062200  -0.0223480854
        0.1994978528  -0.0109143903   0.3198295730  -0.2628172298   0.0058316348
       -0.0948660903   0.0714925490   0.0050953173  -0.2209522509  -0.0043436427
       -0.0083835643  -0.0025813466  -0.0038295292   0.0083710026  -0.0014298853
       -0.2030940006   0.0097691882  -0.2628172298   0.5961555067  -0.0029715464
        0.0161412791  -0.2338691965  -0.0047266128   0.2512205531  -0.0818921218
       -0.1005298972  -0.0058062438  -0.0773001878   0.0984588683   0.0012616415
        0.0056427622  -0.0135235661   0.0058316348  -0.0029715464   0.3684979946
        0.0049041543  -0.0006978510  -0.0132205309  -0.0014441752  -0.1033967985
       -0.1682521635  -0.0088603849   0.1014234337  -0.1735017340  -0.0004312290
       -0.1152776961   0.0040659444  -0.0948660903   0.0161412791   0.0049041543
        0.2118099213   0.1037402144   0.0005374178  -0.0641687258  -0.0062150919
       -0.0088548510  -0.0267259581   0.0016112946  -0.0006526655  -0.0260491472
        0.0012763709  -0.0014712156   0.0714925490  -0.2338691965  -0.0006978510
        0.1037402144   0.2805959583   0.0024342614  -0.2029983357  -0.0244285863
       -0.0044127758   0.0135041521  -0.0235745463   0.0041475809   0.0142614202
        0.0019593702   0.0365691514   0.0050953173  -0.0047266128  -0.0132205309
        0.0005374178   0.0024342614  -0.0214858630  -0.0051279960  -0.0095378169
       -0.0002370206  -0.0236170238   0.0098707981  -0.0016257368   0.0231122848
       -0.0527635776   0.0065868265  -0.2209522509   0.2512205531  -0.0014441752
       -0.0641687258  -0.2029983357  -0.0051279960   0.2862085019   0.0021541609
        0.0080463504   0.0000394932   0.0023871994  -0.0080610057  -0.0011270185
       -0.0223930324  -0.0112045687  -0.0043436427  -0.0818921218  -0.1033967985
       -0.0062150919  -0.0244285863  -0.0095378169   0.0021541609   0.1232448155
        0.1163387532   0.0091956847   0.0054689251   0.0078004309  -0.0007911111
       -0.0028535723  -0.0012547981  -0.0083835643  -0.1005298972  -0.1682521635
       -0.0088548510  -0.0044127758  -0.0002370206   0.0080463504   0.1163387532
        0.1999298301   0.0116067792  -0.0085425079  -0.0301858478  -0.0024147143
       -0.0154107605   0.0226097049  -0.0025813466  -0.0058062438  -0.0088603849
       -0.0267259581   0.0135041521  -0.0236170238   0.0000394932   0.0091956847
        0.0116067792  -0.0029666545  -0.0014828325  -0.0017390753   0.0322344659
       -0.0225236902   0.0120362545  -0.0038295292  -0.0773001878   0.1014234337
        0.0016112946  -0.0235745463   0.0098707981   0.0023871994   0.0054689251
       -0.0085425079  -0.0014828325   0.1179294992  -0.1147879784   0.0013138678
        0.0043810983  -0.0006062200   0.0083710026   0.0984588683  -0.1735017340
       -0.0006526655   0.0041475809  -0.0016257368  -0.0080610057   0.0078004309
       -0.0301858478  -0.0017390753  -0.1147879784   0.2059195386   0.0020817440
       -0.0160458185  -0.0223480854  -0.0014298853   0.0012616415  -0.0004312290
       -0.0260491472   0.0142614202   0.0231122848  -0.0011270185  -0.0007911111
       -0.0024147143   0.0322344659   0.0013138678   0.0020817440  -0.0036284150
