5
 energy: -8.764186276478 gnorm: 0.061376603336 xtb: 6.2.2 (9d81278992624c895f80dd42a50cac0aa55982e2)
N         0.90454500000000   -0.03444000000000    0.75841900000000
C        -0.28808000000000    0.00372100000000   -0.01200300000000
N         0.96508200000000    0.01032700000000   -0.68050900000000
H        -0.80220100000000   -0.97797300000000   -0.06418800000000
H        -0.77934500000000    0.99836500000000   -0.00171900000000
5
 energy: -8.768301629030 gnorm: 0.034818286107 xtb: 6.2.2 (9d81278992624c895f80dd42a50cac0aa55982e2)
N         0.91659673089852   -0.03433313099746    0.75081267389400
C        -0.26332723551080    0.00340022021864   -0.01097309973794
N         0.97645473043492    0.00992194609145   -0.67192683617525
H        -0.82581268331208   -0.93618614910951   -0.06388295820394
H        -0.80391054251056    0.95719711379688   -0.00402977977687
5
 energy: -8.770187485641 gnorm: 0.004195400099 xtb: 6.2.2 (9d81278992624c895f80dd42a50cac0aa55982e2)
N         0.93748712656812   -0.03425771305189    0.74143478355925
C        -0.22879765927145    0.00295196848956   -0.00953388842049
N         0.99648387914323    0.00932423961909   -0.66084367027838
H        -0.86300830205685   -0.88968124748974   -0.06401405940477
H        -0.84216404438305    0.91166275243298   -0.00704316545561
5
 energy: -8.770201636102 gnorm: 0.002269918235 xtb: 6.2.2 (9d81278992624c895f80dd42a50cac0aa55982e2)
N         0.93860392688194   -0.03427449981940    0.74257426366626
C        -0.22784190482437    0.00293896394335   -0.00949460063250
N         0.99769072696615    0.00931149658036   -0.66188577324118
H        -0.86464797067131   -0.88972239885838   -0.06410761364414
H        -0.84380377835241    0.91174643815407   -0.00708627614844
5
 energy: -8.770209019676 gnorm: 0.001568074572 xtb: 6.2.2 (9d81278992624c895f80dd42a50cac0aa55982e2)
N         0.93881384046662   -0.03420062808460    0.74402405363961
C        -0.22652162820063    0.00292091200903   -0.00943901474800
N         0.99802396562589    0.00923163064705   -0.66331529236736
H        -0.86557253952486   -0.88936362113952   -0.06422315934125
H        -0.84474263836703    0.91141170656803   -0.00704658718300
5
 energy: -8.770215610559 gnorm: 0.001333169313 xtb: 6.2.2 (9d81278992624c895f80dd42a50cac0aa55982e2)
N         0.93793542733300   -0.03364096651217    0.74652192470700
C        -0.22418021739679    0.00288897815648   -0.00933832029733
N         0.99733791193756    0.00869389515936   -0.66587740912111
H        -0.86593125755128   -0.88833431646641   -0.06466587633599
H        -0.84516086432249    0.91039240966274   -0.00664031895257
5
 energy: -8.770220127103 gnorm: 0.000835796743 xtb: 6.2.2 (9d81278992624c895f80dd42a50cac0aa55982e2)
N         0.93689419764030   -0.03203492093925    0.74718922008434
C        -0.22354815207014    0.00288082461023   -0.00931612666724
N         0.99631557089166    0.00711477503127   -0.66662979692877
H        -0.86515981185597   -0.88774116226282   -0.06579099275893
H        -0.84450080460585    0.90978048356056   -0.00545230372940
