[Molden Format]
[Title]
[Atoms] AU
N      1     7  0.17704778887829E+01 -0.60544027208878E-01  0.14119767837576E+01
C      2     6 -0.42244477682444E+00  0.54461502106780E-02 -0.17603461201071E-01
N      3     7  0.18827590610029E+01  0.13432918222398E-01 -0.12597542213714E+01
H      4     1 -0.16349241645225E+01 -0.16775791671563E+01 -0.12431831137331E+00
H      5     1 -0.15958661187130E+01  0.17192441259222E+01 -0.10300789818394E-01
[GTO]
           1 0
 s           4   1.0000000000000000     
   63.594024466941008      -0.19234388414721629     
   10.951417231523665      -0.23478107924953728     
  0.87999310257376984       0.37593753901700888     
  0.33538715296521110       0.14982889271862770     
 p           4   1.0000000000000000     
   7.2965040481495080       0.97658666315667420     
   1.8918745450712575       0.90372226730345739     
  0.66694432110824120       0.47404958461536373     
  0.26552202674130870        7.1516067715011844E-002

           2 0
 s           4   1.0000000000000000     
   51.049363095579913      -0.16312063210127389     
   8.7911227406887544      -0.19911024581000730     
  0.70640422258929825       0.31882047753655751     
  0.26922813413411617       0.12706504184240380     
 p           4   1.0000000000000000     
   5.8263656140800002       0.73716451545209605     
   1.5106896018720002       0.68216371614850257     
  0.53256483288000001       0.35783053929253711     
  0.21202323690600003        5.3983030275847881E-002

           3 0
 s           4   1.0000000000000000     
   63.594024466941008      -0.19234388414721629     
   10.951417231523665      -0.23478107924953728     
  0.87999310257376984       0.37593753901700888     
  0.33538715296521110       0.14982889271862770     
 p           4   1.0000000000000000     
   7.2965040481495080       0.97658666315667420     
   1.8918745450712575       0.90372226730345739     
  0.66694432110824120       0.47404958461536373     
  0.26552202674130870        7.1516067715011844E-002

           4 0
 s           3   1.0000000000000000     
   3.3702276975336001       0.27359110588908298     
  0.61389118221497996       0.26460540653860526     
  0.16614291148415999        8.2465947534082318E-002

           5 0
 s           3   1.0000000000000000     
   3.3702276975336001       0.27359110588908298     
  0.61389118221497996       0.26460540653860526     
  0.16614291148415999        8.2465947534082318E-002

[MO]
Sym=     1a
Ene=  -0.72749537032696876     
Spin= Alpha
Occup=     2.00000000
           1  0.32020545015499691     
           2 -0.12572138838700908     
           3   7.3664432690012183E-003
           4 -0.20813448558804445     
           5  0.37214641069281412     
           6  0.19699625468189214     
           7  -2.5401923002862756E-003
           8   8.2085529138252351E-003
           9  0.32020532309407307     
          10 -0.14274587380536141     
          11  -3.9044479960059809E-003
          12  0.19694785008833329     
          13   5.7741860826673534E-002
          14   5.7742009229781510E-002
Sym=     2a
Ene=  -0.62634002317197424     
Spin= Alpha
Occup=     2.00000000
           1 -0.21466650237130425     
           2 -0.14588329497637664     
           3  -1.5323965950496765E-003
           4  0.12743897354749456     
           5  0.41895533749571484     
           6 -0.29945024409967547     
           7   3.8616527273513924E-003
           8  -1.2477086762133964E-002
           9 -0.21466716064660910     
          10 -0.13468912588714768     
          11   5.1508955927792770E-003
          12 -0.13912978225981631     
          13  0.29187115568103827     
          14  0.29187072165250527     
Sym=     3a
Ene=  -0.58636859149965193     
Spin= Alpha
Occup=     2.00000000
           1  0.48095337310884467     
           2 -0.17698193314283522     
           3   7.2185330292691844E-003
           4  0.14942485308350209     
           5  -6.3356259935778981E-007
           6  -1.9451745408498661E-002
           7   2.2469448309896949E-003
           8  0.46752649637179616     
           9 -0.48095280551658243     
          10  0.16406718611685142     
          11   2.8206034851005471E-003
          12  0.16363587142608144     
          13  -9.3504169116856786E-003
          14   9.3500586145635195E-003
Sym=     4a
Ene=  -0.58211542273147832     
Spin= Alpha
Occup=     2.00000000
           1   1.5448130699088045E-002
           2  -8.6589720161997091E-003
           3 -0.34108523905562260     
           4  -4.5550589241962472E-003
           5   4.9182307488800885E-007
           6  -6.5368766025755533E-003
           7 -0.50984102428790690     
           8  -9.0981963676460846E-004
           9  -1.5447828537546948E-002
          10   2.2529846695905866E-004
          11 -0.34119963897981292     
          12  -4.1846058417043990E-003
          13  0.27817069539968936     
          14 -0.27817089834381548     
Sym=     5a
Ene=  -0.51160959168567000     
Spin= Alpha
Occup=     2.00000000
           1  0.20091978174125713     
           2  0.49219090531401205     
           3  -2.1333958848123616E-003
           4 -0.15099754447167282     
           5  -4.2062802288846055E-002
           6 -0.34579028366821385     
           7   4.4593108221787437E-003
           8  -1.4408489818396639E-002
           9  0.20092021766815243     
          10  0.47781665232876774     
          11  -1.0373874653567341E-002
          12  0.19141622176268858     
          13  0.21007072971876309     
          14  0.21006990593353303     
Sym=     6a
Ene=  -0.45100005956291711     
Spin= Alpha
Occup=     1.99972204
           1  0.45662494709549462     
           2   7.4076388306122979E-003
           3  -1.6569725170799975E-002
           4  0.54704841532156556     
           5  -1.9348774379255421E-002
           6  -5.8729938227704889E-003
           7   7.5707926279235062E-005
           8  -2.4422399502566241E-004
           9  0.45662626130233841     
          10   5.3309685234125381E-002
          11   1.5786630329640491E-002
          12 -0.54451897732703447     
          13   1.7274349348581242E-002
          14   1.7274401702388309E-002
Sym=     7a
Ene=  -0.44476055843567119     
Spin= Alpha
Occup=     1.83481567
           1 -0.41376614043489535     
           2 -0.42069936884128573     
           3  -5.4678360007047160E-003
           4 -0.23045935769867126     
           5  -3.4405307497543048E-007
           6  -1.9197690533892510E-002
           7  -7.1089045217331342E-003
           8  0.45853263734975275     
           9  0.41376505260338575     
          10  0.43812992664886019     
          11  -1.6542848617439782E-002
          12 -0.19467183898409449     
          13  -1.0838793659008342E-002
          14   1.0838826748838740E-002
Sym=     8a
Ene=  -0.44168405117741250     
Spin= Alpha
Occup=     1.16546229
           1   1.0829804869934911E-002
           2   6.9642514706990798E-003
           3 -0.56140671732360814     
           4  -9.4811118706042245E-003
           5  -6.2235114732760491E-009
           6   3.7530918167676453E-003
           7  0.27039070709766527     
           8  -6.3979173641668299E-003
           9  -1.0830066403653291E-002
          10  -2.0599449772305243E-002
          11 -0.56105156086881580     
          12  -1.0629558322456018E-002
          13 -0.37023937517294730     
          14  0.37024069620208133     
Sym=     9a
Ene=  -0.34758884774506427     
Spin= Alpha
Occup=     1.00000000
           1   9.0835131376738756E-004
           2   9.2624164104221727E-003
           3  0.75766090837681976     
           4   2.1922783673777955E-002
           5  -8.0851430680615761E-004
           6   8.7672118336551411E-005
           7  -1.2984896336073797E-006
           8   3.4413589845686603E-006
           9   9.0820031491043764E-004
          10  -8.4523493313098993E-003
          11 -0.75767119564778040     
          12  -2.1888895038514357E-002
          13   3.3555843058234876E-004
          14   3.3528009569530024E-004
Sym=    10a
Ene=   -9.9013396802884332E-002
Spin= Alpha
Occup=     0.00000000
           1  -4.7420931612911194E-002
           2 -0.59285998936311413     
           3  -7.7263556488074356E-003
           4  0.47104449456336878     
           5   1.8170092999518362E-006
           6   2.8710603998314481E-002
           7   2.3911354422370086E-002
           8 -0.68164067525916849     
           9   4.7420854081437154E-002
          10  0.55122943548539982     
          11  -2.2479269954836276E-002
          12  0.51871671575903811     
          13   2.4797488524189609E-003
          14  -2.4818638202306655E-003
Sym=    11a
Ene=    6.3685319902282281E-002
Spin= Alpha
Occup=     0.00000000
           1 -0.56992823139584181     
           2  0.29231109170351816     
           3  -2.1025773701572329E-002
           4  0.71335902732735046     
           5  -2.1816076375447280E-005
           6  -2.3474281041686133E-002
           7  -2.8018854412639845E-002
           8  0.55482673585755560     
           9  0.56993143050629846     
          10 -0.35108812628655534     
          11  -1.2729225322752563E-002
          12  0.68655234043233571     
          13  -8.5600168568054930E-003
          14   8.5865246862159763E-003
Sym=    12a
Ene=    8.0668077591260087E-002
Spin= Alpha
Occup=     0.00000000
           1  -8.3104437003251291E-002
           2  0.23869848519134476     
           3  -4.4759277565555502E-003
           4   7.8712202113297811E-002
           5   1.1503983634208859     
           6 -0.31165325575829161     
           7   4.0220362685051501E-003
           8  -1.2973471019953357E-002
           9  -8.3082671502599278E-002
          10  0.24443923164031939     
          11  -1.7557991939637571E-003
          12  -5.8555569827613105E-002
          13 -0.70802601029492207     
          14 -0.70802923864347889     
Sym=    13a
Ene=   0.17747686597886164     
Spin= Alpha
Occup=     0.00000000
           1  -6.6826835513667960E-003
           2   3.2585523207401164E-003
           3 -0.18622191153027323     
           4   8.5516564235691382E-004
           5  -6.9599328121967057E-006
           6   1.2295637762675832E-002
           7   1.0958109625851173     
           8   4.3855974739518550E-002
           9   6.6901792254194176E-003
          10  -8.1212323253017360E-003
          11 -0.18607532501760926     
          12   3.8504366665360472E-004
          13  0.81804911428130156     
          14 -0.81805080108789874     
Sym=    14a
Ene=   0.30042761666953161     
Spin= Alpha
Occup=     0.00000000
           1 -0.42157807168414246     
           2  0.49129881371741274     
           3  -1.2832926139507766E-002
           4  0.24639881534709632     
           5  0.37895239159377392     
           6   1.1541683633655948     
           7  -1.4873849600992476E-002
           8   4.8092552742479970E-002
           9 -0.42157745666969088     
          10  0.51025792117402158     
          11  -8.5103953651342792E-005
          12 -0.20466503092339308     
          13  0.32217123083190186     
          14  0.32215554746442449     
