 Entering Gaussian System
 *********************************************
 Gaussian 98:
 frequency output generated by the xtb code
 *********************************************
                         Standard orientation:
 --------------------------------------------------------------------
  Center     Atomic     Atomic              Coordinates (Angstroms)
  Number     Number      Type              X           Y           Z
 --------------------------------------------------------------------
    1          6             0       -0.447836   -0.074519    0.008436
    2          7             0       -1.104452    1.009915    0.046544
    3          6             0        0.888546   -0.297508   -0.027099
    4          1             0       -1.074220   -0.989145   -0.000024
    5          1             0        1.737961    0.351257   -0.027856
 --------------------------------------------------------------------
     1 basis functions        1 primitive gaussians
     1 alpha electrons        1 beta electrons

 Harmonic frequencies (cm**-1), IR intensities (KM/Mole),
 Raman scattering activities (A**4/amu), Raman depolarization ratios,
 reduced masses (AMU), force constants (mDyne/A) and normal coordinates:
                      1                      2                      3
                        a                      a                      a 
 Frequencies --   477.4289               634.6663               776.7007
 Red. masses --     9.1722                 5.9845                 3.7207
 Frc consts  --     0.0000                 0.0000                 0.0000
 IR Inten    --     0.3232                 0.2528                 0.0782
 Raman Activ --     0.0000                 0.0000                 0.0000
 Depolar     --     0.0000                 0.0000                 0.0000
 Atom AN      X      Y      Z        X      Y      Z        X      Y      Z
   1   6     0.28   0.45   0.00    -0.01   0.01  -0.45    -0.01   0.01  -0.47
   2   7    -0.54  -0.04   0.01     0.00  -0.00   0.18     0.00  -0.00   0.13
   3   6     0.17  -0.30  -0.01     0.01  -0.01   0.46     0.00  -0.00  -0.01
   4   1     0.12   0.08  -0.00     0.00  -0.00   0.07     0.02  -0.02   0.78
   5   1     0.31  -0.44  -0.02    -0.02   0.02  -0.74     0.01  -0.01   0.39
                      4                      5                      6
                        a                      a                      a 
 Frequencies --   799.4455              1107.2419              1300.7745
 Red. masses --     5.1472                 1.9972                11.9576
 Frc consts  --     0.0000                 0.0000                 0.0000
 IR Inten    --     0.2550                 0.1381                 0.1316
 Raman Activ --     0.0000                 0.0000                 0.0000
 Depolar     --     0.0000                 0.0000                 0.0000
 Atom AN      X      Y      Z        X      Y      Z        X      Y      Z
   1   6    -0.18  -0.24  -0.01    -0.15   0.14   0.01    -0.48  -0.28   0.00
   2   7     0.17  -0.02  -0.00     0.07   0.11   0.00    -0.21   0.38   0.01
   3   6    -0.16   0.48   0.02    -0.13  -0.11  -0.00     0.67  -0.11  -0.02
   4   1     0.04  -0.12   0.00     0.79  -0.53  -0.03    -0.04  -0.10  -0.00
   5   1     0.49  -0.61  -0.03    -0.08   0.03   0.00     0.15   0.05  -0.00
                      7                      8                      9
                        a                      a                      a 
 Frequencies --  1479.6036              2693.6998              3147.4501
 Red. masses --    12.5727                 1.6640                 1.9022
 Frc consts  --     0.0000                 0.0000                 0.0000
 IR Inten    --     0.2176                 0.0488                 0.0859
 Raman Activ --     0.0000                 0.0000                 0.0000
 Depolar     --     0.0000                 0.0000                 0.0000
 Atom AN      X      Y      Z        X      Y      Z        X      Y      Z
   1   6     0.54  -0.55  -0.02     0.15   0.19   0.00    -0.01   0.01   0.00
   2   7    -0.31   0.51   0.02    -0.00   0.03   0.00    -0.00   0.00   0.00
   3   6    -0.21   0.02   0.01     0.01   0.01  -0.00     0.24   0.15  -0.00
   4   1     0.07  -0.05  -0.00    -0.55  -0.80  -0.01     0.00   0.00  -0.00
   5   1    -0.06  -0.01   0.00    -0.00   0.00   0.00    -0.78  -0.56   0.00
