[Molden Format]
[Title]
[Atoms] AU
H      1     1  0.31159641109675E+01 -0.16315149933257E-04 -0.10876766622265E-04
H      2     1 -0.31159641109675E+01  0.16315149933257E-04  0.10876766622265E-04
[GTO]
           1 0
 s           3   1.0000000000000000     
   3.3702276975336001       0.27359110588908298     
  0.61389118221497996       0.26460540653860526     
  0.16614291148415999        8.2465947534082318E-002

           2 0
 s           3   1.0000000000000000     
   3.3702276975336001       0.27359110588908298     
  0.61389118221497996       0.26460540653860526     
  0.16614291148415999        8.2465947534082318E-002

[MO]
Sym=     1a
Ene=  -0.39677680950354466     
Spin= Alpha
Occup=     1.00000000
           1 -0.70355204003068850     
           2 -0.70355204003067429     
Sym=     2a
Ene=  -0.39062860844366032     
Spin= Alpha
Occup=     1.00000000
           1  0.71071595423392508     
           2 -0.71071595423393907     
