$hessian                                                                        
        0.0003367690  -0.0000000014  -0.0000000009  -0.0003367690   0.0000000014
        0.0000000009
       -0.0000000014  -0.0000183803   0.0000000000   0.0000000014   0.0000183803
       -0.0000000000
       -0.0000000009   0.0000000000  -0.0000183803   0.0000000009  -0.0000000000
        0.0000183803
       -0.0003367690   0.0000000014   0.0000000009   0.0003367690  -0.0000000014
       -0.0000000009
        0.0000000014   0.0000183803  -0.0000000000  -0.0000000014  -0.0000183803
        0.0000000000
        0.0000000009  -0.0000000000   0.0000183803  -0.0000000009   0.0000000000
       -0.0000183803
