2
 energy: -0.101688088205 gnorm: 1.925783640903 xtb: 6.2.2 (9d81278992624c895f80dd42a50cac0aa55982e2)
H         0.35400000000000    0.00000000000000    0.00000000000000
H        -0.35400000000000    0.00000000000000    0.00000000000000
2
 energy: -0.698349787003 gnorm: 0.212283682603 xtb: 6.2.2 (9d81278992624c895f80dd42a50cac0aa55982e2)
H         0.65564801421305   -0.00000000000000    0.00000000000000
H        -0.65564801421305    0.00000000000000    0.00000000000000
2
 energy: -0.717002412725 gnorm: 0.166872739560 xtb: 6.2.2 (9d81278992624c895f80dd42a50cac0aa55982e2)
H         0.69265336520056   -0.00000000000000    0.00000000000000
H        -0.69265336520056    0.00000000000000    0.00000000000000
2
 energy: -0.754742939631 gnorm: 0.077247452127 xtb: 6.2.2 (9d81278992624c895f80dd42a50cac0aa55982e2)
H         0.81427240718294   -0.00000000000000    0.00000000000000
H        -0.81427240718294    0.00000000000000    0.00000000000000
2
 energy: -0.769849609780 gnorm: 0.042052550753 xtb: 6.2.2 (9d81278992624c895f80dd42a50cac0aa55982e2)
H         0.91195192410904   -0.00000000000000    0.00000000000000
H        -0.91195192410904    0.00000000000000    0.00000000000000
2
 energy: -0.778619587731 gnorm: 0.021425233591 xtb: 6.2.2 (9d81278992624c895f80dd42a50cac0aa55982e2)
H         1.01909497029042   -0.00000000000000    0.00000000000000
H        -1.01909497029042    0.00000000000000    0.00000000000000
2
 energy: -0.782925788635 gnorm: 0.010988169729 xtb: 6.2.2 (9d81278992624c895f80dd42a50cac0aa55982e2)
H         1.12197057562760   -0.00000000000000    0.00000000000000
H        -1.12197057562760    0.00000000000000    0.00000000000000
2
 energy: -0.785071390513 gnorm: 0.005557617223 xtb: 6.2.2 (9d81278992624c895f80dd42a50cac0aa55982e2)
H         1.22246598838989   -0.00000000000000    0.00000000000000
H        -1.22246598838989    0.00000000000000    0.00000000000000
2
 energy: -0.786106762202 gnorm: 0.002796145830 xtb: 6.2.2 (9d81278992624c895f80dd42a50cac0aa55982e2)
H         1.31853367869310   -0.00000000000000    0.00000000000000
H        -1.31853367869310    0.00000000000000    0.00000000000000
2
 energy: -0.786601386850 gnorm: 0.001396926165 xtb: 6.2.2 (9d81278992624c895f80dd42a50cac0aa55982e2)
H         1.40999588482557   -0.00000000000000    0.00000000000000
H        -1.40999588482557    0.00000000000000    0.00000000000000
2
 energy: -0.786815873027 gnorm: 0.000749042490 xtb: 6.2.2 (9d81278992624c895f80dd42a50cac0aa55982e2)
H         1.48692910286357   -0.00000000000000    0.00000000000000
H        -1.48692910286357    0.00000000000000    0.00000000000000
2
 energy: -0.786886282811 gnorm: 0.000522988264 xtb: 6.2.2 (9d81278992624c895f80dd42a50cac0aa55982e2)
H         1.52873788129980   -0.00000000000000    0.00000000000000
H        -1.52873788129980    0.00000000000000    0.00000000000000
2
 energy: -0.786922292938 gnorm: 0.000402055341 xtb: 6.2.2 (9d81278992624c895f80dd42a50cac0aa55982e2)
H         1.55801216950481   -0.00000000000000    0.00000000000000
H        -1.55801216950481    0.00000000000000    0.00000000000000
2
 energy: -0.786944138358 gnorm: 0.000325780400 xtb: 6.2.2 (9d81278992624c895f80dd42a50cac0aa55982e2)
H         1.58054225790748   -0.00000000000000    0.00000000000000
H        -1.58054225790748    0.00000000000000    0.00000000000000
2
 energy: -0.786958723013 gnorm: 0.000273018338 xtb: 6.2.2 (9d81278992624c895f80dd42a50cac0aa55982e2)
H         1.59880820842364   -0.00000000000000    0.00000000000000
H        -1.59880820842364    0.00000000000000    0.00000000000000
2
 energy: -0.786969086555 gnorm: 0.000234261641 xtb: 6.2.2 (9d81278992624c895f80dd42a50cac0aa55982e2)
H         1.61412070317516   -0.00000000000000    0.00000000000000
H        -1.61412070317516    0.00000000000000    0.00000000000000
2
 energy: -0.786976783085 gnorm: 0.000204556494 xtb: 6.2.2 (9d81278992624c895f80dd42a50cac0aa55982e2)
H         1.62726206849439   -0.00000000000000    0.00000000000000
H        -1.62726206849439    0.00000000000000    0.00000000000000
2
 energy: -0.786982690990 gnorm: 0.000181053461 xtb: 6.2.2 (9d81278992624c895f80dd42a50cac0aa55982e2)
H         1.63873855913940   -0.00000000000000    0.00000000000000
H        -1.63873855913940    0.00000000000000    0.00000000000000
2
 energy: -0.786987344126 gnorm: 0.000161991878 xtb: 6.2.2 (9d81278992624c895f80dd42a50cac0aa55982e2)
H         1.64889735053275   -0.00000000000000    0.00000000000000
H        -1.64889735053275    0.00000000000000    0.00000000000000
