2
 energy: -0.786987344126 gnorm: 0.000161991878 xtb: 6.2.2 (9d81278992624c895f80dd42a50cac0aa55982e2)
H         1.64889735050010   -0.00000863360634   -0.00000575573756
H        -1.64889735050010    0.00000863360634    0.00000575573756
