      -----------------------------------------------------------      
     |                   =====================                   |     
     |                           x T B                           |     
     |                   =====================                   |     
     |                         S. Grimme                         |     
     |          Mulliken Center for Theoretical Chemistry        |     
     |                    University of Bonn                     |     
      -----------------------------------------------------------      

   * xtb version 6.2.2 (9d81278992624c895f80dd42a50cac0aa55982e2) compiled by '@Darwin' on 04/03/2020

   xtb is free software: you can redistribute it and/or modify it under
   the terms of the GNU Lesser General Public License as published by
   the Free Software Foundation, either version 3 of the License, or
   (at your option) any later version.
   
   xtb is distributed in the hope that it will be useful,
   but WITHOUT ANY WARRANTY; without even the implied warranty of
   MERCHANTABILITY or FITNESS FOR A PARTICULAR PURPOSE.  See the
   GNU Lesser General Public License for more details.
   
   Cite this work as:
   * S. Grimme, C. Bannwarth, P. Shushkov, J. Chem. Theory Comput., 2017,
     13, 1989-2009. DOI: 10.1021/acs.jctc.7b00118
   * C. Bannwarth, S. Ehlert and S. Grimme., J. Chem. Theory Comput., 2019,
     15, 1652-1671. DOI: 10.1021/acs.jctc.8b01176
   * P. Pracht, E. Caldeweyher, S. Ehlert, S. Grimme, ChemRxiv, 2019, preprint.
     DOI: 10.26434/chemrxiv.8326202.v1
   
   for DFT-D4:
   * E. Caldeweyher, C. Bannwarth and S. Grimme, J. Chem. Phys., 2017,
     147, 034112. DOI: 10.1063/1.4993215
   * E. Caldeweyher, S. Ehlert, A. Hansen, H. Neugebauer, S. Spicher,
     C. Bannwarth and S. Grimme, J. Chem. Phys., 2019, 150, 154122.
     DOI: 10.1063/1.5090222
   
   for sTDA-xTB:
   * S. Grimme and C. Bannwarth, J. Chem. Phys., 2016, 145, 054103.
     DOI: 10.1063/1.4959605
   
   in the mass-spec context:
   * V. Asgeirsson, C. Bauer and S. Grimme, Chem. Sci., 2017, 8, 4879.
     DOI: 10.1039/c7sc00601b
   
   for metadynamics refer to:
   * S. Grimme, J. Chem. Theory Comput., 2019, 155, 2847-2862
     DOI: 10.1021/acs.jctc.9b00143
   
   with help from (in alphabetical order)
   C. Bannwarth, F. Bohle, G. Brandenburg, E. Caldeweyher, M. Checinski,
   S. Dohm, S. Ehlert, S. Ehrlich, F. März, H. Neugebauer, J. Pisarek,
   P. Pracht, P. Shushkov, and S. Spicher.
   
 * started run on 2020/05/13 at 16:20:26.811     

           -------------------------------------------------
          |                Calculation Setup                |
           -------------------------------------------------

          program call               : xtb --input H2_0_S_2.input H2_0_S_2.xyz --ohess --molden --namespace H2_0_S_2 output.out
          calculation namespace      : H2_0_S_2
          coordinate file            : H2_0_S_2.xyz
          number of atoms            :                     2
          number of electrons        :                     2
          charge                     :                     0
          spin                       :                   1.0
          first test random number   :      0.75669903079608

   ID    Z sym.   atoms
    1    1 H      1, 2

           -------------------------------------------------
          |                 G F N 2 - x T B                 |
           -------------------------------------------------

        Reference                      10.1021/acs.jctc.8b01176
      * Hamiltonian:
        H0-scaling (s, p, d)           1.850000    2.230000    2.230000
        zeta-weighting                 0.500000
      * Dispersion:
        s8                             2.700000
        a1                             0.520000
        a2                             5.000000
        s9                             5.000000
      * Repulsion:
        kExp                           1.500000    1.000000
        rExp                           1.000000
      * Coulomb:
        alpha                          2.000000
        third order                    shell-resolved
        anisotropic                    true
        a3                             3.000000
        a5                             4.000000
        cn-shift                       1.200000
        cn-exp                         4.000000
        max-rad                        5.000000


          ...................................................
          :                      SETUP                      :
          :.................................................:
          :  # basis functions                   2          :
          :  # atomic orbitals                   2          :
          :  # shells                            2          :
          :  # electrons                         2          :
          :  max. iterations                   250          :
          :  Hamiltonian                  GFN2-xTB          :
          :  restarted?                      false          :
          :  GBSA solvation                  false          :
          :  PC potential                    false          :
          :  electronic temp.          300.0000000     K    :
          :  accuracy                    1.0000000          :
          :  -> integral cutoff          0.2500000E+02      :
          :  -> integral neglect         0.1000000E-07      :
          :  -> SCF convergence          0.1000000E-05 Eh   :
          :  -> wf. convergence          0.1000000E-03 e    :
          :  Broyden damping             0.4000000          :
          ...................................................

 iter      E             dE          RMSdq      gap      omega  full diag
   1     -0.1489279 -0.148928E+00  0.826E+00    0.00       0.0  T
   2     -0.1489279 -0.138778E-15  0.496E+00    0.00       1.0  T
   3     -0.1489279  0.138778E-15  0.297E-04    0.00     237.7  T
   4     -0.1489279  0.000000E+00  0.316E-13    0.00  100000.0  T

   *** convergence criteria satisfied after 4 iterations ***

         #    Occupation            Energy/Eh            Energy/eV
      -------------------------------------------------------------
         1        1.0000           -0.6184109             -16.8278
         2        1.0000            0.4152384              11.2992 (HOMO)
      -------------------------------------------------------------
                  HL-Gap           -0.4352595 Eh          -11.8440 eV
             Fermi-level                  NaN Eh               NaN eV

 transition dipole moment (au) for excitation:           1           2
     X       Y       Z   
   0.9177   0.0000   0.0000  total (au/Debye):    0.918   2.333
 dE (eV)             :   28.127
 oscillator strength :  0.82078E+00

 SCC (total)                   0 d,  0 h,  0 min,  0.002 sec
 SCC setup                      ...        0 min,  0.000 sec (  3.077%)
 Dispersion                     ...        0 min,  0.000 sec (  0.261%)
 integral evaluation            ...        0 min,  0.000 sec (  1.136%)
 zeroth order Hamiltonian       ...        0 min,  0.000 sec (  0.332%)
 iterations                     ...        0 min,  0.000 sec ( 13.033%)
 molecular gradient             ...        0 min,  0.000 sec (  1.941%)
 printout                       ...        0 min,  0.002 sec ( 79.083%)

         :::::::::::::::::::::::::::::::::::::::::::::::::::::
         ::                     SUMMARY                     ::
         :::::::::::::::::::::::::::::::::::::::::::::::::::::
         :: total energy              -0.101688088205 Eh    ::
         :: gradient norm              1.925783640903 Eh/a0 ::
         :: HOMO-LUMO gap              0.000000000000 eV    ::
         ::.................................................::
         :: SCC energy                -0.148927946234 Eh    ::
         :: -> isotropic ES            0.000000000000 Eh    ::
         :: -> anisotropic ES          0.033864382671 Eh    ::
         :: -> anisotropic XC          0.038925474588 Eh    ::
         :: -> dispersion             -0.000052268012 Eh    ::
         :: repulsion energy           0.047239858029 Eh    ::
         :: add. restraining           0.000000000000 Eh    ::
         :::::::::::::::::::::::::::::::::::::::::::::::::::::

      ----------------------------------------------------------- 
     |                   =====================                   |
     |                        A N C O P T                        |
     |                   =====================                   |
     |               Approximate Normal Coordinate               |
     |                Rational Function Optimizer                |
      ----------------------------------------------------------- 

          ...................................................
          :                      SETUP                      :
          :.................................................:
          :   optimization level            normal          :
          :   max. optcycles                   200          :
          :   ANC micro-cycles                  20          :
          :   degrees of freedom                 1          :
          :.................................................:
          :   RF solver                   davidson          :
          :   write xtbopt.log                true          :
          :   linear (good luck)              true          :
          :   energy convergence         0.5000000E-05 Eh   :
          :   grad. convergence          0.1000000E-02 Eh/α :
          :   maximium RF displ.         1.0000000          :
          :   Hlow (freq-cutoff)         0.1000000E-01      :
          :   Hmax (freq-cutoff)         5.0000000          :
          :   S6 in model hess.         20.0000000          :
          ...................................................

generating ANC from model Hessian ...
Using Lindh-Hessian (1995)
 Shifting diagonal of input Hessian by    9.9952113857592843E-003
 Lowest  eigenvalues of input Hessian
   -0.000000   -0.000000    0.000000    0.010000    0.010000    0.836409
 Highest eigenvalues
   -0.000000   -0.000000    0.000000    0.010000    0.010000    0.836409


........................................................................
.............................. CYCLE    1 ..............................
........................................................................
   1     -0.1489279 -0.148928E+00  0.175E-15    0.00       0.0  T
   2     -0.1489279  0.000000E+00  0.124E-15    0.00  100000.0  T
   3     -0.1489279  0.000000E+00  0.923E-16    0.00  100000.0  T
     SCC iter.                  ...        0 min,  0.000 sec
     gradient                   ...        0 min,  0.000 sec
 * total energy  :    -0.1016881 Eh     change        0.0000000E+00 Eh
   gradient norm :     1.9257836 Eh/α   predicted     0.0000000E+00 (    NaN%)
   displ. norm   :     0.8061471 α      lambda       -0.1552465E+01
   maximum displ.:     0.8061471 α      in ANC's #1, #1, #1, ...

........................................................................
.............................. CYCLE    2 ..............................
........................................................................
   1     -0.7003942 -0.700394E+00  0.787E+00    0.00       0.0  T
   2     -0.7003942  0.000000E+00  0.472E+00    0.00       1.0  T
   3     -0.7003942  0.222045E-15  0.283E-04    0.00     249.7  T
   4     -0.7003942  0.000000E+00  0.272E-13    0.00  100000.0  T
     SCC iter.                  ...        0 min,  0.000 sec
     gradient                   ...        0 min,  0.000 sec
 * total energy  :    -0.6983498 Eh     change       -0.5966617E+00 Eh
   gradient norm :     0.2122837 Eh/α   predicted    -0.1280685E+01 ( 114.64%)
   displ. norm   :     0.0988959 α      lambda       -0.2099399E-01
   maximum displ.:     0.0988959 α      in ANC's #1, #1, #1, ...

........................................................................
.............................. CYCLE    3 ..............................
........................................................................
   1     -0.7184224 -0.718422E+00  0.384E-01    0.00       0.0  T
   2     -0.7184224 -0.444089E-15  0.231E-01    0.00       1.0  T
   3     -0.7184224  0.444089E-15  0.138E-05    0.00    5109.9  T
   4     -0.7184224 -0.222045E-15  0.532E-15    0.00  100000.0  T
     SCC iter.                  ...        0 min,  0.000 sec
     gradient                   ...        0 min,  0.000 sec
 * total energy  :    -0.7170024 Eh     change       -0.1865263E-01 Eh
   gradient norm :     0.1668727 Eh/α   predicted    -0.1059966E-01 ( -43.17%)
   displ. norm   :     0.3250240 α      lambda       -0.5423763E-01
   maximum displ.:     0.3250240 α      in ANC's #1, #1, #1, ...

........................................................................
.............................. CYCLE    4 ..............................
........................................................................
   1     -0.7551796 -0.755180E+00  0.905E-01    0.00       0.0  T
   2     -0.7551796  0.111022E-15  0.543E-01    0.00       1.0  T
   3     -0.7551796 -0.111022E-15  0.326E-05    0.00    2170.7  T
   4     -0.7551796  0.111022E-15  0.644E-15    0.00  100000.0  T
     SCC iter.                  ...        0 min,  0.000 sec
     gradient                   ...        0 min,  0.000 sec
 * total energy  :    -0.7547429 Eh     change       -0.3774053E-01 Eh
   gradient norm :     0.0772475 Eh/α   predicted    -0.2998366E-01 ( -20.55%)
   displ. norm   :     0.2610462 α      lambda       -0.2016516E-01
   maximum displ.:     0.2610462 α      in ANC's #1, #1, #1, ...

........................................................................
.............................. CYCLE    5 ..............................
........................................................................
   1     -0.7700218 -0.770022E+00  0.462E-01    0.00       0.0  T
   2     -0.7700218  0.000000E+00  0.277E-01    0.00       1.0  T
   3     -0.7700218  0.222045E-15  0.166E-05    0.00    4248.3  T
   4     -0.7700218 -0.222045E-15  0.128E-14    0.00  100000.0  T
     SCC iter.                  ...        0 min,  0.000 sec
     gradient                   ...        0 min,  0.000 sec
 * total energy  :    -0.7698496 Eh     change       -0.1510667E-01 Eh
   gradient norm :     0.0420526 Eh/α   predicted    -0.1076965E-01 ( -28.71%)
   displ. norm   :     0.2863372 α      lambda       -0.1204121E-01
   maximum displ.:     0.2863372 α      in ANC's #1, #1, #1, ...

........................................................................
.............................. CYCLE    6 ..............................
........................................................................
   1     -0.7786825 -0.778682E+00  0.322E-01    0.00       0.0  T
   2     -0.7786825 -0.333067E-15  0.193E-01    0.00       1.0  T
   3     -0.7786825  0.333067E-15  0.116E-05    0.00    6093.1  T
   4     -0.7786825  0.111022E-15  0.352E-15    0.00  100000.0  T
     SCC iter.                  ...        0 min,  0.000 sec
     gradient                   ...        0 min,  0.000 sec
 * total energy  :    -0.7786196 Eh     change       -0.8769978E-02 Eh
   gradient norm :     0.0214252 Eh/α   predicted    -0.6514229E-02 ( -25.72%)
   displ. norm   :     0.2749326 α      lambda       -0.5890493E-02
   maximum displ.:     0.2749326 α      in ANC's #1, #1, #1, ...

........................................................................
.............................. CYCLE    7 ..............................
........................................................................
   1     -0.7829499 -0.782950E+00  0.190E-01    0.00       0.0  T
   2     -0.7829499 -0.111022E-15  0.114E-01    0.00       1.0  T
   3     -0.7829499  0.111022E-15  0.682E-06    0.00   10361.5  T
   4     -0.7829499 -0.111022E-15  0.477E-15    0.00  100000.0  T
     SCC iter.                  ...        0 min,  0.000 sec
     gradient                   ...        0 min,  0.000 sec
 * total energy  :    -0.7829258 Eh     change       -0.4306201E-02 Eh
   gradient norm :     0.0109882 Eh/α   predicted    -0.3167873E-02 ( -26.43%)
   displ. norm   :     0.2685716 α      lambda       -0.2951112E-02
   maximum displ.:     0.2685716 α      in ANC's #1, #1, #1, ...

........................................................................
.............................. CYCLE    8 ..............................
........................................................................
   1     -0.7850809 -0.785081E+00  0.110E-01    0.00       0.0  T
   2     -0.7850809 -0.111022E-15  0.663E-02    0.00       1.1  T
   3     -0.7850809  0.111022E-15  0.349E-06    0.00   20266.4  T
   4     -0.7850809  0.111022E-15  0.447E-15    0.00  100000.0  T
     SCC iter.                  ...        0 min,  0.000 sec
     gradient                   ...        0 min,  0.000 sec
 * total energy  :    -0.7850714 Eh     change       -0.2145602E-02 Eh
   gradient norm :     0.0055576 Eh/α   predicted    -0.1581988E-02 ( -26.27%)
   displ. norm   :     0.2567386 α      lambda       -0.1426854E-02
   maximum displ.:     0.2567386 α      in ANC's #1, #1, #1, ...

........................................................................
.............................. CYCLE    9 ..............................
........................................................................
   1     -0.7861107 -0.786111E+00  0.614E-02    0.00       0.0  T
   2     -0.7861107  0.000000E+00  0.369E-02    0.00       1.9  T
   3     -0.7861107  0.000000E+00  0.601E-07    0.00  100000.0  T
   4     -0.7861107 -0.333067E-15  0.144E-14    0.00  100000.0  T
     SCC iter.                  ...        0 min,  0.000 sec
     gradient                   ...        0 min,  0.000 sec
 * total energy  :    -0.7861068 Eh     change       -0.1035372E-02 Eh
   gradient norm :     0.0027961 Eh/α   predicted    -0.7604529E-03 ( -26.55%)
   displ. norm   :     0.2444306 α      lambda       -0.6834614E-03
   maximum displ.:     0.2444306 α      in ANC's #1, #1, #1, ...

........................................................................
.............................. CYCLE   10 ..............................
........................................................................
   1     -0.7866031 -0.786603E+00  0.335E-02    0.00       0.0  T
   2     -0.7866031  0.222045E-15  0.201E-02    0.00       3.5  T
   3     -0.7866031 -0.222045E-15  0.974E-08    0.00  100000.0  T
   4     -0.7866031  0.000000E+00  0.648E-15    0.00  100000.0  T
     SCC iter.                  ...        0 min,  0.000 sec
     gradient                   ...        0 min,  0.000 sec
 * total energy  :    -0.7866014 Eh     change       -0.4946246E-03 Eh
   gradient norm :     0.0013969 Eh/α   predicted    -0.3621489E-03 ( -26.78%)
   displ. norm   :     0.2056022 α      lambda       -0.1914767E-03
   maximum displ.:     0.2056022 α      in ANC's #1, #1, #1, ...

........................................................................
.............................. CYCLE   11 ..............................
........................................................................
   1     -0.7868167 -0.786817E+00  0.167E-02    0.00       0.0  T
   2     -0.7868167 -0.111022E-15  0.100E-02    0.00       7.0  T
   3     -0.7868167 -0.111022E-15  0.121E-08    0.00  100000.0  T
   4     -0.7868167 -0.222045E-15  0.245E-14    0.00  100000.0  T
     SCC iter.                  ...        0 min,  0.000 sec
     gradient                   ...        0 min,  0.000 sec
 * total energy  :    -0.7868159 Eh     change       -0.2144862E-03 Eh
   gradient norm :     0.0007490 Eh/α   predicted    -0.9753570E-04 ( -54.53%)
   displ. norm   :     0.1117330 α      lambda       -0.5579365E-04
   maximum displ.:     0.1117330 α      in ANC's #1, #1, #1, ...

........................................................................
.............................. CYCLE   12 ..............................
........................................................................
   1     -0.7868869 -0.786887E+00  0.642E-03    0.00       0.0  T
   2     -0.7868869  0.000000E+00  0.385E-03    0.00      18.4  T
   3     -0.7868869  0.222045E-15  0.686E-10    0.00  100000.0  T
   4     -0.7868869 -0.444089E-15  0.431E-14    0.00  100000.0  T
     SCC iter.                  ...        0 min,  0.000 sec
     gradient                   ...        0 min,  0.000 sec
 * total energy  :    -0.7868863 Eh     change       -0.7040978E-04 Eh
   gradient norm :     0.0005230 Eh/α   predicted    -0.2805237E-04 ( -60.16%)
   displ. norm   :     0.0782348 α      lambda       -0.2727958E-04
   maximum displ.:     0.0782348 α      in ANC's #1, #1, #1, ...

........................................................................
.............................. CYCLE   13 ..............................
........................................................................
   1     -0.7869227 -0.786923E+00  0.358E-03    0.00       0.0  T
   2     -0.7869227  0.444089E-15  0.215E-03    0.00      32.9  T
   3     -0.7869227 -0.111022E-15  0.119E-10    0.00  100000.0  T
   4     -0.7869227  0.000000E+00  0.197E-14    0.00  100000.0  T
     SCC iter.                  ...        0 min,  0.000 sec
     gradient                   ...        0 min,  0.000 sec
 * total energy  :    -0.7869223 Eh     change       -0.3601013E-04 Eh
   gradient norm :     0.0004021 Eh/α   predicted    -0.1367574E-04 ( -62.02%)
   displ. norm   :     0.0602111 α      lambda       -0.1614127E-04
   maximum displ.:     0.0602111 α      in ANC's #1, #1, #1, ...

........................................................................
.............................. CYCLE   14 ..............................
........................................................................
   1     -0.7869445 -0.786945E+00  0.232E-03    0.00       0.0  T
   2     -0.7869445  0.444089E-15  0.139E-03    0.00      50.7  T
   3     -0.7869445 -0.222045E-15  0.325E-11    0.00  100000.0  T
   4     -0.7869445  0.222045E-15  0.134E-14    0.00  100000.0  T
     SCC iter.                  ...        0 min,  0.000 sec
     gradient                   ...        0 min,  0.000 sec
 * total energy  :    -0.7869441 Eh     change       -0.2184542E-04 Eh
   gradient norm :     0.0003258 Eh/α   predicted    -0.8082404E-05 ( -63.00%)
   displ. norm   :     0.0488153 α      lambda       -0.1060166E-04
   maximum displ.:     0.0488153 α      in ANC's #1, #1, #1, ...

........................................................................
.............................. CYCLE   15 ..............................
........................................................................
   1     -0.7869590 -0.786959E+00  0.164E-03    0.00       0.0  T
   2     -0.7869590 -0.222045E-15  0.983E-04    0.00      71.9  T
   3     -0.7869590  0.222045E-15  0.114E-11    0.00  100000.0  T
     SCC iter.                  ...        0 min,  0.000 sec
     gradient                   ...        0 min,  0.000 sec
 * total energy  :    -0.7869587 Eh     change       -0.1458465E-04 Eh
   gradient norm :     0.0002730 Eh/α   predicted    -0.5306638E-05 ( -63.61%)
   displ. norm   :     0.0409223 α      lambda       -0.7447839E-05
   maximum displ.:     0.0409223 α      in ANC's #1, #1, #1, ...

........................................................................
.............................. CYCLE   16 ..............................
........................................................................
   1     -0.7869694 -0.786969E+00  0.122E-03    0.00       0.0  T
   2     -0.7869694 -0.333067E-15  0.734E-04    0.00      96.4  T
   3     -0.7869694  0.333067E-15  0.480E-12    0.00  100000.0  T
     SCC iter.                  ...        0 min,  0.000 sec
     gradient                   ...        0 min,  0.000 sec
 * total energy  :    -0.7869691 Eh     change       -0.1036354E-04 Eh
   gradient norm :     0.0002343 Eh/α   predicted    -0.3726949E-05 ( -64.04%)
   displ. norm   :     0.0351200 α      lambda       -0.5488206E-05
   maximum displ.:     0.0351200 α      in ANC's #1, #1, #1, ...

........................................................................
.............................. CYCLE   17 ..............................
........................................................................
   1     -0.7869770 -0.786977E+00  0.950E-04    0.00       0.0  T
   2     -0.7869770  0.111022E-15  0.570E-04    0.00     124.1  T
   3     -0.7869770 -0.111022E-15  0.226E-12    0.00  100000.0  T
     SCC iter.                  ...        0 min,  0.000 sec
     gradient                   ...        0 min,  0.000 sec
 * total energy  :    -0.7869768 Eh     change       -0.7696531E-05 Eh
   gradient norm :     0.0002046 Eh/α   predicted    -0.2743925E-05 ( -64.35%)
   displ. norm   :     0.0306706 α      lambda       -0.4181895E-05
   maximum displ.:     0.0306706 α      in ANC's #1, #1, #1, ...

........................................................................
.............................. CYCLE   18 ..............................
........................................................................
   1     -0.7869829 -0.786983E+00  0.760E-04    0.00       0.0  T
   2     -0.7869829  0.000000E+00  0.456E-04    0.00     155.1  T
   3     -0.7869829  0.000000E+00  0.117E-12    0.00  100000.0  T
     SCC iter.                  ...        0 min,  0.000 sec
     gradient                   ...        0 min,  0.000 sec
 * total energy  :    -0.7869827 Eh     change       -0.5907905E-05 Eh
   gradient norm :     0.0001811 Eh/α   predicted    -0.2092168E-05 ( -64.59%)
   displ. norm   :     0.0271491 α      lambda       -0.3274903E-05
   maximum displ.:     0.0271491 α      in ANC's #1, #1, #1, ...

........................................................................
.............................. CYCLE   19 ..............................
........................................................................
   1     -0.7869875 -0.786988E+00  0.622E-04    0.00       0.0  T
   2     -0.7869875  0.000000E+00  0.373E-04    0.00     189.4  T
   3     -0.7869875  0.000000E+00  0.625E-13    0.00  100000.0  T
     SCC iter.                  ...        0 min,  0.000 sec
     gradient                   ...        0 min,  0.000 sec
 * total energy  :    -0.7869873 Eh     change       -0.4653136E-05 Eh
   gradient norm :     0.0001620 Eh/α   predicted    -0.1639018E-05 ( -64.78%)
   displ. norm   :     0.0242924 α      lambda       -0.2619273E-05
   maximum displ.:     0.0242924 α      in ANC's #1, #1, #1, ...

   *** GEOMETRY OPTIMIZATION CONVERGED AFTER 19 ITERATIONS ***

------------------------------------------------------------------------
 total energy gain   :        -0.6852993 Eh     -430.0318 kcal/mol
 total RMSD          :         2.4470011 a0        1.2949 Å
 total power (kW/mol):       -94.6975237 (step)********** (real)
------------------------------------------------------------------------

 ANCopt (total)                0 d,  0 h,  0 min,  0.004 sec
 optimizer setup                ...        0 min,  0.000 sec (  1.450%)
 model hessian                  ...        0 min,  0.000 sec (  1.166%)
 ANC generation                 ...        0 min,  0.000 sec (  0.761%)
 coordinate transformation      ...        0 min,  0.000 sec (  0.840%)
 single point calculation       ...        0 min,  0.003 sec ( 70.836%)
 optimization log               ...        0 min,  0.000 sec (  7.335%)
 hessian update                 ...        0 min,  0.000 sec (  0.683%)
 rational function              ...        0 min,  0.000 sec (  6.108%)

================
 final structure:
================
2
 xtb: 6.2.2 (9d81278992624c895f80dd42a50cac0aa55982e2)
H         1.64889735053275   -0.00000000000000    0.00000000000000
H        -1.64889735053275    0.00000000000000    0.00000000000000

 Bond Distances (Angstroems)
 ---------------------------


 selected bond angles (degree)
 --------------------


 selected dihedral angles (degree)
 ---------------------------------

           -------------------------------------------------
          |                Final Singlepoint                |
           -------------------------------------------------

          ...................................................
          :                      SETUP                      :
          :.................................................:
          :  # basis functions                   2          :
          :  # atomic orbitals                   2          :
          :  # shells                            2          :
          :  # electrons                         2          :
          :  max. iterations                   250          :
          :  Hamiltonian                  GFN2-xTB          :
          :  restarted?                      false          :
          :  GBSA solvation                  false          :
          :  PC potential                    false          :
          :  electronic temp.          300.0000000     K    :
          :  accuracy                    1.0000000          :
          :  -> integral cutoff          0.2500000E+02      :
          :  -> integral neglect         0.1000000E-07      :
          :  -> SCF convergence          0.1000000E-05 Eh   :
          :  -> wf. convergence          0.1000000E-03 e    :
          :  Broyden damping             0.4000000          :
          ...................................................

 iter      E             dE          RMSdq      gap      omega  full diag
   1     -0.7869875 -0.786988E+00  0.134E-14    0.00       0.0  T
   2     -0.7869875  0.000000E+00  0.806E-15    0.00  100000.0  T
   3     -0.7869875  0.222045E-15  0.198E-14    0.00  100000.0  T

   *** convergence criteria satisfied after 3 iterations ***

         #    Occupation            Energy/Eh            Energy/eV
      -------------------------------------------------------------
         1        1.0000           -0.3967768             -10.7968
         2        1.0000           -0.3906286             -10.6295 (HOMO)
      -------------------------------------------------------------
                  HL-Gap            0.3647735 Eh            9.9260 eV
             Fermi-level                  NaN Eh               NaN eV

 transition dipole moment (au) for excitation:           1           2
     X       Y       Z   
   3.1161  -0.0000   0.0000  total (au/Debye):    3.116   7.921
 dE (eV)             :    0.167
 oscillator strength :  0.56286E-01

 SCC (total)                   0 d,  0 h,  0 min,  0.000 sec
 SCC setup                      ...        0 min,  0.000 sec ( 14.874%)
 Dispersion                     ...        0 min,  0.000 sec (  0.799%)
 integral evaluation            ...        0 min,  0.000 sec (  3.073%)
 zeroth order Hamiltonian       ...        0 min,  0.000 sec (  1.045%)
 iterations                     ...        0 min,  0.000 sec ( 58.758%)
 molecular gradient             ...        0 min,  0.000 sec (  9.096%)
 printout                       ...        0 min,  0.000 sec ( 10.817%)

         :::::::::::::::::::::::::::::::::::::::::::::::::::::
         ::                     SUMMARY                     ::
         :::::::::::::::::::::::::::::::::::::::::::::::::::::
         :: total energy              -0.786987344126 Eh    ::
         :: gradient norm              0.000161991878 Eh/a0 ::
         :: HOMO-LUMO gap              0.000000000000 eV    ::
         ::.................................................::
         :: SCC energy                -0.786987544112 Eh    ::
         :: -> isotropic ES            0.000000000000 Eh    ::
         :: -> anisotropic ES          0.000000000833 Eh    ::
         :: -> anisotropic XC          0.000000012332 Eh    ::
         :: -> dispersion             -0.000084288925 Eh    ::
         :: repulsion energy           0.000000199986 Eh    ::
         :: add. restraining           0.000000000000 Eh    ::
         :::::::::::::::::::::::::::::::::::::::::::::::::::::

           ------------------------------------------------- 
          |                Numerical Hessian                |
           ------------------------------------------------- 
step length          :   0.00500
SCC accuracy         :   0.30000
Hessian scale factor :   1.00000
frozen atoms in %    :   0.00000    0
RMS gradient         :   0.00016

writing file <hessian>.

 vibrational frequencies (cm-1)
eigval :        0.00     0.00     0.00     0.00     0.00   132.88
           -------------------------------------------------
          |                Property Printout                |
           -------------------------------------------------

    * Orbital Energies and Occupations

         #    Occupation            Energy/Eh            Energy/eV
Molecule has the following symmetry elements: (i) (Cinf) (C2) 2*(sigma) 
It seems to be the Dinfh point group
      -------------------------------------------------------------
         1        1.0000           -0.3967768             -10.7968
         2        1.0000           -0.3906286             -10.6295 (HOMO)
      -------------------------------------------------------------
                  HL-Gap            0.3647735 Eh            9.9260 eV
             Fermi-level                  NaN Eh               NaN eV

     #   Z        covCN         q      C6AA      α(0)
     1   1 H      0.000    -0.000     7.620     5.048
     2   1 H      0.000     0.000     7.620     5.048

 Mol. C6AA /au·bohr⁶  :         30.481899
 Mol. C8AA /au·bohr⁸  :        368.475859
 Mol. α(0) /au        :         10.095238


Wiberg/Mayer (AO) data.
largest (>0.10) Wiberg bond orders for each atom
          total WBO             WBO to atom ...
     1  H   0.000    
     2  H   0.000    

MOs/occ written to file <molden.input>


molecular dipole:
                 x           y           z       tot (Debye)
 q only:       -0.000       0.000       0.000
   full:       -0.000       0.000       0.000       0.000
molecular quadrupole (traceless):
                xx          xy          yy          xz          yz          zz
 q only:       -0.000       0.000       0.000       0.000      -0.000       0.000
  q+dip:       -0.004       0.000       0.002       0.000      -0.000       0.002
   full:       -0.002       0.000       0.001       0.000      -0.000       0.001

           -------------------------------------------------
          |                Geometry Summary                 |
           -------------------------------------------------

      molecular mass/u    :        2.0158815
   center of mass at/Å    :        0.0000000      -0.0000000       0.0000000
  moments of inertia/u·Å² :       -0.6027629E-15   0.5480905E+01   0.5480905E+01
rotational constants/cm⁻¹ :       -0.2796727E+17   0.3075703E+01   0.3075703E+01

           -------------------------------------------------
          |               Frequency Printout                |
           -------------------------------------------------
 vibrational frequencies (cm-1)
eigval :        0.00     0.00     0.00     0.00     0.00   132.88
 reduced masses (amu)
   1:  1.01   2:  1.01   3:  1.01   4:  1.01   5:  1.01   6:  1.01
 IR intensities (amu)
   1:  0.00   2:  0.00   3:  0.00   4:  0.00   5:  0.00   6:  0.00
 Raman intensities (amu)
   1:  0.00   2:  0.00   3:  0.00   4:  0.00   5:  0.00   6:  0.00
 output can be read by thermo (or use thermo option).
 writing <g98.out> molden fake output.
 recommended (thermochemical) frequency scaling factor: 1.0
           -------------------------------------------------
          |             Thermodynamic Functions             |
           -------------------------------------------------

din symmetry found (for desy threshold:  0.10E+00) used in thermo

          ...................................................
          :                      SETUP                      :
          :.................................................:
          :  # frequencies                           1      :
          :  # imaginary freq.                       0      :
          :  linear?                              true      :
          :  only rotor calc.                    false      :
          :  symmetry                              din      :
          :  rotational number                       2      :
          :  scaling factor                  1.0000000      :
          :  rotor cutoff                   50.0000000 cm⁻¹ :
          :  imag. cutoff                  -20.0000000 cm⁻¹ :
          :.................................................:

    mode    ω/cm⁻¹     T·S(HO)/kcal·mol⁻¹    T·S(FR)/kcal·mol⁻¹   T·S(vib)
   ------------------------------------------------------------------------
       1    132.88    -0.00000 ( 98.03%)     0.00835 (  1.97%)     0.00016
   ------------------------------------------------------------------------

   temp. (K)  partition function   enthalpy   heat capacity  entropy
                                   cal/mol     cal/K/mol   cal/K/mol   J/K/mol
 298.15  VIB   2.11                  422.696      1.921      2.897
         ROT   33.7                  592.502      1.987      8.977
         INT   71.2                 1015.198      3.908     11.873
         TR   0.277E+25             1481.254      4.968     28.068
         TOT                        2496.4518     8.8760    39.9414   167.1149

   temp. (K)  partition function   enthalpy   heat capacity  entropy
                                   cal/mol     cal/K/mol   cal/K/mol   J/K/mol
 120.00  VIB   1.26                   96.932      1.615      1.267
         ROT   13.6                  238.471      1.987      7.168
         INT   17.0                  335.404      3.603      8.435
         TR   0.707E+24              596.178      4.968     23.549
         TOT                         931.5817     8.5707    31.9834   133.8186

   temp. (K)  partition function   enthalpy   heat capacity  entropy
                                   cal/mol     cal/K/mol   cal/K/mol   J/K/mol
 100.00  VIB   1.17                   65.895      1.478      0.986
         ROT   11.3                  198.726      1.987      6.806
         INT   13.3                  264.621      3.466      7.792
         TR   0.538E+24              496.815      4.968     22.643
         TOT                         761.4363     8.4338    30.4352   127.3407

   temp. (K)  partition function   enthalpy   heat capacity  entropy
                                   cal/mol     cal/K/mol   cal/K/mol   J/K/mol
  80.00  VIB   1.10                   38.332      1.261      0.681
         ROT   9.04                  158.981      1.987      6.362
         INT   9.95                  197.313      3.248      7.044
         TR   0.385E+24              397.452      4.968     21.535
         TOT                         594.7645     8.2160    28.5787   119.5732

   temp. (K)  partition function   enthalpy   heat capacity  entropy
                                   cal/mol     cal/K/mol   cal/K/mol   J/K/mol
  60.00  VIB   1.04                   16.375      0.907      0.368
         ROT   6.78                  119.236      1.987      5.791
         INT   7.07                  135.610      2.894      6.159
         TR   0.250E+24              298.089      4.968     20.107
         TOT                         433.6993     7.8625    26.2656   109.8952

   temp. (K)  partition function   enthalpy   heat capacity  entropy
                                   cal/mol     cal/K/mol   cal/K/mol   J/K/mol
  40.00  VIB   1.01                    3.218      0.388      0.106
         ROT   4.52                   79.490      1.987      4.985
         INT   4.56                   82.708      2.375      5.091
         TR   0.136E+24              198.726      4.968     18.093
         TOT                         281.4343     7.3432    23.1840    97.0019

   temp. (K)  partition function   enthalpy   heat capacity  entropy
                                   cal/mol     cal/K/mol   cal/K/mol   J/K/mol
  20.00  VIB   1.00                    0.027      0.013     -0.001
         ROT   2.26                   39.745      1.987      3.607
         INT   2.26                   39.772      2.000      3.606
         TR   0.481E+23               99.363      4.968     14.651
         TOT                         139.1350     6.9682    18.2572    76.3881

   temp. (K)  partition function   enthalpy   heat capacity  entropy
                                   cal/mol     cal/K/mol   cal/K/mol   J/K/mol
  10.00  VIB   1.00                    0.000      0.000     -0.016
         ROT   1.13                   19.873      1.987      2.230
         INT   1.13                   19.873      1.987      2.214
         TR   0.170E+23               49.681      4.968     11.209
         TOT                          69.5541     6.9554    13.4228    56.1609

       T/K    H(0)-H(T)+PV         H(T)/Eh          T*S/Eh         G(T)/Eh
   ------------------------------------------------------------------------
    298.15    0.397835E-02    0.428108E-02    0.189775E-01   -0.146964E-01
    120.00    0.148457E-02    0.178730E-02    0.611626E-02   -0.432896E-02
    100.00    0.121343E-02    0.151615E-02    0.485015E-02   -0.333400E-02
     80.00    0.947818E-03    0.125055E-02    0.364344E-02   -0.239290E-02
     60.00    0.691144E-03    0.993872E-03    0.251141E-02   -0.151754E-02
     40.00    0.448494E-03    0.751223E-03    0.147784E-02   -0.726621E-03
     20.00    0.221726E-03    0.524454E-03    0.581894E-03   -0.574395E-04
     10.00    0.110842E-03    0.413570E-03    0.213905E-03    0.199665E-03 (used)
   ------------------------------------------------------------------------

         :::::::::::::::::::::::::::::::::::::::::::::::::::::
         ::                  THERMODYNAMIC                  ::
         :::::::::::::::::::::::::::::::::::::::::::::::::::::
         :: total free energy          -0.786787679460 Eh   ::
         ::.................................................::
         :: total energy               -0.786987344126 Eh   ::
         :: zero point energy           0.000302728621 Eh   ::
         :: G(RRHO) w/o ZPVE           -0.000103063955 Eh   ::
         :: G(RRHO) contrib.            0.000199664666 Eh   ::
         :::::::::::::::::::::::::::::::::::::::::::::::::::::

optimized geometry written to: xtbopt.xyz


           -------------------------------------------------
          | TOTAL ENERGY               -0.786987344126 Eh   |
          | TOTAL ENTHALPY             -0.786573773988 Eh   |
          | TOTAL FREE ENERGY          -0.786787679460 Eh   |
          | GRADIENT NORM               0.000161991878 Eh/α |
          | HOMO-LUMO GAP               9.925993435875 eV   |
           -------------------------------------------------

------------------------------------------------------------------------
 * finished run on 2020/05/13 at 16:20:26.839     
------------------------------------------------------------------------
 total:
 * wall-time:     0 d,  0 h,  0 min,  0.028 sec
 *  cpu-time:     0 d,  0 h,  0 min,  0.023 sec
 * ratio c/w:     0.818 speedup
 SCF:
 * wall-time:     0 d,  0 h,  0 min,  0.003 sec
 *  cpu-time:     0 d,  0 h,  0 min,  0.001 sec
 * ratio c/w:     0.469 speedup
 ANC optimizer:
 * wall-time:     0 d,  0 h,  0 min,  0.006 sec
 *  cpu-time:     0 d,  0 h,  0 min,  0.005 sec
 * ratio c/w:     0.844 speedup
 numerical hessian:
 * wall-time:     0 d,  0 h,  0 min,  0.002 sec
 *  cpu-time:     0 d,  0 h,  0 min,  0.002 sec
 * ratio c/w:     0.760 speedup

