$hessian                                                                        
        1.0780398075  -0.0093886032  -0.1628314525  -0.3618809541   0.0495599884
        0.0949248342  -0.2841660016  -0.0535722218  -0.0053904133  -0.5795687655
       -0.0144752517   0.0708489294   0.1475759138   0.0278760884   0.0024481022
       -0.0093886032   0.0394686750   0.0054521211   0.0383811383  -0.0088839129
       -0.0110452183   0.0129893467  -0.0192120720   0.0022803229  -0.0240509900
       -0.0188897655   0.0032580463  -0.0179308918   0.0075170753   0.0000547280
       -0.1628314525   0.0054521211   0.0634198340   0.0858311006  -0.0126610248
       -0.0259681334   0.0494587723   0.0122008586  -0.0216015609   0.0627788595
        0.0018185163  -0.0262517344  -0.0352372799  -0.0068104713   0.0104015947
       -0.3618809541   0.0383811383   0.0858311006   1.0943519967   0.0848014954
       -0.0927629809  -0.3600895778  -0.0938870342  -0.0249311907  -0.1863638311
       -0.0007668315   0.0272205403  -0.1860176336  -0.0285287679   0.0046425307
        0.0495599884  -0.0088839129  -0.0126610248   0.0848014954   0.0374387050
        0.0173854254  -0.1051004448  -0.0312763270  -0.0080919826  -0.0101441814
        0.0027719959   0.0021954280  -0.0191168576  -0.0000504611   0.0011721539
        0.0949248342  -0.0110452183  -0.0259681334  -0.0927629809   0.0173854254
        0.0296476127  -0.0340644052  -0.0097993875  -0.0056858555   0.0195793011
        0.0008481186  -0.0002651183   0.0123232508   0.0026110618   0.0022714946
       -0.2841660016   0.0129893467   0.0494587723  -0.3600895778  -0.1051004448
       -0.0340644052   1.0748971523   0.1713921028  -0.0136453978   0.1474237872
       -0.0064811223  -0.0255757078  -0.5780653600  -0.0727998825   0.0238267385
       -0.0535722218  -0.0192120720   0.0122008586  -0.0938870342  -0.0312763270
       -0.0097993875   0.1713921028   0.0676468267   0.0017102358   0.0392968326
        0.0093278419  -0.0070018018  -0.0632296793  -0.0264862696   0.0028900949
       -0.0053904133   0.0022803229  -0.0216015609  -0.0249311907  -0.0080919826
       -0.0056858555  -0.0136453978   0.0017102358   0.0381868104   0.0121562685
       -0.0002265551   0.0087759386   0.0318107333   0.0043279790  -0.0196753327
       -0.5795687655  -0.0240509900   0.0627788595  -0.1863638311  -0.0101441814
        0.0195793011   0.1474237872   0.0392968326   0.0121562685   0.7217610421
        0.0160412759  -0.0918343932  -0.1032522327  -0.0211429372  -0.0026800359
       -0.0144752517  -0.0188897655   0.0018185163  -0.0007668315   0.0027719959
        0.0008481186  -0.0064811223   0.0093278419  -0.0002265551   0.0160412759
        0.0103267354  -0.0022493709   0.0056819297  -0.0035368077  -0.0001907089
        0.0708489294   0.0032580463  -0.0262517344   0.0272205403   0.0021954280
       -0.0002651183  -0.0255757078  -0.0070018018   0.0087759386  -0.0918343932
       -0.0022493709   0.0218559604   0.0193406313   0.0037976984  -0.0041150464
        0.1475759138  -0.0179308918  -0.0352372799  -0.1860176336  -0.0191168576
        0.0123232508  -0.5780653600  -0.0632296793   0.0318107333  -0.1032522327
        0.0056819297   0.0193406313   0.7197593127   0.0945954992  -0.0282373354
        0.0278760884   0.0075170753  -0.0068104713  -0.0285287679  -0.0000504611
        0.0026110618  -0.0727998825  -0.0264862696   0.0043279790  -0.0211429372
       -0.0035368077   0.0037976984   0.0945954992   0.0225564631  -0.0039262679
        0.0024481022   0.0000547280   0.0104015947   0.0046425307   0.0011721539
        0.0022714946   0.0238267385   0.0028900949  -0.0196753327  -0.0026800359
       -0.0001907089  -0.0041150464  -0.0282373354  -0.0039262679   0.0111172897
