[Molden Format]
[Title]
[Atoms] AU
C      1     6  0.22935619517016E+01  0.15588017672646E+00 -0.21443809521502E+00
N      2     7 -0.25145323785227E-02  0.33121841069484E+00  0.27431730260991E+00
C      3     6 -0.22934419115095E+01 -0.20060898825994E+00  0.17450088859720E+00
C      4     6  0.46265264236817E+01  0.21670614553040E+00 -0.50848586123886E+00
C      5     6 -0.46241319314885E+01 -0.50319574468850E+00  0.27410765497272E+00
[GTO]
           1 0
 s           4   1.0000000000000000     
   51.049363095579913      -0.16312063210127389     
   8.7911227406887544      -0.19911024581000730     
  0.70640422258929825       0.31882047753655751     
  0.26922813413411617       0.12706504184240380     
 p           4   1.0000000000000000     
   5.8263656140800002       0.73716451545209605     
   1.5106896018720002       0.68216371614850257     
  0.53256483288000001       0.35783053929253711     
  0.21202323690600003        5.3983030275847881E-002

           2 0
 s           4   1.0000000000000000     
   63.594024466941008      -0.19234388414721629     
   10.951417231523665      -0.23478107924953728     
  0.87999310257376984       0.37593753901700888     
  0.33538715296521110       0.14982889271862770     
 p           4   1.0000000000000000     
   7.2965040481495080       0.97658666315667420     
   1.8918745450712575       0.90372226730345739     
  0.66694432110824120       0.47404958461536373     
  0.26552202674130870        7.1516067715011844E-002

           3 0
 s           4   1.0000000000000000     
   51.049363095579913      -0.16312063210127389     
   8.7911227406887544      -0.19911024581000730     
  0.70640422258929825       0.31882047753655751     
  0.26922813413411617       0.12706504184240380     
 p           4   1.0000000000000000     
   5.8263656140800002       0.73716451545209605     
   1.5106896018720002       0.68216371614850257     
  0.53256483288000001       0.35783053929253711     
  0.21202323690600003        5.3983030275847881E-002

           4 0
 s           4   1.0000000000000000     
   51.049363095579913      -0.16312063210127389     
   8.7911227406887544      -0.19911024581000730     
  0.70640422258929825       0.31882047753655751     
  0.26922813413411617       0.12706504184240380     
 p           4   1.0000000000000000     
   5.8263656140800002       0.73716451545209605     
   1.5106896018720002       0.68216371614850257     
  0.53256483288000001       0.35783053929253711     
  0.21202323690600003        5.3983030275847881E-002

           5 0
 s           4   1.0000000000000000     
   51.049363095579913      -0.16312063210127389     
   8.7911227406887544      -0.19911024581000730     
  0.70640422258929825       0.31882047753655751     
  0.26922813413411617       0.12706504184240380     
 p           4   1.0000000000000000     
   5.8263656140800002       0.73716451545209605     
   1.5106896018720002       0.68216371614850257     
  0.53256483288000001       0.35783053929253711     
  0.21202323690600003        5.3983030275847881E-002

[MO]
Sym=     1a
Ene=  -0.70197123674576956     
Spin= Alpha
Occup=     2.00000000
           1 -0.28122456444769262     
           2  0.16503469112826638     
           3  -4.6594670987210718E-004
           4  -2.5082003915789481E-002
           5 -0.61108782009015439     
           6  -4.2146692878520039E-004
           7   6.0348952689657988E-002
           8   5.0223648496577879E-002
           9 -0.28123405669186768     
          10 -0.16487124096012087     
          11  -2.6095966750011721E-002
          12   2.9124545518521574E-003
          13  -4.2313040279469916E-002
          14   4.6466910603076797E-002
          15   7.7943505607899906E-004
          16  -6.2537696892745786E-003
          17  -4.2296791705598434E-002
          18  -4.6403803275111198E-002
          19  -6.4472012182340286E-003
          20   1.6033698143163961E-003
Sym=     2a
Ene=  -0.67631637524434007     
Spin= Alpha
Occup=     2.00000000
           1 -0.40622276985566869     
           2  -7.7156187773214594E-003
           3  -1.8065536018195005E-002
           4  -1.4026780419659570E-002
           5   2.1438592012587174E-005
           6 -0.34779460310531080     
           7  -2.7047437269584251E-002
           8   2.9453157532754518E-002
           9  0.40615174006768406     
          10  -7.8728174866358261E-003
          11   1.6810387607564554E-002
          12   1.5258350220910500E-002
          13 -0.22883375381265245     
          14  0.11683783430517754     
          15   1.1548728789123250E-004
          16  -1.7195458596966411E-002
          17  0.22873032424460935     
          18  0.11661821117895722     
          19   1.8062950562837844E-002
          20  -2.5306157942482236E-003
Sym=     3a
Ene=  -0.65014823843674951     
Spin= Alpha
Occup=     2.00000000
           1 -0.26206772836256575     
           2 -0.24015206809045336     
           3  -5.4770952228183503E-005
           4   3.5469361739799546E-002
           5  0.16750463551068531     
           6   6.5929030081887358E-006
           7   3.7971447865255991E-003
           8   2.8887013788364111E-003
           9 -0.26219501961270025     
          10  0.23982981727486699     
          11   3.7314614706427641E-002
          12  -5.1007059040343054E-003
          13 -0.38339183097059232     
          14  0.13019556516031011     
          15   3.8782110038360755E-003
          16  -1.6008540292652095E-002
          17 -0.38349380320363302     
          18 -0.13009169945745391     
          19  -1.6409829574362631E-002
          20   5.9532732221520010E-003
Sym=     4a
Ene=  -0.61836665392382151     
Spin= Alpha
Occup=     2.00000000
           1  -3.9980950023118716E-002
           2  0.32740332007972417     
           3  -2.4346309012777737E-002
           4  -6.8829588444400222E-002
           5  -8.7193725542189920E-006
           6 -0.40403690735490683     
           7  -3.1351055421839302E-002
           8   3.4346513373460695E-002
           9   3.9985123633547802E-002
          10  0.32658302734846845     
          11   7.5274577334491291E-002
          12   1.3564640227560570E-002
          13  0.35249583959797109     
          14  -5.4663678230219323E-002
          15  -8.6449783988367182E-003
          16   8.3214790128289845E-004
          17 -0.35250114532149701     
          18  -5.4703686884089428E-002
          19   1.1303260132165092E-004
          20   8.3815536140318531E-003
Sym=     5a
Ene=  -0.56654202083927208     
Spin= Alpha
Occup=     2.00000000
           1  -4.2874842086188973E-004
           2   4.1167968748009043E-002
           3 -0.22859333799613027     
           4  0.27678911709554616     
           5   5.6533876494270431E-004
           6   7.5892962213289866E-002
           7 -0.42062820827187286     
           8  0.50929160494428460     
           9  -3.6499263964147717E-004
          10   4.1215173250419158E-002
          11 -0.22860663526294472     
          12  0.27678475211495568     
          13  -1.8845322320605664E-006
          14   1.4277219175775503E-002
          15  -7.9374325909113821E-002
          16   9.6115936251174525E-002
          17   4.7778298591881935E-005
          18   1.4331612400067801E-002
          19  -7.9353346680667194E-002
          20   9.6083787219157682E-002
Sym=     6a
Ene=  -0.56578603678088335     
Spin= Alpha
Occup=     2.00000000
           1   3.2715581996752292E-002
           2  -5.8468646444263993E-002
           3 -0.27581363616980914     
           4 -0.21903952493765763     
           5 -0.15748683718016895     
           6   3.7874663603574207E-003
           7 -0.50429950832257631     
           8 -0.41696860625662424     
           9   3.2568980560374779E-002
          10   6.2809132245936303E-002
          11 -0.26636157894235946     
          12 -0.22929306787938067     
          13  -3.3677436750929726E-002
          14  -1.3160766710621670E-002
          15  -9.6269435722990807E-002
          16  -7.7523274916014670E-002
          17  -3.3804998652695435E-002
          18   1.4667659103328859E-002
          19  -9.4073643452093847E-002
          20  -7.9856210533637811E-002
Sym=     7a
Ene=  -0.46880007804062451     
Spin= Alpha
Occup=     2.00000000
           1  -7.6036250560710034E-002
           2   5.4180650090216491E-002
           3  0.36236318427842584     
           4  0.30171277203064145     
           5   5.7192589145105955E-005
           6   1.7571066925472986E-002
           7   1.2733682230455299E-003
           8  -1.5790950728437941E-003
           9   7.5636863694870701E-002
          10   5.8092404701758214E-002
          11 -0.35361501694260616     
          12 -0.31121135679820644     
          13   9.6755856874917015E-002
          14  0.10386180780554546     
          15  0.30814494447713608     
          16  0.24798752881640299     
          17  -9.6224470111776983E-002
          18  0.10678318539757793     
          19 -0.29165347836842148     
          20 -0.26571932791780617     
Sym=     8a
Ene=  -0.46830915872392476     
Spin= Alpha
Occup=     2.00000000
           1   6.0206040390193020E-004
           2   5.4087055266070938E-002
           3 -0.31254303107636050     
           4  0.36595625851139596     
           5   3.7006517282285661E-005
           6  -7.8693517587472055E-005
           7   4.9496538711873099E-005
           8  -6.8478050485616207E-005
           9  -7.7152299012484774E-004
          10  -5.6420403546665006E-002
          11  0.31232169903726958     
          12 -0.36572929469098459     
          13  -8.1730296104033521E-004
          14   4.5440112294845333E-002
          15 -0.26551038768313490     
          16  0.31092428656464344     
          17   1.0445763808252736E-003
          18  -4.8555200487205602E-002
          19  0.26514186709468568     
          20 -0.31054307768921297     
Sym=     9a
Ene=  -0.44469727521263192     
Spin= Alpha
Occup=     1.99976965
           1  0.18992803542601100     
           2   7.6176669486941725E-002
           3   3.2670368403095118E-002
           4   1.5783481052018964E-002
           5 -0.20109440970647852     
           6   8.1555973045727212E-006
           7   1.3693456443551631E-002
           8   1.2024257591953703E-002
           9  0.19010478214376725     
          10  -7.6663611877477750E-002
          11   2.0585210863521969E-002
          12   2.8272955759826874E-002
          13 -0.48396472803216861     
          14 -0.44785228256149734     
          15   2.4245038902785170E-002
          16   8.6191358889104841E-002
          17 -0.48430506762829545     
          18  0.44713349024922500     
          19   9.3791693464216411E-002
          20   1.0180175619697817E-002
Sym=    10a
Ene=  -0.42878279996826585     
Spin= Alpha
Occup=     1.00023035
           1 -0.10011927440749713     
           2 -0.16588283905046444     
           3  -5.7298425716256082E-002
           4  -2.3419981130558588E-002
           5   2.2457627653419271E-005
           6  0.19222798385466586     
           7   1.4836187960341488E-002
           8  -1.6510834066688535E-002
           9  0.10008685017189850     
          10 -0.16640746773880971     
          11   3.1515500982172928E-002
          12   5.1692374521830946E-002
          13  0.44038375368797017     
          14  0.47155715315815799     
          15  -6.4382653567821968E-002
          16 -0.12360094918508246     
          17 -0.44011420391073547     
          18  0.46966199898874672     
          19  0.13783727306993601     
          20   4.4439878287698069E-002
Sym=    11a
Ene=  -0.39808316476896355     
Spin= Alpha
Occup=     1.00000000
           1  -1.0334142694295617E-002
           2   2.0588659783701713E-002
           3 -0.15579333317999092     
           4 -0.13282205591176566     
           5  0.13268824034978044     
           6  -2.7810758959637949E-003
           7  0.41404065956097408     
           8  0.34537660547418503     
           9  -1.0316755215511723E-002
          10  -1.8395787969273079E-002
          11 -0.15893416192508264     
          12 -0.12962323888762017     
          13  -3.4986165472586317E-002
          14  -8.3046522435606215E-002
          15 -0.42164883774978523     
          16 -0.33898135252050265     
          17  -3.5247956050565299E-002
          18   8.9678465710217856E-002
          19 -0.40821494532626390     
          20 -0.35360012564999554     
Sym=    12a
Ene=  -0.39429056888596076     
Spin= Alpha
Occup=     1.00000000
           1   7.1628249621617392E-006
           2   2.1408471908868028E-002
           3 -0.11946711046937655     
           4  0.14343238800488434     
           5  -1.3515568082187476E-004
           6  -6.3010779806962972E-002
           7  0.35081983378307047     
           8 -0.42102781299244474     
           9   7.4790753068415849E-006
          10   2.1523458331293922E-002
          11 -0.11956744853916025     
          12  0.14353362493200808     
          13  -2.8304934801714527E-004
          14   6.2437979311589106E-002
          15 -0.35467442636454816     
          16  0.42591577190157209     
          17  -1.7879365312523741E-004
          18   6.4559537935015551E-002
          19 -0.35465533592377879     
          20  0.42581851052099134     
Sym=    13a
Ene=  -0.22459888385674606     
Spin= Alpha
Occup=     0.00000000
           1  -7.8221095835094220E-002
           2  0.10077445901602065     
           3  0.42092388543250592     
           4  0.34171467344879525     
           5   2.1545934486447138E-004
           6   4.2392137213629673E-002
           7   3.2906164265078192E-003
           8  -3.6220292908078805E-003
           9   7.7756792353199211E-002
          10  0.10555908597640976     
          11 -0.40494757187066627     
          12 -0.35921545341716810     
          13  -9.2645079758846335E-003
          14  -7.7776784504266228E-002
          15 -0.46172057014887569     
          16 -0.37969191198173652     
          17   9.2138411897038659E-003
          18  -8.3238209126384508E-002
          19  0.44924863533062559     
          20  0.39334370442550176     
Sym=    14a
Ene=  -0.22251925232725897     
Spin= Alpha
Occup=     0.00000000
           1   2.7885410626066984E-004
           2   6.2306355906876144E-002
           3 -0.35769175279670956     
           4  0.42224243114390575     
           5   8.0314425988907401E-005
           6  -6.3717256711061276E-005
           7  -6.8739622664582825E-005
           8   5.1984347019498378E-005
           9  -4.5992397557908214E-004
          10  -6.4852311120464384E-002
          11  0.35752124660871815     
          12 -0.42209486594692686     
          13   2.3724835016918398E-005
          14  -6.7743342624473554E-002
          15  0.38834630615595145     
          16 -0.45842262682650853     
          17  -4.1512087691752431E-005
          18   7.0247725169419725E-002
          19 -0.38816064853769372     
          20  0.45825349660796383     
Sym=    15a
Ene=  -0.13475443497845443     
Spin= Alpha
Occup=     0.00000000
           1  -4.9597926022197709E-002
           2  -5.5455799678567723E-003
           3 -0.49179924663517721     
           4 -0.40687889242249969     
           5  0.18969475869310209     
           6  -3.1877684943695285E-003
           7  0.41591068648805901     
           8  0.34512705831582347     
           9  -4.9972146163636842E-002
          10   1.3001104058146494E-002
          11 -0.49032179943980719     
          12 -0.40837836032404307     
          13   4.9421024839891798E-003
          14  -2.7995114125133284E-003
          15  0.36255291433426123     
          16  0.30096600618844238     
          17   4.9693028457540043E-003
          18  -2.6493656337229169E-003
          19  0.36251180952988005     
          20  0.30088005956120922     
Sym=    16a
Ene=  -0.12232249040034686     
Spin= Alpha
Occup=     0.00000000
           1   1.0930280113852296E-003
           2  -7.3519236963196399E-002
           3  0.40863562350644816     
           4 -0.49298894030767615     
           5  -6.8038168236169664E-004
           6   6.8694815948905766E-002
           7 -0.38169790658847552     
           8  0.46090735078629752     
           9   9.4395735523594335E-004
          10  -7.3478262577156062E-002
          11  0.40855354194204019     
          12 -0.49295448652495644     
          13  -9.5568800625227049E-005
          14   5.2353874435504447E-002
          15 -0.28998693288602378     
          16  0.34981804474418970     
          17  -8.1872956154537631E-005
          18   5.1985205963530713E-002
          19 -0.28992491619534672     
          20  0.34979053668352322     
Sym=    17a
Ene=    6.6258175839668434E-002
Spin= Alpha
Occup=     0.00000000
           1  0.71937507751582064     
           2 -0.30470441714499075     
           3  -3.6250229970313297E-002
           4   1.6932145648020251E-002
           5 -0.89084754474099026     
           6  -1.7544517448827967E-003
           7  0.23322168724911455     
           8  0.19308688892482273     
           9  0.71947910002946069     
          10  0.30510848064532736     
          11   1.0893319529113493E-002
          12  -3.5235923501046242E-002
          13 -0.15022344109102478     
          14  0.38434882070434079     
          15   2.2989401481366131E-002
          16  -3.8666008760595331E-002
          17 -0.15028941729255912     
          18 -0.38441884266911092     
          19  -3.6738663369918927E-002
          20   2.6560514357831869E-002
Sym=    18a
Ene=   0.46554214865356836     
Spin= Alpha
Occup=     0.00000000
           1  0.89146606326639100     
           2   5.6902710081426354E-002
           3   9.5673575244788853E-002
           4   7.2054028534008732E-002
           5  -2.6082786589600284E-004
           6 -0.81004168960055922     
           7  -6.2974524404331489E-002
           8   6.8584587110270462E-002
           9 -0.89156693544001009     
          10   5.8568947004745402E-002
          11  -8.6393653662605999E-002
          12  -8.1289127218608440E-002
          13 -0.38076961347568539     
          14  0.53717229893009666     
          15  -1.7850878163436324E-002
          16  -9.4491798933915336E-002
          17  0.38102576011650341     
          18  0.53647824511499809     
          19  0.10143873930982665     
          20   3.7098554258907443E-003
Sym=    19a
Ene=    1.0477809779108656     
Spin= Alpha
Occup=     0.00000000
           1 -0.37201164510673751     
           2 -0.95463179401678300     
           3  -1.9922159034437368E-002
           4  0.12489879200086440     
           5 -0.73060370104888095     
           6  -5.9708293832639529E-004
           7  0.13698453133513941     
           8  0.11442330931426369     
           9 -0.37137512494614161     
          10  0.95374889010257069     
          11  0.12871762076380688     
          12  -3.6384293831107965E-002
          13  0.64301759461368191     
          14 -0.65938016072736705     
          15  -1.8843148230153033E-002
          16   8.1603909223465554E-002
          17  0.64278634242558974     
          18  0.65844502662677229     
          19   8.3854778215850037E-002
          20  -2.9585592081450198E-002
Sym=    20a
Ene=    1.3319817273146282     
Spin= Alpha
Occup=     0.00000000
           1  -6.2557924352284466E-002
           2   1.0788185888145940     
           3  -6.5642978546406688E-002
           4 -0.21492445434891111     
           5  -6.8489464538677640E-005
           6   1.0722732404404305     
           7   8.3299919989598722E-002
           8  -9.0996054170886798E-002
           9   6.2812451426712074E-002
          10   1.0764115500319973     
          11  0.23335438845645362     
          12   3.2575469469940901E-002
          13 -0.55775204895254593     
          14  0.52266819170588563     
          15   3.7993610948654347E-002
          16  -4.5369816600318240E-002
          17  0.55758563344719869     
          18  0.52230682000434059     
          19   4.3485631107142181E-002
          20  -4.2735285222906531E-002
