[Molden Format]
[Title]
[Atoms] AU
C      1     6 -0.31446258003001E+01  0.31996182899200E-01 -0.59076434356145E-01
C      2     6 -0.92913338645635E+00 -0.56069499946528E+00 -0.13739201756396E+01
N      3     7  0.13815102112002E+01 -0.80513573902791E-02  0.24137742771069E-01
C      4     6 -0.97296743859387E+00  0.29703012386211E+00  0.14248881037981E+01
C      5     6  0.36652145244308E+01  0.23972005010745E+00 -0.16027346840901E-01
[GTO]
           1 0
 s           4   1.0000000000000000     
   51.049363095579913      -0.16312063210127389     
   8.7911227406887544      -0.19911024581000730     
  0.70640422258929825       0.31882047753655751     
  0.26922813413411617       0.12706504184240380     
 p           4   1.0000000000000000     
   5.8263656140800002       0.73716451545209605     
   1.5106896018720002       0.68216371614850257     
  0.53256483288000001       0.35783053929253711     
  0.21202323690600003        5.3983030275847881E-002

           2 0
 s           4   1.0000000000000000     
   51.049363095579913      -0.16312063210127389     
   8.7911227406887544      -0.19911024581000730     
  0.70640422258929825       0.31882047753655751     
  0.26922813413411617       0.12706504184240380     
 p           4   1.0000000000000000     
   5.8263656140800002       0.73716451545209605     
   1.5106896018720002       0.68216371614850257     
  0.53256483288000001       0.35783053929253711     
  0.21202323690600003        5.3983030275847881E-002

           3 0
 s           4   1.0000000000000000     
   63.594024466941008      -0.19234388414721629     
   10.951417231523665      -0.23478107924953728     
  0.87999310257376984       0.37593753901700888     
  0.33538715296521110       0.14982889271862770     
 p           4   1.0000000000000000     
   7.2965040481495080       0.97658666315667420     
   1.8918745450712575       0.90372226730345739     
  0.66694432110824120       0.47404958461536373     
  0.26552202674130870        7.1516067715011844E-002

           4 0
 s           4   1.0000000000000000     
   51.049363095579913      -0.16312063210127389     
   8.7911227406887544      -0.19911024581000730     
  0.70640422258929825       0.31882047753655751     
  0.26922813413411617       0.12706504184240380     
 p           4   1.0000000000000000     
   5.8263656140800002       0.73716451545209605     
   1.5106896018720002       0.68216371614850257     
  0.53256483288000001       0.35783053929253711     
  0.21202323690600003        5.3983030275847881E-002

           5 0
 s           4   1.0000000000000000     
   51.049363095579913      -0.16312063210127389     
   8.7911227406887544      -0.19911024581000730     
  0.70640422258929825       0.31882047753655751     
  0.26922813413411617       0.12706504184240380     
 p           4   1.0000000000000000     
   5.8263656140800002       0.73716451545209605     
   1.5106896018720002       0.68216371614850257     
  0.53256483288000001       0.35783053929253711     
  0.21202323690600003        5.3983030275847881E-002

[MO]
Sym=     1a
Ene=  -0.76644846140740508     
Spin= Alpha
Occup=     2.00000000
           1 -0.17274720802112356     
           2  -9.9317304778247975E-002
           3   5.1037791268447510E-003
           4  -3.1198742597455136E-003
           5 -0.32748151989590468     
           6  -5.9379491302861111E-002
           7  -5.4735298571196814E-002
           8 -0.14866832256649479     
           9 -0.37350091806586477     
          10  0.22235704995478098     
          11   5.6923072969800896E-003
          12   1.7399066615673042E-003
          13 -0.32748870523887641     
          14  -6.4094558099505775E-002
          15   3.7420188097923260E-002
          16  0.15204223592012392     
          17  -3.4812872407739129E-002
          18   4.5116319936272083E-002
          19   2.4490856763577633E-003
          20  -4.3681565499718732E-005
Sym=     2a
Ene=  -0.72108523921924161     
Spin= Alpha
Occup=     2.00000000
           1 -0.17605139279693327     
           2  -6.1621113222521479E-002
           3   6.3675882881263851E-003
           4  -2.9167944276640456E-003
           5 -0.10520869407040427     
           6  0.11482690654508919     
           7  -9.8955715656298179E-003
           8  -4.1553730202894927E-002
           9  0.46279669642122917     
          10  0.26746675758625810     
          11   2.5247258452005518E-002
          12  -3.5434235268944616E-003
          13 -0.10520461226883662     
          14  0.11350560015954519     
          15   1.6088892956175421E-002
          16   4.3233882849199268E-002
          17  0.43688627579177919     
          18 -0.17729127420404392     
          19  -1.9819113665941770E-002
          20   3.2982234847322147E-003
Sym=     3a
Ene=  -0.66672826454149736     
Spin= Alpha
Occup=     2.00000000
           1 -0.44098261328890875     
           2  -8.2638916857574157E-002
           3   1.0053305078544014E-002
           4  -4.3709386585397466E-003
           5  -6.5460212508645324E-002
           6  0.29762107109258495     
           7  -1.7009740279879639E-002
           8  -9.1192912508707528E-003
           9  0.13346544791090484     
          10 -0.36035845859881521     
          11  -5.2816632081865218E-002
          12   1.0574447138346339E-002
          13  -6.5413339459749878E-002
          14  0.29710316112671015     
          15  -6.3654693170888997E-003
          16   2.5610781439000554E-002
          17 -0.32722272087871479     
          18   4.6729400385982188E-002
          19   2.0033839996183543E-003
          20   1.2576645505465780E-004
Sym=     4a
Ene=  -0.64339851405449811     
Spin= Alpha
Occup=     2.00000000
           1   3.2231666465829326E-005
           2  -1.6762464080627456E-003
           3   3.2870082903013492E-002
           4  0.10725770033653108     
           5 -0.38738582971751478     
           6 -0.13995014105985473     
           7   2.4103631036434672E-002
           8  0.11806941481385134     
           9  -8.4503240381993394E-006
          10  -8.6585397912410898E-003
          11  0.16971421457003597     
          12  0.55376985432647619     
          13  0.38739416669789900     
          14  0.13625216273132804     
          15   4.7410262846212220E-002
          16  0.11526956483571747     
          17   1.5080208461812236E-005
          18  -2.5567965935153871E-003
          19   5.0012683682388023E-002
          20  0.16319111665088884     
Sym=     5a
Ene=  -0.60640184365138694     
Spin= Alpha
Occup=     2.00000000
           1   1.0178241785130380E-002
           2  -5.9651016619944909E-003
           3 -0.14812642869243350     
           4   4.5301414287152328E-002
           5   1.9740847990264081E-002
           6  -1.2850037639064076E-002
           7 -0.31135791201368040     
           8  0.10382499944856841     
           9   1.0854457935128533E-002
          10   7.0279072523895147E-002
          11 -0.62111648743008496     
          12  0.19145188705168714     
          13   1.9743784656982313E-002
          14  -1.2601751945489015E-002
          15 -0.31619383708738374     
          16   8.8097534266678740E-002
          17   1.5965565554630804E-002
          18   2.3764489003571258E-002
          19 -0.23407578744736210     
          20   7.2108476735069260E-002
Sym=     6a
Ene=  -0.57083047147011989     
Spin= Alpha
Occup=     2.00000000
           1  -4.3646862993625024E-006
           2  -6.4267618588466279E-003
           3  0.12574959898546095     
           4  0.41032963710270670     
           5 -0.32118361462283562     
           6  0.29978178102230268     
           7   3.7901967421004483E-002
           8  0.13905127081611929     
           9   1.1537386931008180E-006
          10   4.9601589904004224E-003
          11  -9.7063630088012651E-002
          12 -0.31672193223448974     
          13  0.32117407659918179     
          14 -0.30395813102634689     
          15   4.3863072490700032E-002
          16  0.12775824738826946     
          17   2.1434225355875942E-006
          18   2.4564908103312344E-003
          19  -4.8070582063082783E-002
          20 -0.15685579682439726     
Sym=     7a
Ene=  -0.50029764323543691     
Spin= Alpha
Occup=     2.00000000
           1  0.31707672290689792     
           2 -0.18368280521403438     
           3  0.19552202699463983     
           4  -6.2797909757880480E-002
           5 -0.15155980297870839     
           6  -5.2310389544958952E-002
           7  0.16951941620553218     
           8  -5.0132980538435831E-002
           9  0.26888442512761279     
          10  0.10524241167334415     
          11 -0.18587420365416957     
          12   5.8606113996356707E-002
          13 -0.15155807187086628     
          14  -5.2231365902633657E-002
          15  0.16803985691842432     
          16  -5.4951847670089871E-002
          17 -0.58332970251876981     
          18 -0.43293947486860646     
          19 -0.22225576684389892     
          20   6.1327757367117298E-002
Sym=     8a
Ene=  -0.49070891103984760     
Spin= Alpha
Occup=     2.00000000
           1  -8.5153547529103243E-002
           2   9.2738909541389095E-002
           3  0.38831144567616638     
           4 -0.11754936454261711     
           5   4.4849708805703360E-002
           6   4.3317899277898787E-002
           7  0.31968718395176654     
           8 -0.10137580873590357     
           9 -0.12189117589561994     
          10  -4.3185392899385604E-002
          11 -0.36389682655359590     
          12  0.11084534216544104     
          13   4.4849675436506906E-002
          14   4.3199842991249647E-002
          15  0.32196849549559314     
          16  -9.3911706262672742E-002
          17  0.32078582802635153     
          18  0.31605419953032549     
          19 -0.31810028183507477     
          20  0.10243630222750685     
Sym=     9a
Ene=  -0.47022129963974485     
Spin= Alpha
Occup=     2.00000000
           1  0.14919514501054104     
           2 -0.12437118058465876     
           3  -1.3862668228661661E-002
           4   2.2895131498586259E-003
           5 -0.43473367653462175     
           6   1.0011614880192424E-002
           7  0.13588131266940598     
           8  0.50581804864629354     
           9   2.6152565733627068E-002
          10 -0.10088951681269681     
          11   4.7599498141728076E-003
          12  -3.0392198356692852E-003
          13 -0.43471414108143186     
          14   2.5707311765237134E-002
          15 -0.17070319888533067     
          16 -0.49458143590071302     
          17  0.13923110633385255     
          18  0.15189674934289321     
          19   3.5471570428054162E-002
          20  -8.4902906322983866E-003
Sym=    10a
Ene=  -0.44023482353400833     
Spin= Alpha
Occup=     1.99999998
           1  0.57585878539476532     
           2 -0.61815621889723849     
           3   6.3912327288167127E-004
           4  -9.8844035110811218E-003
           5   3.6124173174957482E-002
           6  0.14331085933118859     
           7  -9.0818328640654825E-002
           8 -0.17990001224371516     
           9   8.7899630790499866E-002
          10 -0.21898067171475968     
          11  -4.8791814138050669E-004
          12  -3.2929331544284822E-003
          13   3.6131139932189985E-002
          14  0.13731164748568928     
          15   2.6804304858131931E-002
          16  0.20391928916959523     
          17  0.20197169886014335     
          18  0.25976315170346181     
          19   7.8783639034314443E-002
          20  -2.0102597397765081E-002
Sym=    11a
Ene=  -0.40683549540506381     
Spin= Alpha
Occup=     1.00000002
           1   2.0116875181310996E-005
           2  -5.1545210761537678E-003
           3  0.10036474581277924     
           4  0.32749109478782334     
           5  0.23654391768024993     
           6  0.27594899565386788     
           7 -0.16724866945181599     
           8 -0.17223094615249537     
           9   4.2917563198307424E-007
          10  -2.2055487096148524E-003
          11   4.3106234458997847E-002
          12  0.14066053630900774     
          13 -0.23654683548682620     
          14 -0.26939855770559484     
          15   3.9629369503434174E-002
          16 -0.24418809182653506     
          17   1.3948168396548172E-006
          18  -1.0664818682305214E-002
          19  0.20876622943370735     
          20  0.68122038003679797     
Sym=    12a
Ene=  -0.36060994922864403     
Spin= Alpha
Occup=     0.00000000
           1  -1.6838015708189204E-006
           2  -1.8607709873090801E-004
           3   3.6449963363899092E-003
           4   1.1951628289153486E-002
           5   8.7746692599944068E-003
           6  -5.3687343125669952E-002
           7 -0.71754019320067131     
           8  0.20373075682889932     
           9   1.3057845744750834E-006
          10  -4.7740915924750151E-004
          11   9.3069012053002952E-003
          12   3.0337375901948117E-002
          13  -8.7774255574735657E-003
          14   5.4121602930121027E-002
          15  0.70895457993697242     
          16 -0.23174481207594280     
          17   3.4581366008060475E-007
          18   2.9667446655586454E-003
          19  -5.7977216220433919E-002
          20 -0.18904102228610534     
Sym=    13a
Ene=  -0.31964598147562717     
Spin= Alpha
Occup=     0.00000000
           1   6.3035622503843725E-003
           2   5.8684042461096687E-002
           3  0.62389368752890995     
           4 -0.19027669457528618     
           5   7.2310399012393009E-003
           6  -3.4197430264445322E-003
           7 -0.17696370290343907     
           8   6.3103938246238320E-002
           9  -1.1788922388170427E-002
          10   5.2328746866687148E-002
          11 -0.35538255617879527     
          12  0.10973527865930860     
          13   7.2285966823287381E-003
          14  -3.1604840087320614E-003
          15 -0.18190632826744424     
          16   4.6768096164824004E-002
          17  -1.2300423317556334E-003
          18  -9.5132274451998719E-002
          19  0.70006128045631866     
          20 -0.21604191840649553     
Sym=    14a
Ene=  -0.27273943884217167     
Spin= Alpha
Occup=     0.00000000
           1   1.3408714233980900E-006
           2  -7.0074123017061759E-003
           3  0.13717122116430280     
           4  0.44762712768401763     
           5  0.13945733402909841     
           6  -1.3472594460049961E-003
           7  -2.4210869030857510E-002
           8 -0.46063350440029699     
           9   1.1520692869297713E-006
          10  -7.8221034077719485E-003
          11  0.15304671719990767     
          12  0.49940522252352104     
          13 -0.13946939116525897     
          14   1.4748851020884099E-002
          15 -0.23796451691797921     
          16 -0.39489072980196799     
          17  -7.6418349415094622E-008
          18   9.1831964946672753E-003
          19 -0.17969237841467392     
          20 -0.58635237948319929     
Sym=    15a
Ene=  -0.22846128267534818     
Spin= Alpha
Occup=     0.00000000
           1  -1.0311089104982310E-002
           2   1.8947936913666936E-002
           3 -0.60751261147556457     
           4  0.18647475252692267     
           5  -4.2777359763360667E-002
           6  -2.9548272988808834E-002
           7  0.40769648106288242     
           8 -0.16064649212418136     
           9   8.8493589900651051E-002
          10   3.2360740096666024E-003
          11 -0.55872551622858324     
          12  0.17127108870712590     
          13  -4.2776982625746904E-002
          14  -3.0555187708628934E-002
          15  0.42746318827245461     
          16  -9.6235980113175468E-002
          17  -1.3398174692773729E-003
          18  -4.7906825544983180E-003
          19  0.50779568026196376     
          20 -0.15568835884451060     
Sym=    16a
Ene=   -5.1371027310604320E-002
Spin= Alpha
Occup=     0.00000000
           1  -7.5063498962928054E-003
           2 -0.31810224289687988     
           3  -5.8846053945244108E-002
           4   1.3003855622021046E-002
           5  0.34666864121830265     
           6  0.41619535445075856     
           7  0.15196647423014592     
           8  0.24158223114309280     
           9 -0.94759380517100322     
          10  0.41459033075747848     
          11  -4.0197010269325609E-002
          12   1.8903405025123929E-002
          13  0.34660860137284488     
          14  0.42414137438852267     
          15  -5.7584909709976831E-003
          16 -0.27310070144796961     
          17  0.12273419393421697     
          18 -0.43693585620469094     
          19  -5.0458930969520715E-003
          20  -5.3421660900271738E-003
Sym=    17a
Ene=    7.2572213201251762E-002
Spin= Alpha
Occup=     0.00000000
           1   2.2828936753041404E-005
           2   5.4885702172337595E-003
           3 -0.10632572159224521     
           4 -0.34695660994985295     
           5  0.36212233623947249     
           6  0.59040059116739840     
           7  0.14367864788639723     
           8  0.46576351696521867     
           9   1.3888443815582744E-004
          10  -1.0601356145722080E-002
          11  0.20676884761466549     
          12  0.67467903285916797     
          13 -0.36222661180634264     
          14 -0.60479486138674243     
          15  0.13671533160104421     
          16  0.44923553616627088     
          17  -3.4283805264027385E-005
          18   4.3491585255942935E-003
          19  -8.3604086535734923E-002
          20 -0.27282008309636169     
Sym=    18a
Ene=   0.17133556814058715     
Spin= Alpha
Occup=     0.00000000
           1  -2.8801666892859267E-006
           2  -1.1872601099916441E-002
           3  0.23225154943009957     
           4  0.75784936738165976     
           5  0.59601340680600567     
           6 -0.46642238489775073     
           7  0.19715625048561605     
           8  0.52899707715813060     
           9   2.7047293442770131E-006
          10   9.0551415836312085E-004
          11  -1.7637309974260492E-002
          12  -5.7556718846067230E-002
          13 -0.59600872017387752     
          14  0.44933604002068905     
          15  0.13711095521052449     
          16  0.56173679208349947     
          17  -4.2941584670681054E-006
          18   8.9392608594287051E-006
          19  -4.9223335000660864E-005
          20  -1.6143452111482250E-004
Sym=    19a
Ene=   0.38449465166492902     
Spin= Alpha
Occup=     0.00000000
           1  0.89533092182264318     
           2  0.93605588393632089     
           3  -7.2909370335461743E-002
           4   3.7015632684671958E-002
           5 -0.38654026601301456     
           6  0.62857727519702400     
           7 -0.11093553037027659     
           8 -0.21081415366485709     
           9 -0.15296816509172939     
          10  0.11902781855212734     
          11   3.3388511643942027E-002
          12  -8.3935212852776671E-003
          13 -0.38652145829879347     
          14  0.62132748228788892     
          15   3.1711545035996991E-002
          16  0.25465142007359820     
          17  -4.3945664698734170E-002
          18   4.1087257842658681E-002
          19  -2.6251937205212599E-003
          20   1.4561073887478775E-003
Sym=    20a
Ene=   0.68625352792789351     
Spin= Alpha
Occup=     0.00000000
           1   4.6008820132737861E-002
           2  0.11194716724955682     
           3  -1.6446140849530890E-003
           4   2.2526705213209279E-003
           5 -0.23510890910586513     
           6 -0.16939548653108716     
           7  -5.6724184169078859E-002
           8 -0.15236369998619489     
           9 -0.53410205947901324     
          10  -1.1795410128977415     
          11 -0.10984328246494912     
          12   1.5206543090949881E-002
          13 -0.23515346603474929     
          14 -0.17421917750311880     
          15   3.6885882808982043E-002
          16  0.15309473814608174     
          17  0.80900921843960016     
          18 -0.97672071934703042     
          19 -0.11058140678338912     
          20   1.8587074337569773E-002
