      -----------------------------------------------------------      
     |                   =====================                   |     
     |                           x T B                           |     
     |                   =====================                   |     
     |                         S. Grimme                         |     
     |          Mulliken Center for Theoretical Chemistry        |     
     |                    University of Bonn                     |     
      -----------------------------------------------------------      

   * xtb version 6.2.2 (9d81278992624c895f80dd42a50cac0aa55982e2) compiled by '@Darwin' on 04/03/2020

   xtb is free software: you can redistribute it and/or modify it under
   the terms of the GNU Lesser General Public License as published by
   the Free Software Foundation, either version 3 of the License, or
   (at your option) any later version.
   
   xtb is distributed in the hope that it will be useful,
   but WITHOUT ANY WARRANTY; without even the implied warranty of
   MERCHANTABILITY or FITNESS FOR A PARTICULAR PURPOSE.  See the
   GNU Lesser General Public License for more details.
   
   Cite this work as:
   * S. Grimme, C. Bannwarth, P. Shushkov, J. Chem. Theory Comput., 2017,
     13, 1989-2009. DOI: 10.1021/acs.jctc.7b00118
   * C. Bannwarth, S. Ehlert and S. Grimme., J. Chem. Theory Comput., 2019,
     15, 1652-1671. DOI: 10.1021/acs.jctc.8b01176
   * P. Pracht, E. Caldeweyher, S. Ehlert, S. Grimme, ChemRxiv, 2019, preprint.
     DOI: 10.26434/chemrxiv.8326202.v1
   
   for DFT-D4:
   * E. Caldeweyher, C. Bannwarth and S. Grimme, J. Chem. Phys., 2017,
     147, 034112. DOI: 10.1063/1.4993215
   * E. Caldeweyher, S. Ehlert, A. Hansen, H. Neugebauer, S. Spicher,
     C. Bannwarth and S. Grimme, J. Chem. Phys., 2019, 150, 154122.
     DOI: 10.1063/1.5090222
   
   for sTDA-xTB:
   * S. Grimme and C. Bannwarth, J. Chem. Phys., 2016, 145, 054103.
     DOI: 10.1063/1.4959605
   
   in the mass-spec context:
   * V. Asgeirsson, C. Bauer and S. Grimme, Chem. Sci., 2017, 8, 4879.
     DOI: 10.1039/c7sc00601b
   
   for metadynamics refer to:
   * S. Grimme, J. Chem. Theory Comput., 2019, 155, 2847-2862
     DOI: 10.1021/acs.jctc.9b00143
   
   with help from (in alphabetical order)
   C. Bannwarth, F. Bohle, G. Brandenburg, E. Caldeweyher, M. Checinski,
   S. Dohm, S. Ehlert, S. Ehrlich, F. März, H. Neugebauer, J. Pisarek,
   P. Pracht, P. Shushkov, and S. Spicher.
   
 * started run on 2020/05/12 at 11:44:13.665     

           -------------------------------------------------
          |                Calculation Setup                |
           -------------------------------------------------

          program call               : xtb --input C4N1_35_S_1.input C4N1_35_S_1.xyz --ohess --molden --namespace C4N1_35_S_1 output.out
          calculation namespace      : C4N1_35_S_1
          coordinate file            : C4N1_35_S_1.xyz
          number of atoms            :                     5
          number of electrons        :                    21
          charge                     :                     0
          spin                       :                   0.5
          first test random number   :      0.91769253147551

   ID    Z sym.   atoms
    1    6 C      1, 2, 4, 5
    2    7 N      3

           -------------------------------------------------
          |                 G F N 2 - x T B                 |
           -------------------------------------------------

        Reference                      10.1021/acs.jctc.8b01176
      * Hamiltonian:
        H0-scaling (s, p, d)           1.850000    2.230000    2.230000
        zeta-weighting                 0.500000
      * Dispersion:
        s8                             2.700000
        a1                             0.520000
        a2                             5.000000
        s9                             5.000000
      * Repulsion:
        kExp                           1.500000    1.000000
        rExp                           1.000000
      * Coulomb:
        alpha                          2.000000
        third order                    shell-resolved
        anisotropic                    true
        a3                             3.000000
        a5                             4.000000
        cn-shift                       1.200000
        cn-exp                         4.000000
        max-rad                        5.000000


          ...................................................
          :                      SETUP                      :
          :.................................................:
          :  # basis functions                  20          :
          :  # atomic orbitals                  20          :
          :  # shells                           10          :
          :  # electrons                        21          :
          :  max. iterations                   250          :
          :  Hamiltonian                  GFN2-xTB          :
          :  restarted?                      false          :
          :  GBSA solvation                  false          :
          :  PC potential                    false          :
          :  electronic temp.          300.0000000     K    :
          :  accuracy                    1.0000000          :
          :  -> integral cutoff          0.2500000E+02      :
          :  -> integral neglect         0.1000000E-07      :
          :  -> SCF convergence          0.1000000E-05 Eh   :
          :  -> wf. convergence          0.1000000E-03 e    :
          :  Broyden damping             0.4000000          :
          ...................................................

 iter      E             dE          RMSdq      gap      omega  full diag
   1    -10.8709464 -0.108709E+02  0.106E+01    1.50       0.0  T
   2     -8.3006710  0.257028E+01  0.164E+01    0.53       1.0  T
   3     -9.1187063 -0.818035E+00  0.121E+01    1.26       1.0  T
   4    -10.9692596 -0.185055E+01  0.574E+00    1.01       1.0  T
   5    -10.9759820 -0.672238E-02  0.447E+00    1.09       1.0  T
   6    -10.9795426 -0.356063E-02  0.334E+00    0.99       1.0  T
   7    -10.9896120 -0.100693E-01  0.282E+00    0.97       1.0  T
   8    -11.0040549 -0.144430E-01  0.163E+00    0.91       1.0  T
   9    -11.0182012 -0.141463E-01  0.422E-01    0.80       1.0  T
  10    -11.0185933 -0.392081E-03  0.397E-01    0.79       1.0  T
  11    -11.0188996 -0.306266E-03  0.908E-02    0.75       1.0  T
  12    -11.0189150 -0.154579E-04  0.618E-02    0.75       1.0  T
  13    -11.0189227 -0.767980E-05  0.585E-02    0.75       1.0  T
  14    -11.0189346 -0.118923E-04  0.121E-02    0.75       3.7  T
  15    -11.0189355 -0.868870E-06  0.578E-03    0.75       7.7  T
  16    -11.0189355 -0.356620E-08  0.825E-04    0.75      54.2  T
  17    -11.0189355  0.782567E-09  0.770E-04    0.75      58.1  T

   *** convergence criteria satisfied after 17 iterations ***

         #    Occupation            Energy/Eh            Energy/eV
      -------------------------------------------------------------
         1        2.0000           -0.7652107             -20.8224
       ...           ...                  ...                  ...
         5        2.0000           -0.5701965             -15.5158
         6        2.0000           -0.5577114             -15.1761
         7        2.0000           -0.5448943             -14.8273
         8        2.0000           -0.5003687             -13.6157
         9        2.0000           -0.4544024             -12.3649
        10        1.9997           -0.4488477             -12.2138
        11        1.0003           -0.4332413             -11.7891 (HOMO)
        12        0.0000           -0.4055788             -11.0364 (LUMO)
        13                         -0.3699025             -10.0656
        14                         -0.3428512              -9.3295
        15                         -0.2578681              -7.0169
        16                         -0.0256914              -0.6991
       ...                                ...                  ...
        20                          0.1991471               5.4191
      -------------------------------------------------------------
                  HL-Gap            0.0276625 Eh            0.7527 eV
             Fermi-level           -0.4302266 Eh          -11.7071 eV

 SCC (total)                   0 d,  0 h,  0 min,  0.005 sec
 SCC setup                      ...        0 min,  0.000 sec (  1.850%)
 Dispersion                     ...        0 min,  0.000 sec (  0.464%)
 integral evaluation            ...        0 min,  0.001 sec ( 24.650%)
 zeroth order Hamiltonian       ...        0 min,  0.000 sec (  0.422%)
 iterations                     ...        0 min,  0.002 sec ( 39.920%)
 molecular gradient             ...        0 min,  0.002 sec ( 30.444%)
 printout                       ...        0 min,  0.000 sec (  2.057%)

         :::::::::::::::::::::::::::::::::::::::::::::::::::::
         ::                     SUMMARY                     ::
         :::::::::::::::::::::::::::::::::::::::::::::::::::::
         :: total energy             -10.938876175405 Eh    ::
         :: gradient norm              0.208689959794 Eh/a0 ::
         :: HOMO-LUMO gap              0.752735324451 eV    ::
         ::.................................................::
         :: SCC energy               -11.018935469294 Eh    ::
         :: -> isotropic ES           -0.026713053046 Eh    ::
         :: -> anisotropic ES          0.003478713683 Eh    ::
         :: -> anisotropic XC          0.007254619362 Eh    ::
         :: -> dispersion             -0.002954717628 Eh    ::
         :: repulsion energy           0.080059227819 Eh    ::
         :: add. restraining           0.000000000000 Eh    ::
         :::::::::::::::::::::::::::::::::::::::::::::::::::::

      ----------------------------------------------------------- 
     |                   =====================                   |
     |                        A N C O P T                        |
     |                   =====================                   |
     |               Approximate Normal Coordinate               |
     |                Rational Function Optimizer                |
      ----------------------------------------------------------- 

          ...................................................
          :                      SETUP                      :
          :.................................................:
          :   optimization level            normal          :
          :   max. optcycles                   200          :
          :   ANC micro-cycles                  20          :
          :   degrees of freedom                 9          :
          :.................................................:
          :   RF solver                   davidson          :
          :   write xtbopt.log                true          :
          :   linear?                        false          :
          :   energy convergence         0.5000000E-05 Eh   :
          :   grad. convergence          0.1000000E-02 Eh/α :
          :   maximium RF displ.         1.0000000          :
          :   Hlow (freq-cutoff)         0.1000000E-01      :
          :   Hmax (freq-cutoff)         5.0000000          :
          :   S6 in model hess.         20.0000000          :
          ...................................................

generating ANC from model Hessian ...
Using Lindh-Hessian (1995)
 Shifting diagonal of input Hessian by    0.0000000000000000     
 Lowest  eigenvalues of input Hessian
   -0.000000   -0.000000   -0.000000    0.000000    0.000000    0.000000
    0.036368    0.084131    0.173336    0.611716    0.649754    0.940433
    0.976201    1.315679    1.497188
 Highest eigenvalues
    0.611716    0.649754    0.940433    0.976201    1.315679    1.497188


........................................................................
.............................. CYCLE    1 ..............................
........................................................................
   1    -11.0189355 -0.110189E+02  0.239E-04    0.75       0.0  T
   2    -11.0189355  0.106253E-08  0.350E-04    0.75     127.9  T
   3    -11.0189355 -0.800103E-09  0.246E-04    0.75     181.8  T
     SCC iter.                  ...        0 min,  0.001 sec
     gradient                   ...        0 min,  0.001 sec
 * total energy  :   -10.9388762 Eh     change       -0.3939824E-08 Eh
   gradient norm :     0.2086907 Eh/α   predicted     0.0000000E+00 (-100.00%)
   displ. norm   :     0.4268560 α      lambda       -0.5934319E-01
   maximum displ.:     0.3461180 α      in ANC's #1, #4, #7, ...

........................................................................
.............................. CYCLE    2 ..............................
........................................................................
   1    -11.0720880 -0.110721E+02  0.268E+00    1.23       0.0  T
   2    -11.0085525  0.635355E-01  0.348E+00    1.59       1.0  T
   3    -11.0760595 -0.675070E-01  0.158E+00    1.15       1.0  T
   4    -11.0629824  0.130771E-01  0.188E+00    1.38       1.0  T
   5    -11.0920351 -0.290527E-01  0.304E-01    1.29       1.0  T
   6    -11.0926513 -0.616214E-03  0.109E-01    1.25       1.0  T
   7    -11.0926522 -0.901903E-06  0.473E-02    1.24       1.0  T
   8    -11.0926713 -0.190751E-04  0.694E-03    1.25       6.4  T
   9    -11.0926714 -0.154454E-06  0.291E-03    1.25      15.3  T
  10    -11.0926714 -0.854863E-08  0.684E-04    1.25      65.4  T
  11    -11.0926714 -0.254290E-08  0.283E-04    1.25     158.0  T
     SCC iter.                  ...        0 min,  0.001 sec
     gradient                   ...        0 min,  0.001 sec
 * total energy  :   -10.9877428 Eh     change       -0.4886664E-01 Eh
   gradient norm :     0.1564375 Eh/α   predicted    -0.3507793E-01 ( -28.22%)
   displ. norm   :     0.5258740 α      lambda       -0.7739147E-01
   maximum displ.:     0.4010712 α      in ANC's #4, #7, #8, ...

........................................................................
.............................. CYCLE    3 ..............................
........................................................................
   1    -11.2196736 -0.112197E+02  0.390E+00    2.13       0.0  T
   2    -11.1063339  0.113340E+00  0.586E+00    1.91       1.0  T
   3    -11.2274145 -0.121081E+00  0.241E+00    2.17       1.0  T
   4    -11.1259939  0.101421E+00  0.441E+00    1.99       1.0  T
   5    -11.2357281 -0.109734E+00  0.139E+00    2.14       1.0  T
   6    -11.2378431 -0.211494E-02  0.119E+00    2.13       1.0  T
   7    -11.2404123 -0.256923E-02  0.886E-01    2.11       1.0  T
   8    -11.2412899 -0.877571E-03  0.707E-01    2.11       1.0  T
   9    -11.2429549 -0.166500E-02  0.228E-01    2.09       1.0  T
  10    -11.2430548 -0.999573E-04  0.130E-01    2.09       1.0  T
  11    -11.2430855 -0.306853E-04  0.777E-02    2.09       1.0  T
  12    -11.2431021 -0.165824E-04  0.119E-02    2.09       3.8  T
  13    -11.2431024 -0.337156E-06  0.108E-03    2.09      41.3  T
  14    -11.2431025 -0.153647E-08  0.821E-04    2.09      54.5  T
  15    -11.2431025 -0.194763E-08  0.435E-05    2.09    1027.0  T
     SCC iter.                  ...        0 min,  0.001 sec
     gradient                   ...        0 min,  0.001 sec
 * total energy  :   -10.9968018 Eh     change       -0.9059026E-02 Eh
   gradient norm :     0.2997729 Eh/α   predicted    -0.4939680E-01 ( 445.28%)
   displ. norm   :     0.4398421 α      lambda       -0.7670655E-01
   maximum displ.:     0.3832723 α      in ANC's #1, #3, #7, ...

........................................................................
.............................. CYCLE    4 ..............................
........................................................................
   1    -11.1688315 -0.111688E+02  0.199E+00    1.52       0.0  T
   2    -11.1540582  0.147732E-01  0.190E+00    1.60       1.0  T
   3    -11.1519549  0.210333E-02  0.170E+00    1.54       1.0  T
   4    -11.1721422 -0.201873E-01  0.585E-01    1.54       1.0  T
   5    -11.1738690 -0.172683E-02  0.193E-01    1.54       1.0  T
   6    -11.1741059 -0.236891E-03  0.913E-02    1.53       1.0  T
   7    -11.1741264 -0.205154E-04  0.137E-02    1.53       3.3  T
   8    -11.1741269 -0.476009E-06  0.475E-03    1.53       9.4  T
   9    -11.1741269  0.176482E-08  0.264E-03    1.53      17.0  T
  10    -11.1741270 -0.441217E-07  0.831E-04    1.53      53.8  T
  11    -11.1741270 -0.414324E-08  0.171E-04    1.53     261.8  T
     SCC iter.                  ...        0 min,  0.001 sec
     gradient                   ...        0 min,  0.001 sec
 * total energy  :   -11.0285424 Eh     change       -0.3174055E-01 Eh
   gradient norm :     0.0854746 Eh/α   predicted    -0.4577313E-01 (  44.21%)
   displ. norm   :     0.3286634 α      lambda       -0.1046697E-01
   maximum displ.:     0.3098281 α      in ANC's #1, #7, #4, ...

........................................................................
.............................. CYCLE    5 ..............................
........................................................................
   1    -11.1650991 -0.111651E+02  0.110E+00    1.44       0.0  T
   2    -11.1634082  0.169098E-02  0.751E-01    1.41       1.0  T
   3    -11.1531857  0.102225E-01  0.126E+00    1.52       1.0  T
   4    -11.1654058 -0.122202E-01  0.151E-01    1.42       1.0  T
   5    -11.1655093 -0.103493E-03  0.562E-02    1.43       1.0  T
   6    -11.1655129 -0.354858E-05  0.318E-02    1.43       1.4  T
   7    -11.1655163 -0.340274E-05  0.508E-03    1.43       8.8  T
   8    -11.1655163 -0.433034E-07  0.296E-03    1.43      15.1  T
   9    -11.1655163  0.684700E-08  0.205E-03    1.43      21.8  T
  10    -11.1655163 -0.312807E-07  0.221E-04    1.43     202.4  T
  11    -11.1655163 -0.629221E-10  0.618E-05    1.43     723.7  T
     SCC iter.                  ...        0 min,  0.001 sec
     gradient                   ...        0 min,  0.001 sec
 * total energy  :   -11.0345199 Eh     change       -0.5977489E-02 Eh
   gradient norm :     0.0759014 Eh/α   predicted    -0.5798805E-02 (  -2.99%)
   displ. norm   :     0.1589659 α      lambda       -0.5479343E-02
   maximum displ.:     0.0967340 α      in ANC's #1, #7, #4, ...

........................................................................
.............................. CYCLE    6 ..............................
........................................................................
   1    -11.1796098 -0.111796E+02  0.653E-01    1.44       0.0  T
   2    -11.1793542  0.255613E-03  0.452E-01    1.40       1.0  T
   3    -11.1771848  0.216944E-02  0.575E-01    1.48       1.0  T
   4    -11.1795010 -0.231619E-02  0.177E-01    1.42       1.0  T
   5    -11.1797427 -0.241765E-03  0.344E-02    1.42       1.3  T
   6    -11.1797447 -0.193504E-05  0.140E-02    1.42       3.2  T
   7    -11.1797448 -0.130220E-06  0.241E-03    1.42      18.6  T
   8    -11.1797448 -0.143060E-07  0.125E-03    1.42      35.8  T
   9    -11.1797448 -0.209958E-08  0.536E-04    1.42      83.5  T
  10    -11.1797448 -0.212187E-08  0.624E-05    1.42     716.8  T
     SCC iter.                  ...        0 min,  0.001 sec
     gradient                   ...        0 min,  0.001 sec
 * total energy  :   -11.0386712 Eh     change       -0.4151294E-02 Eh
   gradient norm :     0.0456472 Eh/α   predicted    -0.2808906E-02 ( -32.34%)
   displ. norm   :     0.1695797 α      lambda       -0.4063711E-02
   maximum displ.:     0.1063582 α      in ANC's #1, #7, #4, ...

........................................................................
.............................. CYCLE    7 ..............................
........................................................................
   1    -11.1956817 -0.111957E+02  0.724E-01    1.46       0.0  T
   2    -11.1947908  0.890856E-03  0.570E-01    1.41       1.0  T
   3    -11.1941440  0.646872E-03  0.546E-01    1.49       1.0  T
   4    -11.1959709 -0.182694E-02  0.106E-01    1.44       1.0  T
   5    -11.1960458 -0.748786E-04  0.398E-02    1.44       1.1  T
   6    -11.1960512 -0.546777E-05  0.195E-02    1.44       2.3  T
   7    -11.1960516 -0.396179E-06  0.237E-03    1.44      18.9  T
   8    -11.1960517 -0.154447E-07  0.118E-03    1.44      37.8  T
   9    -11.1960517  0.852127E-09  0.848E-04    1.44      52.7  T
  10    -11.1960517 -0.525735E-08  0.725E-05    1.44     617.1  T
     SCC iter.                  ...        0 min,  0.001 sec
     gradient                   ...        0 min,  0.001 sec
 * total energy  :   -11.0412343 Eh     change       -0.2563133E-02 Eh
   gradient norm :     0.0236075 Eh/α   predicted    -0.2090285E-02 ( -18.45%)
   displ. norm   :     0.3328954 α      lambda       -0.3057258E-02
   maximum displ.:     0.2581397 α      in ANC's #1, #7, #4, ...

........................................................................
.............................. CYCLE    8 ..............................
........................................................................
   1    -11.1810929 -0.111811E+02  0.120E+00    1.36       0.0  T
   2    -11.1813861 -0.293203E-03  0.683E-01    1.35       1.0  T
   3    -11.1809448  0.441300E-03  0.336E-01    1.32       1.0  T
   4    -11.1811882 -0.243472E-03  0.213E-01    1.32       1.0  T
   5    -11.1814098 -0.221529E-03  0.105E-01    1.35       1.0  T
   6    -11.1814845 -0.746860E-04  0.483E-02    1.33       1.0  T
   7    -11.1814939 -0.944054E-05  0.248E-03    1.33      18.0  T
   8    -11.1814939 -0.405855E-09  0.126E-03    1.33      35.4  T
   9    -11.1814939 -0.576069E-09  0.277E-04    1.33     161.2  T
  10    -11.1814939 -0.343482E-09  0.165E-04    1.33     271.4  T
     SCC iter.                  ...        0 min,  0.001 sec
     gradient                   ...        0 min,  0.001 sec
 * total energy  :   -11.0410703 Eh     change        0.1640554E-03 Eh
   gradient norm :     0.0558293 Eh/α   predicted    -0.1698030E-02 (*******%)
   displ. norm   :     0.1332944 α      lambda       -0.3285255E-02
   maximum displ.:     0.1021659 α      in ANC's #1, #3, #4, ...

........................................................................
.............................. CYCLE    9 ..............................
........................................................................
   1    -11.1979321 -0.111979E+02  0.605E-01    1.40       0.0  T
   2    -11.1974910  0.441112E-03  0.457E-01    1.35       1.0  T
   3    -11.1973915  0.994878E-04  0.403E-01    1.44       1.0  T
   4    -11.1982433 -0.851845E-03  0.149E-01    1.39       1.0  T
   5    -11.1983620 -0.118636E-03  0.618E-02    1.39       1.0  T
   6    -11.1983816 -0.196438E-04  0.178E-02    1.40       2.5  T
   7    -11.1983824 -0.780312E-06  0.133E-03    1.40      33.6  T
   8    -11.1983824 -0.677723E-09  0.789E-04    1.40      56.6  T
   9    -11.1983824  0.391179E-08  0.802E-04    1.40      55.8  T
     SCC iter.                  ...        0 min,  0.001 sec
     gradient                   ...        0 min,  0.001 sec
 * total energy  :   -11.0426334 Eh     change       -0.1563121E-02 Eh
   gradient norm :     0.0086331 Eh/α   predicted    -0.1671812E-02 (   6.95%)
   displ. norm   :     0.0629039 α      lambda       -0.2738609E-03
   maximum displ.:     0.0475243 α      in ANC's #1, #7, #4, ...

........................................................................
.............................. CYCLE   10 ..............................
........................................................................
   1    -11.1993406 -0.111993E+02  0.253E-01    1.40       0.0  T
   2    -11.1991357  0.204852E-03  0.225E-01    1.36       1.0  T
   3    -11.1992654 -0.129619E-03  0.170E-01    1.40       1.0  T
   4    -11.1994126 -0.147283E-03  0.139E-02    1.38       3.2  T
   5    -11.1994130 -0.367318E-06  0.714E-03    1.38       6.3  T
   6    -11.1994130  0.201679E-07  0.401E-03    1.38      11.2  T
   7    -11.1994131 -0.914753E-07  0.563E-04    1.38      79.4  T
   8    -11.1994131  0.833630E-09  0.510E-04    1.38      87.8  T
     SCC iter.                  ...        0 min,  0.001 sec
     gradient                   ...        0 min,  0.001 sec
 * total energy  :   -11.0428473 Eh     change       -0.2139071E-03 Eh
   gradient norm :     0.0080478 Eh/α   predicted    -0.1374717E-03 ( -35.73%)
   displ. norm   :     0.1048675 α      lambda       -0.3285772E-03
   maximum displ.:     0.0764051 α      in ANC's #1, #4, #8, ...

........................................................................
.............................. CYCLE   11 ..............................
........................................................................
   1    -11.2003939 -0.112004E+02  0.401E-01    1.38       0.0  T
   2    -11.2000809  0.312934E-03  0.320E-01    1.31       1.0  T
   3    -11.2000687  0.122582E-04  0.283E-01    1.39       1.0  T
   4    -11.2005208 -0.452173E-03  0.450E-02    1.35       1.0  T
   5    -11.2005293 -0.844798E-05  0.172E-02    1.35       2.6  T
   6    -11.2005297 -0.455306E-06  0.816E-03    1.35       5.5  T
   7    -11.2005299 -0.145907E-06  0.808E-04    1.35      55.4  T
   8    -11.2005299  0.320743E-08  0.914E-04    1.35      48.9  T
     SCC iter.                  ...        0 min,  0.001 sec
     gradient                   ...        0 min,  0.001 sec
 * total energy  :   -11.0430480 Eh     change       -0.2007179E-03 Eh
   gradient norm :     0.0096216 Eh/α   predicted    -0.1660958E-03 ( -17.25%)
   displ. norm   :     0.0501338 α      lambda       -0.1209381E-03
   maximum displ.:     0.0360951 α      in ANC's #1, #8, #4, ...

........................................................................
.............................. CYCLE   12 ..............................
........................................................................
   1    -11.2011988 -0.112012E+02  0.196E-01    1.35       0.0  T
   2    -11.2011054  0.933418E-04  0.164E-01    1.30       1.0  T
   3    -11.2011624 -0.569692E-04  0.128E-01    1.34       1.0  T
   4    -11.2012402 -0.778369E-04  0.310E-02    1.33       1.4  T
   5    -11.2012447 -0.450742E-05  0.853E-03    1.33       5.2  T
   6    -11.2012449 -0.190570E-06  0.378E-03    1.33      11.8  T
   7    -11.2012449 -0.103057E-07  0.399E-04    1.33     112.1  T
   8    -11.2012449  0.369536E-10  0.365E-04    1.33     122.6  T
     SCC iter.                  ...        0 min,  0.001 sec
     gradient                   ...        0 min,  0.001 sec
 * total energy  :   -11.0431465 Eh     change       -0.9848509E-04 Eh
   gradient norm :     0.0085961 Eh/α   predicted    -0.6062119E-04 ( -38.45%)
   displ. norm   :     0.0855474 α      lambda       -0.2169648E-03
   maximum displ.:     0.0588847 α      in ANC's #1, #8, #4, ...

........................................................................
.............................. CYCLE   13 ..............................
........................................................................
   1    -11.2022879 -0.112023E+02  0.332E-01    1.32       0.0  T
   2    -11.2021773  0.110651E-03  0.235E-01    1.25       1.0  T
   3    -11.2020999  0.773731E-04  0.227E-01    1.33       1.0  T
   4    -11.2023760 -0.276107E-03  0.597E-02    1.29       1.0  T
   5    -11.2023885 -0.125133E-04  0.197E-02    1.29       2.3  T
   6    -11.2023905 -0.197600E-05  0.790E-03    1.28       5.7  T
   7    -11.2023905 -0.337287E-07  0.516E-04    1.28      86.7  T
   8    -11.2023905  0.180876E-08  0.617E-04    1.28      72.5  T
     SCC iter.                  ...        0 min,  0.001 sec
     gradient                   ...        0 min,  0.001 sec
 * total energy  :   -11.0432892 Eh     change       -0.1426897E-03 Eh
   gradient norm :     0.0036292 Eh/α   predicted    -0.1092756E-03 ( -23.42%)
   displ. norm   :     0.0523449 α      lambda       -0.5393218E-04
   maximum displ.:     0.0383805 α      in ANC's #1, #8, #4, ...

........................................................................
.............................. CYCLE   14 ..............................
........................................................................
   1    -11.2016872 -0.112017E+02  0.196E-01    1.28       0.0  T
   2    -11.2016743  0.128114E-04  0.124E-01    1.25       1.0  T
   3    -11.2015676  0.106695E-03  0.144E-01    1.29       1.0  T
   4    -11.2017076 -0.139976E-03  0.203E-02    1.27       2.2  T
   5    -11.2017080 -0.343097E-06  0.892E-03    1.26       5.0  T
   6    -11.2017082 -0.275082E-06  0.488E-03    1.26       9.2  T
   7    -11.2017083 -0.301065E-07  0.638E-04    1.26      70.1  T
   8    -11.2017083 -0.253378E-08  0.240E-04    1.26     186.3  T
     SCC iter.                  ...        0 min,  0.001 sec
     gradient                   ...        0 min,  0.002 sec
 * total energy  :   -11.0433218 Eh     change       -0.3261813E-04 Eh
   gradient norm :     0.0022280 Eh/α   predicted    -0.2703892E-04 ( -17.10%)
   displ. norm   :     0.0163843 α      lambda       -0.1188034E-04
   maximum displ.:     0.0104576 α      in ANC's #8, #1, #4, ...

........................................................................
.............................. CYCLE   15 ..............................
........................................................................
   1    -11.2025751 -0.112026E+02  0.667E-02    1.27       0.0  T
   2    -11.2025742  0.908820E-06  0.421E-02    1.25       1.1  T
   3    -11.2025670  0.716716E-05  0.437E-02    1.27       1.0  T
   4    -11.2025779 -0.108665E-04  0.120E-02    1.26       3.7  T
   5    -11.2025783 -0.398549E-06  0.473E-03    1.26       9.5  T
   6    -11.2025784 -0.134374E-06  0.190E-03    1.26      23.6  T
   7    -11.2025784 -0.315648E-08  0.167E-04    1.26     267.2  T
   8    -11.2025784  0.752785E-10  0.172E-04    1.26     259.3  T
     SCC iter.                  ...        0 min,  0.001 sec
     gradient                   ...        0 min,  0.001 sec
 * total energy  :   -11.0433266 Eh     change       -0.4763999E-05 Eh
   gradient norm :     0.0012370 Eh/α   predicted    -0.5941539E-05 (  24.72%)
   displ. norm   :     0.0156631 α      lambda       -0.2388400E-05
   maximum displ.:     0.0125112 α      in ANC's #1, #8, #4, ...

........................................................................
.............................. CYCLE   16 ..............................
........................................................................
   1    -11.2020089 -0.112020E+02  0.612E-02    1.26       0.0  T
   2    -11.2020070  0.186156E-05  0.407E-02    1.26       1.1  T
   3    -11.2020005  0.647834E-05  0.415E-02    1.26       1.1  T
   4    -11.2020107 -0.101624E-04  0.812E-03    1.26       5.5  T
   5    -11.2020110 -0.285356E-06  0.298E-03    1.26      15.0  T
   6    -11.2020110 -0.297571E-07  0.125E-03    1.26      35.7  T
   7    -11.2020110 -0.132242E-08  0.145E-04    1.26     308.4  T
   8    -11.2020110 -0.165734E-11  0.128E-04    1.26     349.6  T
     SCC iter.                  ...        0 min,  0.001 sec
     gradient                   ...        0 min,  0.001 sec
 * total energy  :   -11.0433276 Eh     change       -0.1074793E-05 Eh
   gradient norm :     0.0008334 Eh/α   predicted    -0.1192996E-05 (  11.00%)
   displ. norm   :     0.0036892 α      lambda       -0.5733003E-06
   maximum displ.:     0.0030015 α      in ANC's #1, #4, #8, ...

   *** GEOMETRY OPTIMIZATION CONVERGED AFTER 16 ITERATIONS ***

------------------------------------------------------------------------
 total energy gain   :        -0.1044515 Eh      -65.5443 kcal/mol
 total RMSD          :         1.0020207 a0        0.5302 Å
 total power (kW/mol):       -17.1398297 (step)-4535.5535 (real)
------------------------------------------------------------------------

 ANCopt (total)                0 d,  0 h,  0 min,  0.060 sec
 optimizer setup                ...        0 min,  0.000 sec (  0.104%)
 model hessian                  ...        0 min,  0.000 sec (  0.159%)
 ANC generation                 ...        0 min,  0.000 sec (  0.083%)
 coordinate transformation      ...        0 min,  0.000 sec (  0.060%)
 single point calculation       ...        0 min,  0.059 sec ( 97.762%)
 optimization log               ...        0 min,  0.000 sec (  0.602%)
 hessian update                 ...        0 min,  0.000 sec (  0.052%)
 rational function              ...        0 min,  0.000 sec (  0.520%)

================
 final structure:
================
5
 xtb: 6.2.2 (9d81278992624c895f80dd42a50cac0aa55982e2)
C        -1.66406444422444    0.01692299394809   -0.03126768480790
C        -0.49167216818142   -0.29670834897915   -0.72704954812261
N         0.73106376593220   -0.00425678969976    0.01277568904673
C        -0.51487569823567    0.15717757520845    0.75401685965160
C         1.93954754470933    0.12686456952237   -0.00847431576783

 Bond Distances (Angstroems)
 ---------------------------
C1-C2=1.3989         C1-C4=1.3989         C2-C1=1.3989         C2-N3=1.4588         C2-C4=1.5492         N3-C2=1.4588         
N3-C4=1.4587         N3-C5=1.2158         C4-C1=1.3989         C4-C2=1.5492         C4-N3=1.4587         C5-N3=1.2158         
 C  C  Rav=1.4490 sigma=0.0709  Rmin=1.3989  Rmax=1.5492     3
 N  C  Rav=1.3777 sigma=0.1145  Rmin=1.2158  Rmax=1.4588     3

 selected bond angles (degree)
 --------------------
C4-C1-C2= 67.25                N3-C2-C1=113.91                C4-C2-C1= 56.38                C4-C2-N3= 57.92                
C4-N3-C2= 64.15                C5-N3-C2=147.77                C5-N3-C4=147.78                C2-C4-C1= 56.38                
N3-C4-C1=113.91                N3-C4-C2= 57.93                

 selected dihedral angles (degree)
 ---------------------------------
N3-C2-C1-C4=352.92            C4-N3-C2-C1=  6.96            C5-N3-C2-C1=193.15            C5-N3-C2-C4=186.20            
N3-C4-C1-C2=  7.08            C1-C4-C2-N3=172.36            N3-C4-C2-C1=187.64            C1-C4-N3-C2=353.04            
C1-C4-N3-C5=166.85            C2-C4-N3-C5=173.80            
           -------------------------------------------------
          |                Final Singlepoint                |
           -------------------------------------------------

          ...................................................
          :                      SETUP                      :
          :.................................................:
          :  # basis functions                  20          :
          :  # atomic orbitals                  20          :
          :  # shells                           10          :
          :  # electrons                        21          :
          :  max. iterations                   250          :
          :  Hamiltonian                  GFN2-xTB          :
          :  restarted?                      false          :
          :  GBSA solvation                  false          :
          :  PC potential                    false          :
          :  electronic temp.          300.0000000     K    :
          :  accuracy                    1.0000000          :
          :  -> integral cutoff          0.2500000E+02      :
          :  -> integral neglect         0.1000000E-07      :
          :  -> SCF convergence          0.1000000E-05 Eh   :
          :  -> wf. convergence          0.1000000E-03 e    :
          :  Broyden damping             0.4000000          :
          ...................................................

 iter      E             dE          RMSdq      gap      omega  full diag
   1    -11.2020110 -0.112020E+02  0.408E-05    1.26       0.0  T
   2    -11.2020110  0.415668E-12  0.238E-05    1.26    1880.6  T
   3    -11.2020110  0.561862E-11  0.327E-05    1.26    1366.9  T

   *** convergence criteria satisfied after 3 iterations ***

         #    Occupation            Energy/Eh            Energy/eV
      -------------------------------------------------------------
         1        2.0000           -0.7664484             -20.8561
       ...           ...                  ...                  ...
         5        2.0000           -0.6064018             -16.5010
         6        2.0000           -0.5708304             -15.5331
         7        2.0000           -0.5002977             -13.6138
         8        2.0000           -0.4907089             -13.3529
         9        2.0000           -0.4702213             -12.7954
        10        2.0000           -0.4402348             -11.9794
        11        1.0000           -0.4068356             -11.0706 (HOMO)
        12                         -0.3606099              -9.8127 (LUMO)
        13                         -0.3196460              -8.6980
        14                         -0.2727395              -7.4216
        15                         -0.2284613              -6.2167
        16                         -0.0513710              -1.3979
       ...                                ...                  ...
        20                          0.6862535              18.6739
      -------------------------------------------------------------
                  HL-Gap            0.0462256 Eh            1.2579 eV
             Fermi-level           -0.4036289 Eh          -10.9833 eV

 SCC (total)                   0 d,  0 h,  0 min,  0.003 sec
 SCC setup                      ...        0 min,  0.000 sec (  1.411%)
 Dispersion                     ...        0 min,  0.000 sec (  0.359%)
 integral evaluation            ...        0 min,  0.001 sec ( 41.618%)
 zeroth order Hamiltonian       ...        0 min,  0.000 sec (  0.491%)
 iterations                     ...        0 min,  0.000 sec ( 11.207%)
 molecular gradient             ...        0 min,  0.001 sec ( 42.553%)
 printout                       ...        0 min,  0.000 sec (  2.128%)

         :::::::::::::::::::::::::::::::::::::::::::::::::::::
         ::                     SUMMARY                     ::
         :::::::::::::::::::::::::::::::::::::::::::::::::::::
         :: total energy             -11.043327637316 Eh    ::
         :: gradient norm              0.000833594449 Eh/a0 ::
         :: HOMO-LUMO gap              1.257863858318 eV    ::
         ::.................................................::
         :: SCC energy               -11.202011005188 Eh    ::
         :: -> isotropic ES           -0.016309112409 Eh    ::
         :: -> anisotropic ES          0.006046716635 Eh    ::
         :: -> anisotropic XC          0.008720594902 Eh    ::
         :: -> dispersion             -0.002875190615 Eh    ::
         :: repulsion energy           0.158683413500 Eh    ::
         :: add. restraining           0.000000000000 Eh    ::
         :::::::::::::::::::::::::::::::::::::::::::::::::::::

           ------------------------------------------------- 
          |                Numerical Hessian                |
           ------------------------------------------------- 
step length          :   0.00500
SCC accuracy         :   0.30000
Hessian scale factor :   1.00000
frozen atoms in %    :   0.00000    0
RMS gradient         :   0.00083
estimated CPU  time      0.00 min
estimated wall time      0.00 min

writing file <hessian>.

 projected vibrational frequencies (cm-1)
eigval :       -0.00    -0.00    -0.00    -0.00     0.00     0.00
eigval :     -191.69    99.95   308.32   451.00   676.21   791.15
eigval :     1028.04  1462.51  1749.22
           -------------------------------------------------
          |                Property Printout                |
           -------------------------------------------------

    * Orbital Energies and Occupations

         #    Occupation            Energy/Eh            Energy/eV
      -------------------------------------------------------------
         1        2.0000           -0.7664485             -20.8561
         2        2.0000           -0.7210852             -19.6217
         3        2.0000           -0.6667283             -18.1426
         4        2.0000           -0.6433985             -17.5078
         5        2.0000           -0.6064018             -16.5010
         6        2.0000           -0.5708305             -15.5331
         7        2.0000           -0.5002976             -13.6138
         8        2.0000           -0.4907089             -13.3529
         9        2.0000           -0.4702213             -12.7954
        10        2.0000           -0.4402348             -11.9794
        11        1.0000           -0.4068355             -11.0706 (HOMO)
        12                         -0.3606099              -9.8127 (LUMO)
        13                         -0.3196460              -8.6980
        14                         -0.2727394              -7.4216
        15                         -0.2284613              -6.2167
        16                         -0.0513710              -1.3979
        17                          0.0725722               1.9748
        18                          0.1713356               4.6623
        19                          0.3844947              10.4626
Molecule has the following symmetry elements: (sigma) 
It seems to be the Cs point group
        20                          0.6862535              18.6739
      -------------------------------------------------------------
                  HL-Gap            0.0462255 Eh            1.2579 eV
             Fermi-level           -0.4036289 Eh          -10.9833 eV

     #   Z        covCN         q      C6AA      α(0)
     1   6 C      1.967    -0.107    34.019     9.419
     2   6 C      2.861     0.043    27.038     8.523
     3   7 N      2.731     0.145    18.790     6.438
     4   6 C      2.861     0.043    27.038     8.523
     5   6 C      0.913    -0.124    39.396    10.505

 Mol. C6AA /au·bohr⁶  :        719.365800
 Mol. C8AA /au·bohr⁸  :      19965.752692
 Mol. α(0) /au        :         43.408389


Wiberg/Mayer (AO) data.
largest (>0.10) Wiberg bond orders for each atom
          total WBO             WBO to atom ...
     1  C   2.707        C    4 1.233    C    2 1.233    C    5 0.147
     2  C   3.132        C    1 1.233    C    4 1.020    N    3 0.812
     3  N   3.716        C    5 1.998    C    4 0.812    C    2 0.812
     4  C   3.133        C    1 1.233    C    2 1.020    N    3 0.812
     5  C   2.279        N    3 1.998    C    1 0.147

MOs/occ written to file <molden.input>


molecular dipole:
                 x           y           z       tot (Debye)
 q only:        0.001      -0.045       0.014
   full:        0.252      -0.088       0.031       0.683
molecular quadrupole (traceless):
                xx          xy          yy          xz          yz          zz
 q only:       -2.451      -0.135       1.108      -0.019       0.077       1.343
  q+dip:       -6.574      -0.400       3.997      -0.019      -0.487       2.576
   full:       -9.115      -0.420       6.304      -0.053      -1.189       2.810

           -------------------------------------------------
          |                Geometry Summary                 |
           -------------------------------------------------

      molecular mass/u    :       62.0496468
   center of mass at/Å    :        0.0235161      -0.0001371       0.0004111
  moments of inertia/u·Å² :        0.1461781E+02   0.9231064E+02   0.1065199E+03
rotational constants/cm⁻¹ :        0.1153225E+01   0.1826185E+00   0.1582581E+00

 * 1 selected distances

     #   Z        #   Z                                     value/Å
     3   7 N      5   6 C                                 1.2157621 (max)

 * 1 distinct bonds (by element types)

   Z      Z             #   av. dist./Å        max./Å        min./Å
   6 C    7 N           1     1.2157621     1.2157621     1.2157621

           -------------------------------------------------
          |               Frequency Printout                |
           -------------------------------------------------
 projected vibrational frequencies (cm-1)
eigval :       -0.00    -0.00    -0.00    -0.00     0.00     0.00
eigval :     -191.69    99.95   308.32   451.00   676.21   791.15
eigval :     1028.04  1462.51  1749.22
 reduced masses (amu)
   1: 12.45   2: 12.28   3: 12.30   4: 12.08   5: 12.16   6: 12.44   7: 13.00   8: 12.20
   9: 12.41  10: 13.23  11: 12.46  12: 12.03  13: 12.12  14: 12.02  15: 12.98
 IR intensities (amu)
   1:  0.08   2:  0.06   3:  0.07   4:  0.03   5:  0.03   6:  0.06   7:  1.34   8:  0.46
   9:  0.08  10:  0.18  11:  0.18  12:  1.04  13:  0.20  14:  0.25  15:  0.29
 Raman intensities (amu)
   1:  0.00   2:  0.00   3:  0.00   4:  0.00   5:  0.00   6:  0.00   7:  0.00   8:  0.00
   9:  0.00  10:  0.00  11:  0.00  12:  0.00  13:  0.00  14:  0.00  15:  0.00
 output can be read by thermo (or use thermo option).
 writing <g98.out> molden fake output.
 recommended (thermochemical) frequency scaling factor: 1.0
           -------------------------------------------------
          |             Thermodynamic Functions             |
           -------------------------------------------------

cs  symmetry found (for desy threshold:  0.10E+00) used in thermo

          ...................................................
          :                      SETUP                      :
          :.................................................:
          :  # frequencies                           8      :
          :  # imaginary freq.                       1      :
          :  linear?                             false      :
          :  only rotor calc.                    false      :
          :  symmetry                               cs      :
          :  rotational number                       1      :
          :  scaling factor                  1.0000000      :
          :  rotor cutoff                   50.0000000 cm⁻¹ :
          :  imag. cutoff                  -20.0000000 cm⁻¹ :
          :.................................................:

    mode    ω/cm⁻¹     T·S(HO)/kcal·mol⁻¹    T·S(FR)/kcal·mol⁻¹   T·S(vib)
   ------------------------------------------------------------------------
       1     99.95    -0.00000 ( 94.11%)     0.00520 (  5.89%)     0.00031
   ------------------------------------------------------------------------

   temp. (K)  partition function   enthalpy   heat capacity  entropy
                                   cal/mol     cal/K/mol   cal/K/mol   J/K/mol
 298.15  VIB   4.08                 1036.441      6.970      6.236
         ROT  0.290E+05              888.752      2.981     23.397
         INT  0.118E+06             1925.193      9.951     29.633
         TR   0.473E+27             1481.254      4.968     38.278
         TOT                        3406.4473    14.9192    67.9115   284.1417

   temp. (K)  partition function   enthalpy   heat capacity  entropy
                                   cal/mol     cal/K/mol   cal/K/mol   J/K/mol
 120.00  VIB   1.48                  152.456      2.791      2.056
         ROT  0.740E+04              357.707      2.981     20.685
         INT  0.109E+05              510.163      5.772     22.741
         TR   0.121E+27              596.178      4.968     33.759
         TOT                        1106.3410    10.7401    56.4996   236.3942

   temp. (K)  partition function   enthalpy   heat capacity  entropy
                                   cal/mol     cal/K/mol   cal/K/mol   J/K/mol
 100.00  VIB   1.33                  101.627      2.294      1.602
         ROT  0.563E+04              298.089      2.981     20.141
         INT  0.748E+04              399.716      5.275     21.743
         TR   0.919E+26              496.815      4.968     32.853
         TOT                         896.5311    10.2427    54.5965   228.4318

   temp. (K)  partition function   enthalpy   heat capacity  entropy
                                   cal/mol     cal/K/mol   cal/K/mol   J/K/mol
  80.00  VIB   1.20                   60.614      1.810      1.154
         ROT  0.403E+04              238.471      2.981     19.476
         INT  0.485E+04              299.085      4.791     20.630
         TR   0.657E+26              397.452      4.968     31.745
         TOT                         696.5370     9.7593    52.3756   219.1396

   temp. (K)  partition function   enthalpy   heat capacity  entropy
                                   cal/mol     cal/K/mol   cal/K/mol   J/K/mol
  60.00  VIB   1.10                   29.182      1.329      0.712
         ROT  0.261E+04              178.853      2.981     18.618
         INT  0.288E+04              208.035      4.310     19.331
         TR   0.427E+26              298.089      4.968     30.317
         TOT                         506.1240     9.2781    49.6474   207.7246

   temp. (K)  partition function   enthalpy   heat capacity  entropy
                                   cal/mol     cal/K/mol   cal/K/mol   J/K/mol
  40.00  VIB   1.03                    8.081      0.749      0.292
         ROT  0.142E+04              119.236      2.981     17.410
         INT  0.146E+04              127.317      3.730     17.702
         TR   0.232E+26              198.726      4.968     28.303
         TOT                         326.0429     8.6984    46.0055   192.4869

   temp. (K)  partition function   enthalpy   heat capacity  entropy
                                   cal/mol     cal/K/mol   cal/K/mol   J/K/mol
  20.00  VIB   1.00                    0.216      0.078      0.021
         ROT   503.                   59.618      2.981     15.343
         INT   504.                   59.833      3.058     15.364
         TR   0.822E+25               99.363      4.968     24.861
         TOT                         159.1964     8.0266    40.2254   168.3031

   temp. (K)  partition function   enthalpy   heat capacity  entropy
                                   cal/mol     cal/K/mol   cal/K/mol   J/K/mol
  10.00  VIB   1.00                    0.000      0.000     -0.032
         ROT   178.                   29.809      2.981     13.277
         INT   178.                   29.809      2.981     13.245
         TR   0.290E+25               49.681      4.968     21.419
         TOT                          79.4906     7.9493    34.6645   145.0363

       T/K    H(0)-H(T)+PV         H(T)/Eh          T*S/Eh         G(T)/Eh
   ------------------------------------------------------------------------
    298.15    0.542852E-02    0.203879E-01    0.322669E-01   -0.118791E-01
    120.00    0.176307E-02    0.167224E-01    0.108045E-01    0.591787E-02
    100.00    0.142871E-02    0.163881E-01    0.870051E-02    0.768755E-02
     80.00    0.111000E-02    0.160693E-01    0.667727E-02    0.939208E-02
     60.00    0.806560E-03    0.157659E-01    0.474709E-02    0.110188E-01
     40.00    0.519582E-03    0.154789E-01    0.293258E-02    0.125464E-01
     20.00    0.253696E-03    0.152130E-01    0.128207E-02    0.139310E-01
     10.00    0.126676E-03    0.150860E-01    0.552414E-03    0.145336E-01 (used)
   ------------------------------------------------------------------------

         :::::::::::::::::::::::::::::::::::::::::::::::::::::
         ::                  THERMODYNAMIC                  ::
         :::::::::::::::::::::::::::::::::::::::::::::::::::::
         :: total free energy         -11.028794031715 Eh   ::
         ::.................................................::
         :: total energy              -11.043327637384 Eh   ::
         :: zero point energy           0.014959343347 Eh   ::
         :: G(RRHO) w/o ZPVE           -0.000425737677 Eh   ::
         :: G(RRHO) contrib.            0.014533605669 Eh   ::
         :::::::::::::::::::::::::::::::::::::::::::::::::::::
imag cut-off (cm-1) :    5.00
 found            1  significant imaginary frequency
 writing imag mode distorted coords to xtbhess.xyz
 for further optimization.

optimized geometry written to: xtbopt.xyz


           -------------------------------------------------
          | TOTAL ENERGY              -11.043327637384 Eh   |
          | TOTAL ENTHALPY            -11.028241617763 Eh   |
          | TOTAL FREE ENERGY         -11.028794031715 Eh   |
          | GRADIENT NORM               0.000833529998 Eh/α |
          | HOMO-LUMO GAP               1.257861136153 eV   |
           -------------------------------------------------

------------------------------------------------------------------------
 * finished run on 2020/05/12 at 11:44:13.853     
------------------------------------------------------------------------
 total:
 * wall-time:     0 d,  0 h,  0 min,  0.188 sec
 *  cpu-time:     0 d,  0 h,  0 min,  0.188 sec
 * ratio c/w:     0.999 speedup
 SCF:
 * wall-time:     0 d,  0 h,  0 min,  0.005 sec
 *  cpu-time:     0 d,  0 h,  0 min,  0.005 sec
 * ratio c/w:     0.997 speedup
 ANC optimizer:
 * wall-time:     0 d,  0 h,  0 min,  0.064 sec
 *  cpu-time:     0 d,  0 h,  0 min,  0.064 sec
 * ratio c/w:     0.999 speedup
 numerical hessian:
 * wall-time:     0 d,  0 h,  0 min,  0.102 sec
 *  cpu-time:     0 d,  0 h,  0 min,  0.102 sec
 * ratio c/w:     0.999 speedup

