 Entering Gaussian System
 *********************************************
 Gaussian 98:
 frequency output generated by the xtb code
 *********************************************
                         Standard orientation:
 --------------------------------------------------------------------
  Center     Atomic     Atomic              Coordinates (Angstroms)
  Number     Number      Type              X           Y           Z
 --------------------------------------------------------------------
    1          6             0       -1.664064    0.016932   -0.031262
    2          6             0       -0.491676   -0.296707   -0.727047
    3          7             0        0.731064   -0.004261    0.012773
    4          6             0       -0.514872    0.157182    0.754018
    5          6             0        1.939548    0.126854   -0.008481
 --------------------------------------------------------------------
     1 basis functions        1 primitive gaussians
     1 alpha electrons        1 beta electrons

 Harmonic frequencies (cm**-1), IR intensities (KM/Mole),
 Raman scattering activities (A**4/amu), Raman depolarization ratios,
 reduced masses (AMU), force constants (mDyne/A) and normal coordinates:
                      1                      2                      3
                        a                      a                      a 
 Frequencies --  -191.6942                99.9517               308.3244
 Red. masses --    13.0008                12.1985                12.4088
 Frc consts  --     0.0000                 0.0000                 0.0000
 IR Inten    --     1.3353                 0.4623                 0.0810
 Raman Activ --     0.0000                 0.0000                 0.0000
 Depolar     --     0.0000                 0.0000                 0.0000
 Atom AN      X      Y      Z        X      Y      Z        X      Y      Z
   1   6     0.00  -0.02  -0.08     0.11   0.60  -0.18    -0.01   0.12   0.39
   2   6     0.33   0.12   0.34     0.02  -0.37   0.09    -0.25  -0.15  -0.23
   3   7     0.01  -0.21  -0.67    -0.03  -0.29   0.09     0.01  -0.13  -0.43
   4   6    -0.34   0.08   0.34     0.02  -0.35   0.13     0.26   0.00  -0.27
   5   6    -0.00   0.04   0.13    -0.11   0.44  -0.14    -0.01   0.18   0.57
                      4                      5                      6
                        a                      a                      a 
 Frequencies --   450.9963               676.2094               791.1462
 Red. masses --    13.2281                12.4631                12.0348
 Frc consts  --     0.0000                 0.0000                 0.0000
 IR Inten    --     0.1791                 0.1820                 1.0403
 Raman Activ --     0.0000                 0.0000                 0.0000
 Depolar     --     0.0000                 0.0000                 0.0000
 Atom AN      X      Y      Z        X      Y      Z        X      Y      Z
   1   6    -0.06  -0.18   0.05     0.50  -0.09   0.03    -0.01   0.16   0.53
   2   6    -0.02   0.34  -0.08     0.24   0.01  -0.31     0.51  -0.10  -0.25
   3   7     0.11  -0.74   0.23    -0.47  -0.05   0.01    -0.00   0.03   0.10
   4   6    -0.02   0.32  -0.13     0.23   0.18   0.26    -0.50  -0.06  -0.28
   5   6    -0.01   0.32  -0.10    -0.46  -0.05   0.01     0.00  -0.03  -0.11
                      7                      8                      9
                        a                      a                      a 
 Frequencies --  1028.0385              1462.5051              1749.2212
 Red. masses --    12.1175                12.0163                12.9801
 Frc consts  --     0.0000                 0.0000                 0.0000
 IR Inten    --     0.1995                 0.2510                 0.2949
 Raman Activ --     0.0000                 0.0000                 0.0000
 Depolar     --     0.0000                 0.0000                 0.0000
 Atom AN      X      Y      Z        X      Y      Z        X      Y      Z
   1   6    -0.22   0.01  -0.01     0.70  -0.04   0.02    -0.07   0.01  -0.00
   2   6     0.37   0.16   0.50    -0.34   0.13   0.35     0.01  -0.02  -0.06
   3   7    -0.23  -0.01  -0.00     0.05   0.02  -0.00     0.69   0.07  -0.01
   4   6     0.38  -0.14  -0.49    -0.32  -0.09  -0.37     0.01   0.02   0.06
   5   6    -0.28  -0.03   0.00    -0.09  -0.01   0.00    -0.70  -0.07   0.01
