5
 energy: -7.875171897194 gnorm: 0.139809841693 xtb: 6.2.2 (9d81278992624c895f80dd42a50cac0aa55982e2)
C         0.72958700000000    0.09950500000000    0.43549000000000
N        -0.01071600000000    1.13192700000000   -0.30375300000000
C        -0.73235500000000    0.08522800000000    0.43387100000000
H         1.13343500000000   -0.64732300000000   -0.28155400000000
H        -1.11995100000000   -0.66933700000000   -0.28405400000000
5
 energy: -7.897459749677 gnorm: 0.087521771534 xtb: 6.2.2 (9d81278992624c895f80dd42a50cac0aa55982e2)
C         0.74533997322766    0.11054658022090    0.37515246425063
N        -0.01082802592019    1.13655545389482   -0.24446334805170
C        -0.74818684880468    0.09595983809187    0.37349585459473
H         1.22147011101255   -0.65966614833143   -0.25074580962977
H        -1.20779520951534   -0.68339572387616   -0.25343916116389
5
 energy: -7.906750166585 gnorm: 0.058755236518 xtb: 6.2.2 (9d81278992624c895f80dd42a50cac0aa55982e2)
C         0.76766739540331    0.11694113576051    0.32571777564979
N        -0.01019507873782    1.06615176766581   -0.19721085342154
C        -0.77052490406038    0.10191527287735    0.32401133677620
H         1.33940888535509   -0.62948662687450   -0.22478127970701
H        -1.32635629796020   -0.65552154942918   -0.22773697929744
5
 energy: -7.908247605652 gnorm: 0.013499419405 xtb: 6.2.2 (9d81278992624c895f80dd42a50cac0aa55982e2)
C         0.77245295260784    0.10589078022460    0.32651392287320
N        -0.01031553441911    1.07967876848341   -0.20692598800835
C        -0.77509517326635    0.09077416933712    0.32479663073011
H         1.36817332178793   -0.62487192841484   -0.22068252415613
H        -1.35521556671031   -0.65147178963029   -0.22370204143883
5
 energy: -7.908517794456 gnorm: 0.005697239546 xtb: 6.2.2 (9d81278992624c895f80dd42a50cac0aa55982e2)
C         0.77630805854111    0.09918919785811    0.32207416423172
N        -0.01025498778704    1.07362292457061   -0.20852926255128
C        -0.77880900565200    0.08399933741197    0.32034866878718
H         1.39009309969428   -0.61489080449475   -0.21541259047501
H        -1.37733716479635   -0.64192065534594   -0.21848097999260
5
 energy: -7.908590814146 gnorm: 0.003077951025 xtb: 6.2.2 (9d81278992624c895f80dd42a50cac0aa55982e2)
C         0.77748705250640    0.09421205926783    0.31848244957784
N        -0.01020570613213    1.06869960094831   -0.20945642417091
C        -0.77988308572509    0.07900088585602    0.31675461426915
H         1.40462863292581   -0.60729838091142   -0.21134001207847
H        -1.39202689357498   -0.63461416516075   -0.21444062759761
5
 energy: -7.908602404217 gnorm: 0.002068674433 xtb: 6.2.2 (9d81278992624c895f80dd42a50cac0aa55982e2)
C         0.77665318832531    0.09252119860679    0.31731473572797
N        -0.01019760021826    1.06790081841257   -0.20981741897567
C        -0.77901385896119    0.07732664165044    0.31558929059873
H         1.40901489149809   -0.60517348210408   -0.20998796780897
H        -1.39645662064395   -0.63257517656572   -0.21309863954205
5
 energy: -7.908608658062 gnorm: 0.000668972309 xtb: 6.2.2 (9d81278992624c895f80dd42a50cac0aa55982e2)
C         0.77507145114816    0.09126688380349    0.31635545426397
N        -0.01020282233868    1.06843304327034   -0.21001373888691
C        -0.77740575365456    0.07610347212899    0.31463402477730
H         1.41069732308656   -0.60418449011432   -0.20893048005285
H        -1.39816019824149   -0.63161890908850   -0.21204526010152
5
 energy: -7.908609143321 gnorm: 0.000244214737 xtb: 6.2.2 (9d81278992624c895f80dd42a50cac0aa55982e2)
C         0.77437789629394    0.09127798003982    0.31629408523792
N        -0.01020996698760    1.06919451344098   -0.20995737298630
C        -0.77671276520258    0.07612834250387    0.31457410235438
H         1.41024701841878   -0.60458740537568   -0.20889866460334
H        -1.39770218252253   -0.63201343060900   -0.21201215000266
