5
 energy: -7.908609145402 gnorm: 0.000244631463 xtb: 6.2.2 (9d81278992624c895f80dd42a50cac0aa55982e2)
C         0.77437947828596    0.09127447743679    0.31629122283659
N        -0.01020510159594    1.06919420044305   -0.20995920344165
C        -0.77671126850696    0.07613295839087    0.31457668072198
H         1.41024312358648   -0.60459515399572   -0.20890253208841
H        -1.39770623176954   -0.63200648227499   -0.21200616802850
