5
 energy: -9.116516909107 gnorm: 0.210634665865 xtb: 6.2.2 (9d81278992624c895f80dd42a50cac0aa55982e2)
C         0.08505300000000   -0.22355000000000   -0.65412500000000
C         0.98502100000000   -0.87898700000000    0.37412000000000
O        -0.98347400000000    0.40242700000000   -0.01296700000000
H         1.42432700000000   -0.10686900000000    1.03997200000000
H        -1.51092700000000    0.80697900000000   -0.74700000000000
5
 energy: -9.173883674881 gnorm: 0.185283106769 xtb: 6.2.2 (9d81278992624c895f80dd42a50cac0aa55982e2)
C         0.13377506544648   -0.14788330230135   -0.50064734453536
C         0.91426445189845   -0.85478523527189    0.37486274307745
O        -1.06083707313293    0.36269393230162   -0.05532414525509
H         1.52815432193828   -0.15957753161208    0.98188102585178
H        -1.51535676615028    0.79955213688370   -0.80077227913878
5
 energy: -8.947356899304 gnorm: 1.971091954661 xtb: 6.2.2 (9d81278992624c895f80dd42a50cac0aa55982e2)
C         0.14736839009033   -0.22561083830180   -0.15953979029147
C         0.88495945561248   -0.67836773629594    0.19004839578188
O        -1.05915095817803    0.36511840673660   -0.15833868442541
H         1.53349229722989   -0.25759883206762    0.96498505460097
H        -1.50666918475467    0.79645899992876   -0.83715497566598
5
 energy: -9.229423151479 gnorm: 0.065701039868 xtb: 6.2.2 (9d81278992624c895f80dd42a50cac0aa55982e2)
C         0.04422338311915   -0.17431809036002   -0.20080259359008
C         1.00994578517446   -0.75656183052601    0.24264458710387
O        -1.09517426284888    0.38515128892741   -0.14936338660940
H         1.54254625037776   -0.25602814305989    0.98206199245882
H        -1.50154115582249    0.80175677501852   -0.87454059936322
5
 energy: -9.246756748430 gnorm: 0.120771633463 xtb: 6.2.2 (9d81278992624c895f80dd42a50cac0aa55982e2)
C         0.01369604281693   -0.08816202108469   -0.07090128561474
C         0.99860068602382   -0.71402464662137    0.28197198253341
O        -1.31485822517771    0.30861814277918   -0.19372692717304
H         1.82294771266017   -0.36507843079173    0.99643229865315
H        -1.52038621632322    0.85864695571861   -1.01377606839880
5
 energy: -9.256977914985 gnorm: 0.069743143190 xtb: 6.2.2 (9d81278992624c895f80dd42a50cac0aa55982e2)
C        -0.00797608892619   -0.07054033958787   -0.06982384647459
C         0.98915707014975   -0.68282636007091    0.27434903803474
O        -1.26085160880420    0.34597538613528   -0.19191808049901
H         1.79594704213107   -0.39390589942166    0.99477853741386
H        -1.51627641455043    0.80129721294515   -1.00738564847500
5
 energy: -9.259184555600 gnorm: 0.155458464735 xtb: 6.2.2 (9d81278992624c895f80dd42a50cac0aa55982e2)
C        -0.07620440248320   -0.07341988656186   -0.00843031196976
C         0.99626878390281   -0.59514405666066    0.28596296408987
O        -1.28061248424082    0.22957779330811   -0.18866653767133
H         1.73538821133579   -0.40453649380522    0.90968493580745
H        -1.37484010851458    0.84352264371963   -0.99855105025624
5
 energy: -9.271417122029 gnorm: 0.070708965828 xtb: 6.2.2 (9d81278992624c895f80dd42a50cac0aa55982e2)
C        -0.08713698603209    0.01834085623477    0.03238562727229
C         0.95189004580200   -0.54131722525703    0.32369714201085
O        -1.30358405461624    0.27623550551544   -0.23141895660128
H         1.86936829651068   -0.51780229054348    0.92161352477724
H        -1.43053730166436    0.76454315405030   -1.04627733745909
5
 energy: -9.272033729484 gnorm: 0.062418981615 xtb: 6.2.2 (9d81278992624c895f80dd42a50cac0aa55982e2)
C        -0.07580104908087    0.03076249255979    0.10886997344820
C         0.98363112037916   -0.53723962282704    0.32806643475591
O        -1.34172727779044    0.28325932373153   -0.26279047486110
H         1.87782803341861   -0.54887397343862    0.89004259232720
H        -1.44393082692647    0.77209177997434   -1.06418852567022
5
 energy: -9.275117460352 gnorm: 0.037687427387 xtb: 6.2.2 (9d81278992624c895f80dd42a50cac0aa55982e2)
C        -0.08850497359447    0.03093655916709    0.07772352431798
C         0.95405751240964   -0.50204540485921    0.35915653095765
O        -1.35286166259457    0.22142833894206   -0.26180554419925
H         1.89127727516161   -0.54899051232083    0.87406963530030
H        -1.40396815138221    0.79867101907090   -1.04914414637669
5
 energy: -9.275990138797 gnorm: 0.029157200819 xtb: 6.2.2 (9d81278992624c895f80dd42a50cac0aa55982e2)
C        -0.09626892065121    0.03369123408431    0.06878309220847
C         0.94900985213060   -0.47545872982852    0.36557773135929
O        -1.32122757378304    0.23227052198754   -0.26194277390990
H         1.87088716218605   -0.56743086540296    0.86681913685422
H        -1.40240051988240    0.77692783915964   -1.03923718651209
5
 energy: -9.276962414935 gnorm: 0.017727026324 xtb: 6.2.2 (9d81278992624c895f80dd42a50cac0aa55982e2)
C        -0.10825118691001    0.02474505526945    0.08795302906693
C         0.95962453869370   -0.45266471329963    0.36904249108527
O        -1.34069201405469    0.21054634113198   -0.27657018341966
H         1.88006408845889   -0.58010988343613    0.86047264292994
H        -1.39074542618789    0.79748320033434   -1.04089797966249
5
 energy: -9.277465167296 gnorm: 0.014562768316 xtb: 6.2.2 (9d81278992624c895f80dd42a50cac0aa55982e2)
C        -0.11603517650401    0.01212879225892    0.09467480504396
C         0.96680711260638   -0.42077820398583    0.38279712276975
O        -1.35141579272127    0.18806059063458   -0.29808225785158
H         1.88708688119051   -0.59842481513681    0.85307820909443
H        -1.38644302457161    0.81901363622914   -1.03246787905658
5
 energy: -9.277821846931 gnorm: 0.015296973677 xtb: 6.2.2 (9d81278992624c895f80dd42a50cac0aa55982e2)
C        -0.11895468608506   -0.00885686992195    0.08600094904168
C         0.97472349693684   -0.39568883502222    0.39403229090121
O        -1.35171352927559    0.17304340215656   -0.31563077851630
H         1.88580698067497   -0.60873269075318    0.85347180285269
H        -1.38986226225117    0.84023499354079   -1.01787426427930
5
 energy: -9.278057173437 gnorm: 0.010412446698 xtb: 6.2.2 (9d81278992624c895f80dd42a50cac0aa55982e2)
C        -0.12242706560384   -0.02968429889822    0.07015694808005
C         0.97906999685127   -0.35191227811003    0.41737064678281
O        -1.34877102836443    0.15842516576826   -0.34335764687543
H         1.89485982149821   -0.63650759382033    0.85502108017062
H        -1.40273172438121    0.85967900506032   -0.99919102815806
5
 energy: -9.278224248668 gnorm: 0.012159345008 xtb: 6.2.2 (9d81278992624c895f80dd42a50cac0aa55982e2)
C        -0.11408751849010   -0.05567339096983    0.04051005400313
C         0.98189029340996   -0.34773088286031    0.42652556024256
O        -1.34113739601221    0.14723308131520   -0.35173608199304
H         1.88422522545679   -0.62621003238027    0.86163752011827
H        -1.41089060436445    0.88238122489522   -0.97693705237092
5
 energy: -9.278255227858 gnorm: 0.006402683652 xtb: 6.2.2 (9d81278992624c895f80dd42a50cac0aa55982e2)
C        -0.11312600628650   -0.04842140022108    0.04280576567634
C         0.97789871045843   -0.35064686779391    0.42701546070163
O        -1.34178169793796    0.14949042608446   -0.34978580576301
H         1.88666733505217   -0.62679559843581    0.85945370383665
H        -1.40965834128615    0.87637344036635   -0.97948912445162
5
 energy: -9.278264147648 gnorm: 0.007457173553 xtb: 6.2.2 (9d81278992624c895f80dd42a50cac0aa55982e2)
C        -0.11580145447092   -0.05243111542416    0.04012101228596
C         0.97767125706520   -0.34336106828565    0.43016382810681
O        -1.34345668395022    0.14317314349454   -0.35488742227305
H         1.88891154077517   -0.62907346608476    0.85992891562554
H        -1.40732465941923    0.88169250630002   -0.97532633374527
5
 energy: -9.278279964273 gnorm: 0.006201161315 xtb: 6.2.2 (9d81278992624c895f80dd42a50cac0aa55982e2)
C        -0.11482582569522   -0.05477054936007    0.03752200375548
C         0.97794182812989   -0.34424702184457    0.43012460347529
O        -1.34264687833263    0.14333185876042   -0.35601147054421
H         1.88762046257922   -0.62728420957540    0.86112813331619
H        -1.40808958668127    0.88296992201962   -0.97276327000275
5
 energy: -9.278303310448 gnorm: 0.005812247661 xtb: 6.2.2 (9d81278992624c895f80dd42a50cac0aa55982e2)
C        -0.11404526285924   -0.06065121910232    0.03164310746099
C         0.97750876345133   -0.34419664309231    0.43109325659330
O        -1.34232071092982    0.13975814965123   -0.36115210470464
H         1.88606221071023   -0.62307249723160    0.86341692279902
H        -1.40720500037250    0.88816220977501   -0.96500118214866
5
 energy: -9.278334634245 gnorm: 0.006362738853 xtb: 6.2.2 (9d81278992624c895f80dd42a50cac0aa55982e2)
C        -0.11462363200326   -0.06981881181768    0.02424758917051
C         0.97640574128439   -0.34294076012945    0.43223995745490
O        -1.34261138958681    0.13176436560783   -0.37134186826466
H         1.88459265834612   -0.61638508701269    0.86688710358005
H        -1.40376337804045    0.89738029335199   -0.95203278194082
5
 energy: -9.277731559653 gnorm: 0.016035787156 xtb: 6.2.2 (9d81278992624c895f80dd42a50cac0aa55982e2)
C        -0.14701378218690   -0.05007707440508    0.10584649777974
C         0.96010145578777   -0.40898204522080    0.41277026286839
O        -1.34186421808978    0.11967801052485   -0.40557862986505
H         1.90536792216854   -0.57015894140034    0.84477069852957
H        -1.37659137767961    0.90954005050139   -0.95780882931265
5
 energy: -9.278488574215 gnorm: 0.006354873002 xtb: 6.2.2 (9d81278992624c895f80dd42a50cac0aa55982e2)
C        -0.12741190608270   -0.08238651951685    0.04010887520336
C         0.96539565988406   -0.38328257125889    0.41862471729981
O        -1.34414393090814    0.13606599698754   -0.37424842806500
H         1.89227218712557   -0.57760218573761    0.86612365830323
H        -1.38611201001877    0.90720527952583   -0.95060882274142
5
 energy: -9.278352549152 gnorm: 0.006054160761 xtb: 6.2.2 (9d81278992624c895f80dd42a50cac0aa55982e2)
C        -0.12483611778788   -0.06311539598699    0.04879903234242
C         0.97037528729532   -0.32439416306891    0.45051143632067
O        -1.34092335516241    0.12121185844056   -0.38486515190892
H         1.88887981432762   -0.62932933583976    0.84138734098782
H        -1.39349562867266    0.89562703645509   -0.95583265774200
5
 energy: -9.278599801908 gnorm: 0.003116884461 xtb: 6.2.2 (9d81278992624c895f80dd42a50cac0aa55982e2)
C        -0.12954941428306   -0.07899751423432    0.04536358797649
C         0.96587005113557   -0.35987727409494    0.43512929548538
O        -1.34423422170611    0.13053008474376   -0.37963745268850
H         1.89317448762575   -0.59571356992834    0.85226581095212
H        -1.38526090277214    0.90405827351385   -0.95312124172550
5
 energy: -9.278635231329 gnorm: 0.002011178397 xtb: 6.2.2 (9d81278992624c895f80dd42a50cac0aa55982e2)
C        -0.13273489741703   -0.08479709859525    0.04643625244375
C         0.96302895399371   -0.36365046950915    0.43646006651659
O        -1.34583902198648    0.13197631835177   -0.37999582743847
H         1.89628007192375   -0.58978316539315    0.85018141954414
H        -1.38073510651393    0.90625441514579   -0.95308191106601
5
 energy: -9.278680492700 gnorm: 0.001746423436 xtb: 6.2.2 (9d81278992624c895f80dd42a50cac0aa55982e2)
C        -0.13823120366283   -0.09606605025355    0.04729297723392
C         0.95830548399223   -0.36017435711047    0.44596322705373
O        -1.34881090186621    0.13337877644356   -0.38121087817242
H         1.90094970916106   -0.58596697882275    0.84142755639449
H        -1.37221308762425    0.90882860974322   -0.95347288250973
5
 energy: -9.278694479743 gnorm: 0.000839262890 xtb: 6.2.2 (9d81278992624c895f80dd42a50cac0aa55982e2)
C        -0.14114268129323   -0.10401599578037    0.04698294475591
C         0.95511273397842   -0.35023543345344    0.45724361077872
O        -1.35019754005409    0.13340718158074   -0.38220514195366
H         1.90242542662139   -0.58834072103773    0.83176564756250
H        -1.36619793925248    0.90918496869081   -0.95378706114349
5
 energy: -9.278695994447 gnorm: 0.000394701964 xtb: 6.2.2 (9d81278992624c895f80dd42a50cac0aa55982e2)
C        -0.13957815154169   -0.10197351700948    0.04614364406514
C         0.95607932785186   -0.34997679139802    0.45599097063001
O        -1.34928095823875    0.13317064650631   -0.38167176666239
H         1.90078970820991   -0.58960942248053    0.83311991501152
H        -1.36800992628132    0.90838908438173   -0.95358276304428
