      -----------------------------------------------------------      
     |                   =====================                   |     
     |                           x T B                           |     
     |                   =====================                   |     
     |                         S. Grimme                         |     
     |          Mulliken Center for Theoretical Chemistry        |     
     |                    University of Bonn                     |     
      -----------------------------------------------------------      

   * xtb version 6.2.2 (9d81278992624c895f80dd42a50cac0aa55982e2) compiled by '@Darwin' on 04/03/2020

   xtb is free software: you can redistribute it and/or modify it under
   the terms of the GNU Lesser General Public License as published by
   the Free Software Foundation, either version 3 of the License, or
   (at your option) any later version.
   
   xtb is distributed in the hope that it will be useful,
   but WITHOUT ANY WARRANTY; without even the implied warranty of
   MERCHANTABILITY or FITNESS FOR A PARTICULAR PURPOSE.  See the
   GNU Lesser General Public License for more details.
   
   Cite this work as:
   * S. Grimme, C. Bannwarth, P. Shushkov, J. Chem. Theory Comput., 2017,
     13, 1989-2009. DOI: 10.1021/acs.jctc.7b00118
   * C. Bannwarth, S. Ehlert and S. Grimme., J. Chem. Theory Comput., 2019,
     15, 1652-1671. DOI: 10.1021/acs.jctc.8b01176
   * P. Pracht, E. Caldeweyher, S. Ehlert, S. Grimme, ChemRxiv, 2019, preprint.
     DOI: 10.26434/chemrxiv.8326202.v1
   
   for DFT-D4:
   * E. Caldeweyher, C. Bannwarth and S. Grimme, J. Chem. Phys., 2017,
     147, 034112. DOI: 10.1063/1.4993215
   * E. Caldeweyher, S. Ehlert, A. Hansen, H. Neugebauer, S. Spicher,
     C. Bannwarth and S. Grimme, J. Chem. Phys., 2019, 150, 154122.
     DOI: 10.1063/1.5090222
   
   for sTDA-xTB:
   * S. Grimme and C. Bannwarth, J. Chem. Phys., 2016, 145, 054103.
     DOI: 10.1063/1.4959605
   
   in the mass-spec context:
   * V. Asgeirsson, C. Bauer and S. Grimme, Chem. Sci., 2017, 8, 4879.
     DOI: 10.1039/c7sc00601b
   
   for metadynamics refer to:
   * S. Grimme, J. Chem. Theory Comput., 2019, 155, 2847-2862
     DOI: 10.1021/acs.jctc.9b00143
   
   with help from (in alphabetical order)
   C. Bannwarth, F. Bohle, G. Brandenburg, E. Caldeweyher, M. Checinski,
   S. Dohm, S. Ehlert, S. Ehrlich, F. März, H. Neugebauer, J. Pisarek,
   P. Pracht, P. Shushkov, and S. Spicher.
   
 * started run on 2020/05/12 at 11:45:14.293     

           -------------------------------------------------
          |                Calculation Setup                |
           -------------------------------------------------

          program call               : xtb --input H2C2O1_4_S_0.input H2C2O1_4_S_0.xyz --ohess --molden --namespace H2C2O1_4_S_0 output.out
          calculation namespace      : H2C2O1_4_S_0
          coordinate file            : H2C2O1_4_S_0.xyz
          number of atoms            :                     5
          number of electrons        :                    16
          charge                     :                     0
          spin                       :                   0.0
          first test random number   :      0.88834163878703

   ID    Z sym.   atoms
    1    6 C      1, 2
    2    8 O      3
    3    1 H      4, 5

           -------------------------------------------------
          |                 G F N 2 - x T B                 |
           -------------------------------------------------

        Reference                      10.1021/acs.jctc.8b01176
      * Hamiltonian:
        H0-scaling (s, p, d)           1.850000    2.230000    2.230000
        zeta-weighting                 0.500000
      * Dispersion:
        s8                             2.700000
        a1                             0.520000
        a2                             5.000000
        s9                             5.000000
      * Repulsion:
        kExp                           1.500000    1.000000
        rExp                           1.000000
      * Coulomb:
        alpha                          2.000000
        third order                    shell-resolved
        anisotropic                    true
        a3                             3.000000
        a5                             4.000000
        cn-shift                       1.200000
        cn-exp                         4.000000
        max-rad                        5.000000


          ...................................................
          :                      SETUP                      :
          :.................................................:
          :  # basis functions                  14          :
          :  # atomic orbitals                  14          :
          :  # shells                            8          :
          :  # electrons                        16          :
          :  max. iterations                   250          :
          :  Hamiltonian                  GFN2-xTB          :
          :  restarted?                      false          :
          :  GBSA solvation                  false          :
          :  PC potential                    false          :
          :  electronic temp.          300.0000000     K    :
          :  accuracy                    1.0000000          :
          :  -> integral cutoff          0.2500000E+02      :
          :  -> integral neglect         0.1000000E-07      :
          :  -> SCF convergence          0.1000000E-05 Eh   :
          :  -> wf. convergence          0.1000000E-03 e    :
          :  Broyden damping             0.4000000          :
          ...................................................

 iter      E             dE          RMSdq      gap      omega  full diag
   1     -9.1233009 -0.912330E+01  0.740E+00    1.24       0.0  T
   2     -8.7612374  0.362064E+00  0.872E+00    1.57       1.0  T
   3     -8.9692641 -0.208027E+00  0.554E+00    1.25       1.0  T
   4     -9.1413953 -0.172131E+00  0.327E+00    1.22       1.0  T
   5     -9.1628407 -0.214454E-01  0.175E+00    1.16       1.0  T
   6     -9.1654599 -0.261917E-02  0.122E+00    1.15       1.0  T
   7     -9.1663228 -0.862915E-03  0.211E-01    1.12       1.0  T
   8     -9.1663567 -0.339397E-04  0.105E-01    1.12       1.0  T
   9     -9.1663717 -0.149582E-04  0.542E-02    1.11       1.0  T
  10     -9.1663736 -0.195393E-05  0.140E-02    1.11       3.2  T
  11     -9.1663737 -0.321244E-07  0.136E-03    1.11      32.8  T
  12     -9.1663737 -0.517541E-08  0.941E-04    1.11      47.5  T
  13     -9.1663737 -0.242434E-09  0.163E-04    1.11     274.3  T

   *** convergence criteria satisfied after 13 iterations ***

         #    Occupation            Energy/Eh            Energy/eV
      -------------------------------------------------------------
         1        2.0000           -0.7278942             -19.8070
         2        2.0000           -0.6405169             -17.4294
         3        2.0000           -0.5788448             -15.7512
         4        2.0000           -0.5726518             -15.5826
         5        2.0000           -0.5308538             -14.4453
         6        2.0000           -0.4952513             -13.4765
         7        2.0000           -0.4081541             -11.1064
         8        2.0000           -0.3746919             -10.1959 (HOMO)
         9                         -0.3337431              -9.0816 (LUMO)
        10                         -0.2747440              -7.4762
        11                          0.0506046               1.3770
        12                          0.1265165               3.4427
        13                          0.1516929               4.1278
        14                          0.1743136               4.7433
      -------------------------------------------------------------
                  HL-Gap            0.0409487 Eh            1.1143 eV
             Fermi-level           -0.3542175 Eh           -9.6387 eV

 SCC (total)                   0 d,  0 h,  0 min,  0.003 sec
 SCC setup                      ...        0 min,  0.000 sec (  3.133%)
 Dispersion                     ...        0 min,  0.000 sec (  0.484%)
 integral evaluation            ...        0 min,  0.001 sec ( 26.105%)
 zeroth order Hamiltonian       ...        0 min,  0.000 sec (  0.615%)
 iterations                     ...        0 min,  0.001 sec ( 41.557%)
 molecular gradient             ...        0 min,  0.001 sec ( 25.679%)
 printout                       ...        0 min,  0.000 sec (  1.968%)

         :::::::::::::::::::::::::::::::::::::::::::::::::::::
         ::                     SUMMARY                     ::
         :::::::::::::::::::::::::::::::::::::::::::::::::::::
         :: total energy              -9.116516909658 Eh    ::
         :: gradient norm              0.210635946955 Eh/a0 ::
         :: HOMO-LUMO gap              1.114272118045 eV    ::
         ::.................................................::
         :: SCC energy                -9.166373686946 Eh    ::
         :: -> isotropic ES            0.010543492261 Eh    ::
         :: -> anisotropic ES          0.000849463447 Eh    ::
         :: -> anisotropic XC          0.008273230451 Eh    ::
         :: -> dispersion             -0.001341874754 Eh    ::
         :: repulsion energy           0.049856782175 Eh    ::
         :: add. restraining           0.000000000000 Eh    ::
         :::::::::::::::::::::::::::::::::::::::::::::::::::::

      ----------------------------------------------------------- 
     |                   =====================                   |
     |                        A N C O P T                        |
     |                   =====================                   |
     |               Approximate Normal Coordinate               |
     |                Rational Function Optimizer                |
      ----------------------------------------------------------- 

          ...................................................
          :                      SETUP                      :
          :.................................................:
          :   optimization level            normal          :
          :   max. optcycles                   200          :
          :   ANC micro-cycles                  20          :
          :   degrees of freedom                 9          :
          :.................................................:
          :   RF solver                   davidson          :
          :   write xtbopt.log                true          :
          :   linear?                        false          :
          :   energy convergence         0.5000000E-05 Eh   :
          :   grad. convergence          0.1000000E-02 Eh/α :
          :   maximium RF displ.         1.0000000          :
          :   Hlow (freq-cutoff)         0.1000000E-01      :
          :   Hmax (freq-cutoff)         5.0000000          :
          :   S6 in model hess.         20.0000000          :
          ...................................................

generating ANC from model Hessian ...
Using Lindh-Hessian (1995)
 Shifting diagonal of input Hessian by    0.0000000000000000     
 Lowest  eigenvalues of input Hessian
   -0.000000   -0.000000    0.000000    0.000000    0.000000    0.000000
    0.011425    0.012642    0.056200    0.108754    0.181796    0.710919
    0.955030    1.129788    1.334816
 Highest eigenvalues
    0.108754    0.181796    0.710919    0.955030    1.129788    1.334816


........................................................................
.............................. CYCLE    1 ..............................
........................................................................
   1     -9.1663737 -0.916637E+01  0.161E-04    1.11       0.0  T
   2     -9.1663737  0.805809E-10  0.134E-04    1.11     333.8  T
   3     -9.1663737  0.313973E-09  0.264E-04    1.11     169.2  T
     SCC iter.                  ...        0 min,  0.000 sec
     gradient                   ...        0 min,  0.001 sec
 * total energy  :    -9.1165169 Eh     change        0.5506902E-09 Eh
   gradient norm :     0.2106347 Eh/α   predicted     0.0000000E+00 (-100.00%)
   displ. norm   :     0.4873311 α      lambda       -0.6327058E-01
   maximum displ.:     0.3761082 α      in ANC's #1, #6, #4, ...

........................................................................
.............................. CYCLE    2 ..............................
........................................................................
   1     -9.2374748 -0.923747E+01  0.293E+00    2.29       0.0  T
   2     -9.1546553  0.828196E-01  0.407E+00    2.38       1.0  T
   3     -9.2419068 -0.872516E-01  0.177E+00    2.31       1.0  T
   4     -9.2508675 -0.896073E-02  0.169E-01    2.32       1.0  T
   5     -9.2508834 -0.158136E-04  0.900E-02    2.32       1.0  T
   6     -9.2508879 -0.450642E-05  0.166E-02    2.32       2.7  T
   7     -9.2508883 -0.395749E-06  0.685E-03    2.32       6.5  T
   8     -9.2508884 -0.149686E-06  0.231E-03    2.32      19.3  T
   9     -9.2508884 -0.166216E-07  0.468E-04    2.32      95.5  T
  10     -9.2508884 -0.612825E-10  0.192E-04    2.32     232.7  T
     SCC iter.                  ...        0 min,  0.001 sec
     gradient                   ...        0 min,  0.001 sec
 * total energy  :    -9.1738837 Eh     change       -0.5736677E-01 Eh
   gradient norm :     0.1847817 Eh/α   predicted    -0.3914839E-01 ( -31.76%)
   displ. norm   :     0.8673627 α      lambda       -0.1557142E+00
   maximum displ.:     0.6078480 α      in ANC's #6, #7, #3, ...

........................................................................
.............................. CYCLE    3 ..............................
........................................................................
   1     -9.5368745 -0.953687E+01  0.483E+00    6.84       0.0  T
   2     -9.5443116 -0.743714E-02  0.283E+00    6.63       1.0  T
   3     -9.5436819  0.629717E-03  0.133E+00    6.73       1.0  T
   4     -9.5460666 -0.238473E-02  0.210E-01    6.66       1.0  T
   5     -9.5460945 -0.278618E-04  0.507E-02    6.68       1.0  T
   6     -9.5460947 -0.159248E-06  0.259E-02    6.68       1.7  T
   7     -9.5460954 -0.714913E-06  0.127E-02    6.68       3.5  T
   8     -9.5460960 -0.577519E-06  0.176E-03    6.68      25.4  T
   9     -9.5460960 -0.251301E-08  0.291E-04    6.68     153.7  T
  10     -9.5460960 -0.168093E-09  0.668E-05    6.68     669.6  T
     SCC iter.                  ...        0 min,  0.001 sec
     gradient                   ...        0 min,  0.001 sec
 * total energy  :    -8.9473569 Eh     change        0.2265268E+00 Eh
   gradient norm :     1.9538597 Eh/α   predicted    -0.1364304E+00 (-160.23%)
   displ. norm   :     0.3922371 α      lambda       -0.7324086E+00
   maximum displ.:     0.2251417 α      in ANC's #6, #7, #3, ...

........................................................................
.............................. CYCLE    4 ..............................
........................................................................
   1     -9.3895233 -0.938952E+01  0.203E+00    4.52       0.0  T
   2     -9.3933165 -0.379324E-02  0.178E+00    4.35       1.0  T
   3     -9.4011180 -0.780147E-02  0.843E-01    4.52       1.0  T
   4     -9.4018939 -0.775917E-03  0.519E-01    4.45       1.0  T
   5     -9.4023217 -0.427745E-03  0.418E-02    4.48       1.1  T
   6     -9.4023220 -0.366669E-06  0.143E-02    4.48       3.1  T
   7     -9.4023225 -0.439025E-06  0.387E-03    4.48      11.6  T
   8     -9.4023225 -0.428255E-08  0.603E-04    4.48      74.2  T
   9     -9.4023225 -0.291788E-09  0.195E-04    4.48     228.9  T
     SCC iter.                  ...        0 min,  0.001 sec
     gradient                   ...        0 min,  0.001 sec
 * total energy  :    -9.2294232 Eh     change       -0.2820663E+00 Eh
   gradient norm :     0.0655452 Eh/α   predicted    -0.4225448E+00 (  49.80%)
   displ. norm   :     0.8419402 α      lambda       -0.4799496E-01
   maximum displ.:     0.6619812 α      in ANC's #1, #2, #3, ...

........................................................................
.............................. CYCLE    5 ..............................
........................................................................
   1     -9.3536355 -0.935364E+01  0.274E+00    5.03       0.0  T
   2     -9.3337002  0.199353E-01  0.298E+00    5.36       1.0  T
   3     -9.3746489 -0.409487E-01  0.103E+00    5.08       1.0  T
   4     -9.3755827 -0.933820E-03  0.176E-01    5.11       1.0  T
   5     -9.3755900 -0.725623E-05  0.543E-02    5.11       1.0  T
   6     -9.3755912 -0.120134E-05  0.965E-03    5.11       4.6  T
   7     -9.3755912 -0.268230E-07  0.359E-03    5.11      12.5  T
   8     -9.3755912 -0.319616E-07  0.115E-03    5.11      38.8  T
   9     -9.3755912 -0.955302E-09  0.398E-04    5.11     112.4  T
  10     -9.3755912 -0.595080E-10  0.447E-05    5.11    1001.3  T
     SCC iter.                  ...        0 min,  0.001 sec
     gradient                   ...        0 min,  0.001 sec
 * total energy  :    -9.2467567 Eh     change       -0.1733360E-01 Eh
   gradient norm :     0.1189175 Eh/α   predicted    -0.4100844E-01 ( 136.58%)
   displ. norm   :     0.1993375 α      lambda       -0.1463400E-01
   maximum displ.:     0.1527538 α      in ANC's #2, #5, #6, ...

........................................................................
.............................. CYCLE    6 ..............................
........................................................................
   1     -9.3956327 -0.939563E+01  0.995E-01    5.31       0.0  T
   2     -9.3924876  0.314509E-02  0.115E+00    5.21       1.0  T
   3     -9.3987460 -0.625831E-02  0.351E-01    5.28       1.0  T
   4     -9.3988308 -0.848753E-04  0.513E-02    5.27       1.0  T
   5     -9.3988314 -0.550186E-06  0.195E-02    5.27       2.3  T
   6     -9.3988315 -0.119179E-06  0.388E-03    5.27      11.5  T
   7     -9.3988315 -0.192097E-07  0.595E-04    5.27      75.1  T
   8     -9.3988315 -0.131468E-09  0.153E-04    5.27     292.3  T
     SCC iter.                  ...        0 min,  0.001 sec
     gradient                   ...        0 min,  0.001 sec
 * total energy  :    -9.2569779 Eh     change       -0.1022117E-01 Eh
   gradient norm :     0.0692016 Eh/α   predicted    -0.7607741E-02 ( -25.57%)
   displ. norm   :     0.4748526 α      lambda       -0.2160757E-01
   maximum displ.:     0.3000301 α      in ANC's #2, #6, #5, ...

........................................................................
.............................. CYCLE    7 ..............................
........................................................................
   1     -9.4190203 -0.941902E+01  0.175E+00    5.86       0.0  T
   2     -9.4162697  0.275056E-02  0.151E+00    5.75       1.0  T
   3     -9.4231490 -0.687924E-02  0.837E-01    5.87       1.0  T
   4     -9.4242889 -0.113995E-02  0.149E-01    5.84       1.0  T
   5     -9.4242937 -0.479452E-05  0.491E-02    5.84       1.0  T
   6     -9.4242948 -0.108643E-05  0.617E-03    5.84       7.2  T
   7     -9.4242948 -0.193931E-07  0.273E-03    5.84      16.4  T
   8     -9.4242948 -0.123364E-07  0.719E-04    5.84      62.2  T
   9     -9.4242948 -0.458870E-09  0.113E-04    5.84     395.5  T
     SCC iter.                  ...        0 min,  0.001 sec
     gradient                   ...        0 min,  0.001 sec
 * total energy  :    -9.2591846 Eh     change       -0.2206641E-02 Eh
   gradient norm :     0.1549629 Eh/α   predicted    -0.1323989E-01 ( 500.00%)
   displ. norm   :     0.4764523 α      lambda       -0.2579287E-01
   maximum displ.:     0.4232556 α      in ANC's #1, #2, #3, ...

........................................................................
.............................. CYCLE    8 ..............................
........................................................................
   1     -9.4267252 -0.942673E+01  0.104E+00    6.26       0.0  T
   2     -9.4265014  0.223745E-03  0.755E-01    6.28       1.0  T
   3     -9.4273637 -0.862299E-03  0.525E-01    6.23       1.0  T
   4     -9.4280441 -0.680314E-03  0.842E-02    6.25       1.0  T
   5     -9.4280459 -0.181424E-05  0.243E-02    6.25       1.8  T
   6     -9.4280465 -0.603857E-06  0.419E-03    6.25      10.7  T
   7     -9.4280465 -0.113959E-07  0.141E-03    6.25      31.8  T
   8     -9.4280465 -0.101499E-08  0.488E-04    6.25      91.7  T
   9     -9.4280465 -0.370537E-09  0.107E-04    6.25     416.5  T
     SCC iter.                  ...        0 min,  0.001 sec
     gradient                   ...        0 min,  0.001 sec
 * total energy  :    -9.2714171 Eh     change       -0.1223257E-01 Eh
   gradient norm :     0.0675770 Eh/α   predicted    -0.1582401E-01 (  29.36%)
   displ. norm   :     0.2091987 α      lambda       -0.7535017E-02
   maximum displ.:     0.1221955 α      in ANC's #4, #6, #1, ...

........................................................................
.............................. CYCLE    9 ..............................
........................................................................
   1     -9.4183432 -0.941834E+01  0.109E+00    6.11       0.0  T
   2     -9.4153449  0.299828E-02  0.129E+00    6.15       1.0  T
   3     -9.4228390 -0.749413E-02  0.321E-01    6.08       1.0  T
   4     -9.4228580 -0.190093E-04  0.119E-01    6.08       1.0  T
   5     -9.4228684 -0.103575E-04  0.166E-02    6.08       2.7  T
   6     -9.4228685 -0.163216E-06  0.374E-03    6.08      12.0  T
   7     -9.4228685 -0.692022E-09  0.149E-03    6.08      30.0  T
   8     -9.4228685 -0.464545E-08  0.316E-04    6.08     141.4  T
   9     -9.4228685 -0.501643E-10  0.755E-05    6.08     592.3  T
     SCC iter.                  ...        0 min,  0.001 sec
     gradient                   ...        0 min,  0.001 sec
 * total energy  :    -9.2720337 Eh     change       -0.6166075E-03 Eh
   gradient norm :     0.0606940 Eh/α   predicted    -0.3932391E-02 ( 537.75%)
   displ. norm   :     0.1993208 α      lambda       -0.6136539E-02
   maximum displ.:     0.1465808 α      in ANC's #2, #4, #5, ...

........................................................................
.............................. CYCLE   10 ..............................
........................................................................
   1     -9.4317417 -0.943174E+01  0.719E-01    6.45       0.0  T
   2     -9.4317652 -0.234587E-04  0.474E-01    6.45       1.0  T
   3     -9.4314239  0.341286E-03  0.402E-01    6.47       1.0  T
   4     -9.4320018 -0.577881E-03  0.520E-02    6.46       1.0  T
   5     -9.4320044 -0.260693E-05  0.166E-02    6.46       2.7  T
   6     -9.4320046 -0.166824E-06  0.477E-03    6.46       9.4  T
   7     -9.4320046 -0.111176E-07  0.741E-04    6.46      60.3  T
   8     -9.4320046 -0.789004E-09  0.337E-04    6.46     132.5  T
     SCC iter.                  ...        0 min,  0.001 sec
     gradient                   ...        0 min,  0.001 sec
 * total energy  :    -9.2751175 Eh     change       -0.3083731E-02 Eh
   gradient norm :     0.0347757 Eh/α   predicted    -0.3190173E-02 (   3.45%)
   displ. norm   :     0.1105351 α      lambda       -0.2981001E-02
   maximum displ.:     0.0636282 α      in ANC's #2, #6, #5, ...

........................................................................
.............................. CYCLE   11 ..............................
........................................................................
   1     -9.4465244 -0.944652E+01  0.601E-01    6.63       0.0  T
   2     -9.4460132  0.511192E-03  0.600E-01    6.61       1.0  T
   3     -9.4476195 -0.160629E-02  0.189E-01    6.63       1.0  T
   4     -9.4476437 -0.242033E-04  0.234E-02    6.63       1.9  T
   5     -9.4476439 -0.235934E-06  0.900E-03    6.63       5.0  T
   6     -9.4476440 -0.252324E-07  0.183E-03    6.63      24.4  T
   7     -9.4476440 -0.225834E-08  0.426E-04    6.63     105.0  T
   8     -9.4476440 -0.720828E-10  0.144E-04    6.63     310.5  T
     SCC iter.                  ...        0 min,  0.001 sec
     gradient                   ...        0 min,  0.001 sec
 * total energy  :    -9.2759901 Eh     change       -0.8726784E-03 Eh
   gradient norm :     0.0278987 Eh/α   predicted    -0.1508711E-02 (  72.88%)
   displ. norm   :     0.1060013 α      lambda       -0.1433582E-02
   maximum displ.:     0.0742933 α      in ANC's #2, #6, #3, ...

........................................................................
.............................. CYCLE   12 ..............................
........................................................................
   1     -9.4425778 -0.944258E+01  0.402E-01    6.59       0.0  T
   2     -9.4425107  0.671212E-04  0.310E-01    6.59       1.0  T
   3     -9.4426574 -0.146689E-03  0.202E-01    6.59       1.0  T
   4     -9.4427322 -0.748730E-04  0.172E-02    6.59       2.6  T
   5     -9.4427324 -0.195482E-06  0.714E-03    6.59       6.3  T
   6     -9.4427324 -0.159407E-07  0.144E-03    6.59      31.0  T
   7     -9.4427324 -0.153518E-08  0.264E-04    6.59     169.3  T
   8     -9.4427324 -0.516245E-10  0.109E-04    6.59     411.0  T
     SCC iter.                  ...        0 min,  0.001 sec
     gradient                   ...        0 min,  0.001 sec
 * total energy  :    -9.2769624 Eh     change       -0.9722761E-03 Eh
   gradient norm :     0.0153302 Eh/α   predicted    -0.7248466E-03 ( -25.45%)
   displ. norm   :     0.1133587 α      lambda       -0.7564807E-03
   maximum displ.:     0.0675900 α      in ANC's #6, #2, #4, ...

........................................................................
.............................. CYCLE   13 ..............................
........................................................................
   1     -9.4429072 -0.944291E+01  0.424E-01    6.61       0.0  T
   2     -9.4428853  0.219089E-04  0.290E-01    6.61       1.0  T
   3     -9.4427932  0.920570E-04  0.235E-01    6.60       1.0  T
   4     -9.4429743 -0.181054E-03  0.135E-02    6.60       3.3  T
   5     -9.4429744 -0.166833E-06  0.576E-03    6.60       7.8  T
   6     -9.4429745 -0.101947E-07  0.113E-03    6.60      39.7  T
   7     -9.4429745 -0.529427E-09  0.222E-04    6.60     201.1  T
   8     -9.4429745 -0.445564E-10  0.986E-05    6.60     453.5  T
     SCC iter.                  ...        0 min,  0.001 sec
     gradient                   ...        0 min,  0.001 sec
 * total energy  :    -9.2774652 Eh     change       -0.5027524E-03 Eh
   gradient norm :     0.0107206 Eh/α   predicted    -0.3831020E-03 ( -23.80%)
   displ. norm   :     0.0974473 α      lambda       -0.4852759E-03
   maximum displ.:     0.0561061 α      in ANC's #4, #6, #2, ...

........................................................................
.............................. CYCLE   14 ..............................
........................................................................
   1     -9.4448772 -0.944488E+01  0.374E-01    6.60       0.0  T
   2     -9.4448790 -0.180631E-05  0.228E-01    6.60       1.0  T
   3     -9.4448726  0.641435E-05  0.415E-02    6.60       1.1  T
   4     -9.4448803 -0.778777E-05  0.730E-03    6.59       6.1  T
   5     -9.4448804 -0.167975E-07  0.182E-03    6.60      24.6  T
   6     -9.4448804 -0.976470E-09  0.542E-04    6.59      82.5  T
   7     -9.4448804 -0.106109E-09  0.120E-04    6.59     371.9  T
     SCC iter.                  ...        0 min,  0.000 sec
     gradient                   ...        0 min,  0.001 sec
 * total energy  :    -9.2778218 Eh     change       -0.3566796E-03 Eh
   gradient norm :     0.0121757 Eh/α   predicted    -0.2449420E-03 ( -31.33%)
   displ. norm   :     0.1453556 α      lambda       -0.6211569E-03
   maximum displ.:     0.0985487 α      in ANC's #4, #6, #7, ...

........................................................................
.............................. CYCLE   15 ..............................
........................................................................
   1     -9.4452627 -0.944526E+01  0.531E-01    6.59       0.0  T
   2     -9.4452649 -0.224044E-05  0.325E-01    6.59       1.0  T
   3     -9.4451764  0.885604E-04  0.140E-01    6.59       1.0  T
   4     -9.4452718 -0.954399E-04  0.821E-03    6.58       5.4  T
   5     -9.4452718 -0.349481E-07  0.327E-03    6.58      13.7  T
   6     -9.4452718 -0.190473E-08  0.822E-04    6.58      54.4  T
   7     -9.4452718 -0.465690E-09  0.157E-04    6.58     285.8  T
     SCC iter.                  ...        0 min,  0.000 sec
     gradient                   ...        0 min,  0.001 sec
 * total energy  :    -9.2780572 Eh     change       -0.2353265E-03 Eh
   gradient norm :     0.0084391 Eh/α   predicted    -0.3171384E-03 (  34.77%)
   displ. norm   :     0.1089999 α      lambda       -0.4625770E-03
   maximum displ.:     0.0722373 α      in ANC's #4, #1, #5, ...

........................................................................
.............................. CYCLE   16 ..............................
........................................................................
   1     -9.4481966 -0.944820E+01  0.360E-01    6.58       0.0  T
   2     -9.4481911  0.546319E-05  0.224E-01    6.58       1.0  T
   3     -9.4480696  0.121531E-03  0.194E-01    6.59       1.0  T
   4     -9.4482184 -0.148766E-03  0.557E-03    6.59       8.0  T
   5     -9.4482184 -0.629754E-08  0.300E-03    6.59      14.9  T
   6     -9.4482184 -0.422645E-08  0.333E-04    6.59     134.4  T
   7     -9.4482184 -0.400782E-10  0.117E-04    6.59     381.1  T
     SCC iter.                  ...        0 min,  0.000 sec
     gradient                   ...        0 min,  0.001 sec
 * total energy  :    -9.2782242 Eh     change       -0.1670752E-03 Eh
   gradient norm :     0.0108492 Eh/α   predicted    -0.2340364E-03 (  40.08%)
   displ. norm   :     0.0229877 α      lambda       -0.7125954E-04
   maximum displ.:     0.0149200 α      in ANC's #1, #3, #4, ...

........................................................................
.............................. CYCLE   17 ..............................
........................................................................
   1     -9.4497479 -0.944975E+01  0.811E-02    6.63       0.0  T
   2     -9.4497480 -0.664559E-07  0.520E-02    6.63       1.0  T
   3     -9.4497440  0.398593E-05  0.445E-02    6.63       1.0  T
   4     -9.4497505 -0.650575E-05  0.328E-03    6.63      13.6  T
   5     -9.4497505 -0.627273E-08  0.155E-03    6.63      28.8  T
   6     -9.4497505 -0.118308E-08  0.241E-04    6.63     185.7  T
   7     -9.4497505 -0.489511E-10  0.551E-05    6.63     811.7  T
     SCC iter.                  ...        0 min,  0.001 sec
     gradient                   ...        0 min,  0.001 sec
 * total energy  :    -9.2782552 Eh     change       -0.3097919E-04 Eh
   gradient norm :     0.0033753 Eh/α   predicted    -0.3564930E-04 (  15.07%)
   displ. norm   :     0.0282670 α      lambda       -0.3448977E-04
   maximum displ.:     0.0169562 α      in ANC's #4, #2, #6, ...

........................................................................
.............................. CYCLE   18 ..............................
........................................................................
   1     -9.4478812 -0.944788E+01  0.103E-01    6.60       0.0  T
   2     -9.4478820 -0.761401E-06  0.636E-02    6.61       1.0  T
   3     -9.4478783  0.369009E-05  0.297E-02    6.61       1.5  T
   4     -9.4478823 -0.405143E-05  0.463E-03    6.61       9.7  T
   5     -9.4478824 -0.577214E-07  0.156E-03    6.61      28.7  T
   6     -9.4478824 -0.127034E-08  0.391E-04    6.61     114.3  T
   7     -9.4478824 -0.714557E-10  0.556E-05    6.61     803.7  T
     SCC iter.                  ...        0 min,  0.001 sec
     gradient                   ...        0 min,  0.001 sec
 * total energy  :    -9.2782641 Eh     change       -0.8919790E-05 Eh
   gradient norm :     0.0047147 Eh/α   predicted    -0.1725781E-04 (  93.48%)
   displ. norm   :     0.0105345 α      lambda       -0.2065408E-04
   maximum displ.:     0.0064692 α      in ANC's #1, #4, #5, ...

........................................................................
.............................. CYCLE   19 ..............................
........................................................................
   1     -9.4484842 -0.944848E+01  0.279E-02    6.61       0.0  T
   2     -9.4484843 -0.746687E-07  0.165E-02    6.61       2.7  T
   3     -9.4484843 -0.504483E-08  0.216E-03    6.61      20.7  T
   4     -9.4484843  0.543850E-08  0.177E-03    6.61      25.3  T
   5     -9.4484843 -0.133382E-07  0.456E-04    6.61      98.2  T
   6     -9.4484843 -0.252854E-09  0.143E-04    6.61     312.0  T
     SCC iter.                  ...        0 min,  0.000 sec
     gradient                   ...        0 min,  0.001 sec
 * total energy  :    -9.2782800 Eh     change       -0.1581662E-04 Eh
   gradient norm :     0.0030245 Eh/α   predicted    -0.1032913E-04 ( -34.69%)
   displ. norm   :     0.0282565 α      lambda       -0.3101459E-04
   maximum displ.:     0.0173146 α      in ANC's #4, #1, #2, ...

........................................................................
.............................. CYCLE   20 ..............................
........................................................................
   1     -9.4491080 -0.944911E+01  0.854E-02    6.62       0.0  T
   2     -9.4491081 -0.517007E-07  0.525E-02    6.62       1.0  T
   3     -9.4491039  0.415376E-05  0.307E-02    6.62       1.5  T
   4     -9.4491085 -0.451360E-05  0.186E-03    6.62      24.1  T
   5     -9.4491085 -0.226780E-08  0.720E-04    6.62      62.1  T
   6     -9.4491085 -0.581366E-10  0.175E-04    6.62     255.9  T
     SCC iter.                  ...        0 min,  0.001 sec
     gradient                   ...        0 min,  0.001 sec
 * total energy  :    -9.2783033 Eh     change       -0.2334618E-04 Eh
   gradient norm :     0.0024925 Eh/α   predicted    -0.1552059E-04 ( -33.52%)
   displ. norm   :     0.0476165 α      lambda       -0.4002782E-04
   maximum displ.:     0.0275044 α      in ANC's #4, #1, #2, ...
 * RMSD in coord.:     1.1045657 α      energy gain  -0.1617864E+00 Eh

generating ANC from model Hessian ...
Using Lindh-Hessian (1995)
 Shifting diagonal of input Hessian by    9.5856290354916131E-003
 Lowest  eigenvalues of input Hessian
   -0.000000   -0.000000   -0.000000    0.000000    0.000000    0.000000
    0.010000    0.010454    0.139907    0.268399    0.525456    0.828179
    1.282008    1.454343    2.766285
 Highest eigenvalues
    0.268399    0.525456    0.828179    1.282008    1.454343    2.766285


........................................................................
.............................. CYCLE   21 ..............................
........................................................................
   1     -9.4493388 -0.944934E+01  0.147E-01    6.62       0.0  T
   2     -9.4493390 -0.214130E-06  0.910E-02    6.63       1.0  T
   3     -9.4493293  0.965872E-05  0.466E-02    6.62       1.0  T
   4     -9.4493399 -0.105443E-04  0.329E-03    6.63      13.6  T
   5     -9.4493399 -0.280704E-08  0.538E-04    6.63      83.2  T
   6     -9.4493399 -0.650129E-10  0.152E-04    6.63     294.1  T
     SCC iter.                  ...        0 min,  0.001 sec
     gradient                   ...        0 min,  0.001 sec
 * total energy  :    -9.2783346 Eh     change       -0.3132380E-04 Eh
   gradient norm :     0.0063627 Eh/α   predicted     0.0000000E+00 (-100.00%)
   displ. norm   :     0.2563316 α      lambda       -0.8136091E-03
   maximum displ.:     0.2470896 α      in ANC's #2, #1, #4, ...

........................................................................
.............................. CYCLE   22 ..............................
........................................................................
   1     -9.4413378 -0.944134E+01  0.950E-01    6.58       0.0  T
   2     -9.4413396 -0.176339E-05  0.600E-01    6.58       1.0  T
   3     -9.4405482  0.791364E-03  0.425E-01    6.57       1.0  T
   4     -9.4414121 -0.863849E-03  0.218E-02    6.58       2.1  T
   5     -9.4414121 -0.265845E-07  0.111E-02    6.58       4.0  T
   6     -9.4414121 -0.443373E-07  0.889E-04    6.58      50.3  T
   7     -9.4414121 -0.337536E-09  0.339E-04    6.58     132.1  T
     SCC iter.                  ...        0 min,  0.000 sec
     gradient                   ...        0 min,  0.001 sec
 * total energy  :    -9.2777316 Eh     change        0.6030746E-03 Eh
   gradient norm :     0.0160318 Eh/α   predicted    -0.4335356E-03 (-171.89%)
   displ. norm   :     0.1748222 α      lambda       -0.1829337E-02
   maximum displ.:     0.1713704 α      in ANC's #2, #1, #3, ...

........................................................................
.............................. CYCLE   23 ..............................
........................................................................
   1     -9.4498124 -0.944981E+01  0.716E-01    6.69       0.0  T
   2     -9.4497984  0.139454E-04  0.465E-01    6.69       1.0  T
   3     -9.4493057  0.492697E-03  0.386E-01    6.70       1.0  T
   4     -9.4499072 -0.601477E-03  0.174E-02    6.69       2.6  T
   5     -9.4499072 -0.277261E-07  0.789E-03    6.69       5.7  T
   6     -9.4499073 -0.713970E-08  0.685E-04    6.69      65.3  T
   7     -9.4499073 -0.460743E-09  0.149E-04    6.69     300.1  T
     SCC iter.                  ...        0 min,  0.000 sec
     gradient                   ...        0 min,  0.001 sec
 * total energy  :    -9.2784886 Eh     change       -0.7570146E-03 Eh
   gradient norm :     0.0063514 Eh/α   predicted    -0.9426249E-03 (  24.52%)
   displ. norm   :     0.1774896 α      lambda       -0.3810894E-03
   maximum displ.:     0.1744005 α      in ANC's #1, #2, #3, ...

........................................................................
.............................. CYCLE   24 ..............................
........................................................................
   1     -9.4500547 -0.945005E+01  0.434E-01    6.64       0.0  T
   2     -9.4500563 -0.161990E-05  0.264E-01    6.64       1.0  T
   3     -9.4500570 -0.687036E-06  0.793E-03    6.64       5.6  T
   4     -9.4500569  0.456236E-07  0.654E-03    6.64       6.8  T
   5     -9.4500571 -0.140452E-06  0.273E-03    6.64      16.4  T
   6     -9.4500571 -0.762834E-08  0.387E-04    6.64     115.6  T
   7     -9.4500571 -0.660876E-10  0.112E-04    6.64     400.7  T
     SCC iter.                  ...        0 min,  0.000 sec
     gradient                   ...        0 min,  0.001 sec
 * total energy  :    -9.2783525 Eh     change        0.1360251E-03 Eh
   gradient norm :     0.0060366 Eh/α   predicted    -0.1965484E-03 (-244.49%)
   displ. norm   :     0.1092188 α      lambda       -0.4344123E-03
   maximum displ.:     0.1059442 α      in ANC's #1, #2, #4, ...

........................................................................
.............................. CYCLE   25 ..............................
........................................................................
   1     -9.4498320 -0.944983E+01  0.249E-01    6.66       0.0  T
   2     -9.4498326 -0.536844E-06  0.151E-01    6.66       1.0  T
   3     -9.4498327 -0.163772E-06  0.730E-03    6.66       6.1  T
   4     -9.4498329 -0.134288E-06  0.451E-03    6.66       9.9  T
   5     -9.4498329 -0.464361E-07  0.155E-03    6.66      28.8  T
   6     -9.4498329 -0.109630E-08  0.249E-04    6.66     179.9  T
   7     -9.4498329 -0.238067E-10  0.811E-05    6.66     551.3  T
     SCC iter.                  ...        0 min,  0.000 sec
     gradient                   ...        0 min,  0.001 sec
 * total energy  :    -9.2785998 Eh     change       -0.2472528E-03 Eh
   gradient norm :     0.0031168 Eh/α   predicted    -0.2197960E-03 ( -11.10%)
   displ. norm   :     0.0230108 α      lambda       -0.4595004E-04
   maximum displ.:     0.0131319 α      in ANC's #1, #3, #4, ...

........................................................................
.............................. CYCLE   26 ..............................
........................................................................
   1     -9.4495566 -0.944956E+01  0.416E-02    6.67       0.0  T
   2     -9.4495567 -0.609593E-07  0.257E-02    6.67       1.7  T
   3     -9.4495560  0.694260E-06  0.126E-02    6.67       3.6  T
   4     -9.4495567 -0.772975E-06  0.165E-03    6.67      27.0  T
   5     -9.4495567 -0.338626E-08  0.772E-04    6.67      57.9  T
   6     -9.4495567 -0.240259E-09  0.118E-04    6.67     379.7  T
     SCC iter.                  ...        0 min,  0.000 sec
     gradient                   ...        0 min,  0.001 sec
 * total energy  :    -9.2786352 Eh     change       -0.3542942E-04 Eh
   gradient norm :     0.0020110 Eh/α   predicted    -0.2298606E-04 ( -35.12%)
   displ. norm   :     0.0417161 α      lambda       -0.6948601E-04
   maximum displ.:     0.0328633 α      in ANC's #3, #4, #5, ...

........................................................................
.............................. CYCLE   27 ..............................
........................................................................
   1     -9.4491399 -0.944914E+01  0.115E-01    6.67       0.0  T
   2     -9.4491402 -0.215161E-06  0.710E-02    6.67       1.0  T
   3     -9.4491375  0.263729E-05  0.243E-02    6.67       1.8  T
   4     -9.4491405 -0.294556E-05  0.327E-03    6.67      13.7  T
   5     -9.4491405 -0.743126E-08  0.127E-03    6.67      35.2  T
   6     -9.4491405 -0.523960E-09  0.211E-04    6.67     212.3  T
   7     -9.4491405 -0.367262E-10  0.464E-05    6.67     963.2  T
     SCC iter.                  ...        0 min,  0.000 sec
     gradient                   ...        0 min,  0.001 sec
 * total energy  :    -9.2786805 Eh     change       -0.4526137E-04 Eh
   gradient norm :     0.0017458 Eh/α   predicted    -0.3480296E-04 ( -23.11%)
   displ. norm   :     0.0400195 α      lambda       -0.2165042E-04
   maximum displ.:     0.0289018 α      in ANC's #3, #1, #4, ...

........................................................................
.............................. CYCLE   28 ..............................
........................................................................
   1     -9.4494081 -0.944941E+01  0.133E-01    6.67       0.0  T
   2     -9.4494083 -0.191833E-06  0.812E-02    6.67       1.0  T
   3     -9.4494084 -0.108094E-06  0.337E-03    6.67      13.3  T
   4     -9.4494084  0.114561E-07  0.290E-03    6.67      15.4  T
   5     -9.4494085 -0.241652E-07  0.886E-04    6.67      50.5  T
   6     -9.4494085 -0.913614E-09  0.159E-04    6.67     281.2  T
     SCC iter.                  ...        0 min,  0.000 sec
     gradient                   ...        0 min,  0.001 sec
 * total energy  :    -9.2786945 Eh     change       -0.1398704E-04 Eh
   gradient norm :     0.0008392 Eh/α   predicted    -0.1083438E-04 ( -22.54%)
   displ. norm   :     0.0086912 α      lambda       -0.2449876E-05
   maximum displ.:     0.0057952 α      in ANC's #3, #4, #2, ...

........................................................................
.............................. CYCLE   29 ..............................
........................................................................
   1     -9.4498929 -0.944989E+01  0.178E-02    6.67       0.0  T
   2     -9.4498929  0.123527E-07  0.115E-02    6.67       3.9  T
   3     -9.4498926  0.268911E-06  0.955E-03    6.67       4.7  T
   4     -9.4498930 -0.353591E-06  0.641E-04    6.67      69.7  T
   5     -9.4498930 -0.214115E-09  0.247E-04    6.67     181.2  T
     SCC iter.                  ...        0 min,  0.000 sec
     gradient                   ...        0 min,  0.001 sec
 * total energy  :    -9.2786960 Eh     change       -0.1514704E-05 Eh
   gradient norm :     0.0003947 Eh/α   predicted    -0.1225941E-05 ( -19.06%)
   displ. norm   :     0.0012311 α      lambda       -0.1748433E-06
   maximum displ.:     0.0009545 α      in ANC's #4, #2, #6, ...

   *** GEOMETRY OPTIMIZATION CONVERGED AFTER 29 ITERATIONS ***

------------------------------------------------------------------------
 total energy gain   :        -0.1621791 Eh     -101.7689 kcal/mol
 total RMSD          :         1.1098554 a0        0.5873 Å
 total power (kW/mol):       -14.6827975 (step)-6603.1204 (real)
------------------------------------------------------------------------

 ANCopt (total)                0 d,  0 h,  0 min,  0.064 sec
 optimizer setup                ...        0 min,  0.000 sec (  0.112%)
 model hessian                  ...        0 min,  0.000 sec (  0.211%)
 ANC generation                 ...        0 min,  0.000 sec (  0.169%)
 coordinate transformation      ...        0 min,  0.000 sec (  0.114%)
 single point calculation       ...        0 min,  0.061 sec ( 95.339%)
 optimization log               ...        0 min,  0.001 sec (  1.331%)
 hessian update                 ...        0 min,  0.000 sec (  0.109%)
 rational function              ...        0 min,  0.001 sec (  1.170%)

================
 final structure:
================
5
 xtb: 6.2.2 (9d81278992624c895f80dd42a50cac0aa55982e2)
C        -0.13957815154169   -0.10197351700948    0.04614364406514
C         0.95607932785186   -0.34997679139802    0.45599097063001
O        -1.34928095823875    0.13317064650631   -0.38167176666239
H         1.90078970820991   -0.58960942248053    0.83311991501152
H        -1.36800992628132    0.90838908438173   -0.95358276304428

 Bond Distances (Angstroems)
 ---------------------------
C1-C2=1.1958         C1-O3=1.3045         C2-C1=1.1958         C2-H4=1.0450         O3-C1=1.3045         O3-H5=0.9635         
H4-C2=1.0450         H5-O3=0.9635         
 C  H  Rav=1.0450 sigma=0.0000  Rmin=1.0450  Rmax=1.0450     1
 C  C  Rav=1.1958 sigma=0.0000  Rmin=1.1958  Rmax=1.1958     1
 O  H  Rav=0.9635 sigma=0.0000  Rmin=0.9635  Rmax=0.9635     1
 O  C  Rav=1.3045 sigma=0.0000  Rmin=1.3045  Rmax=1.3045     1

 selected bond angles (degree)
 --------------------
O3-C1-C2=178.12                H4-C2-C1=178.23                H5-O3-C1=110.96                

 selected dihedral angles (degree)
 ---------------------------------
H4-C2-C1-O3=349.28            H5-O3-C1-C2=183.83            
           -------------------------------------------------
          |                Final Singlepoint                |
           -------------------------------------------------

          ...................................................
          :                      SETUP                      :
          :.................................................:
          :  # basis functions                  14          :
          :  # atomic orbitals                  14          :
          :  # shells                            8          :
          :  # electrons                        16          :
          :  max. iterations                   250          :
          :  Hamiltonian                  GFN2-xTB          :
          :  restarted?                      false          :
          :  GBSA solvation                  false          :
          :  PC potential                    false          :
          :  electronic temp.          300.0000000     K    :
          :  accuracy                    1.0000000          :
          :  -> integral cutoff          0.2500000E+02      :
          :  -> integral neglect         0.1000000E-07      :
          :  -> SCF convergence          0.1000000E-05 Eh   :
          :  -> wf. convergence          0.1000000E-03 e    :
          :  Broyden damping             0.4000000          :
          ...................................................

 iter      E             dE          RMSdq      gap      omega  full diag
   1     -9.4498930 -0.944989E+01  0.575E-05    6.67       0.0  T
   2     -9.4498930 -0.188649E-11  0.342E-05    6.67    1306.8  T
   3     -9.4498930  0.148503E-11  0.292E-05    6.67    1529.7  T

   *** convergence criteria satisfied after 3 iterations ***

         #    Occupation            Energy/Eh            Energy/eV
      -------------------------------------------------------------
         1        2.0000           -0.7151095             -19.4591
         2        2.0000           -0.6311120             -17.1734
         3        2.0000           -0.5957369             -16.2108
         4        2.0000           -0.5520217             -15.0213
         5        2.0000           -0.5234565             -14.2440
         6        2.0000           -0.4904248             -13.3451
         7        2.0000           -0.4075287             -11.0894
         8        2.0000           -0.3878508             -10.5540 (HOMO)
         9                         -0.1426422              -3.8815 (LUMO)
        10                         -0.1242735              -3.3817
        11                          0.0394384               1.0732
        12                          0.1655067               4.5037
        13                          0.3725207              10.1368
        14                          1.4902884              40.5528
      -------------------------------------------------------------
                  HL-Gap            0.2452086 Eh            6.6725 eV
             Fermi-level           -0.2652465 Eh           -7.2177 eV

 SCC (total)                   0 d,  0 h,  0 min,  0.002 sec
 SCC setup                      ...        0 min,  0.000 sec (  2.897%)
 Dispersion                     ...        0 min,  0.000 sec (  0.587%)
 integral evaluation            ...        0 min,  0.001 sec ( 39.285%)
 zeroth order Hamiltonian       ...        0 min,  0.000 sec (  0.587%)
 iterations                     ...        0 min,  0.000 sec ( 13.452%)
 molecular gradient             ...        0 min,  0.001 sec ( 38.647%)
 printout                       ...        0 min,  0.000 sec (  4.174%)

         :::::::::::::::::::::::::::::::::::::::::::::::::::::
         ::                     SUMMARY                     ::
         :::::::::::::::::::::::::::::::::::::::::::::::::::::
         :: total energy              -9.278695992974 Eh    ::
         :: gradient norm              0.000393312860 Eh/a0 ::
         :: HOMO-LUMO gap              6.672465840815 eV    ::
         ::.................................................::
         :: SCC energy                -9.449892962292 Eh    ::
         :: -> isotropic ES            0.017637967629 Eh    ::
         :: -> anisotropic ES          0.004985032039 Eh    ::
         :: -> anisotropic XC          0.005181106001 Eh    ::
         :: -> dispersion             -0.001322962888 Eh    ::
         :: repulsion energy           0.171197062186 Eh    ::
         :: add. restraining           0.000000000000 Eh    ::
         :::::::::::::::::::::::::::::::::::::::::::::::::::::

           ------------------------------------------------- 
          |                Numerical Hessian                |
           ------------------------------------------------- 
step length          :   0.00500
SCC accuracy         :   0.30000
Hessian scale factor :   1.00000
frozen atoms in %    :   0.00000    0
RMS gradient         :   0.00039
estimated CPU  time      0.00 min
estimated wall time      0.00 min

writing file <hessian>.

 projected vibrational frequencies (cm-1)
eigval :       -0.00    -0.00     0.00     0.00     0.00     0.00
eigval :      268.38   297.88   592.31   633.15  1086.36  1154.84
eigval :     2352.01  3437.47  3502.52
           -------------------------------------------------
          |                Property Printout                |
           -------------------------------------------------

    * Orbital Energies and Occupations

         #    Occupation            Energy/Eh            Energy/eV
      -------------------------------------------------------------
         1        2.0000           -0.7151096             -19.4591
         2        2.0000           -0.6311120             -17.1734
         3        2.0000           -0.5957369             -16.2108
         4        2.0000           -0.5520217             -15.0213
         5        2.0000           -0.5234566             -14.2440
         6        2.0000           -0.4904247             -13.3451
         7        2.0000           -0.4075287             -11.0894
         8        2.0000           -0.3878508             -10.5540 (HOMO)
         9                         -0.1426422              -3.8815 (LUMO)
        10                         -0.1242735              -3.3817
        11                          0.0394384               1.0732
        12                          0.1655067               4.5037
        13                          0.3725207              10.1368
        14                          1.4902884              40.5528
      -------------------------------------------------------------
                  HL-Gap            0.2452086 Eh            6.6725 eV
             Fermi-level           -0.2652465 Eh           -7.2177 eV

     #   Z        covCN         q      C6AA      α(0)
     1   6 C      1.836     0.111    28.400     8.609
     2   6 C      1.909    -0.166    35.867     9.672
     3   8 O      1.660    -0.334    19.615     5.979
Molecule has the following symmetry elements: (sigma) 
It seems to be the Cs point group
     4   1 H      0.928     0.085     1.931     2.173
     5   1 H      0.805     0.304     0.708     1.322

 Mol. C6AA /au·bohr⁶  :        321.217731
 Mol. C8AA /au·bohr⁸  :       7790.911372
 Mol. α(0) /au        :         27.755097


Wiberg/Mayer (AO) data.
largest (>0.10) Wiberg bond orders for each atom
          total WBO             WBO to atom ...
     1  C   3.930        C    2 2.784    O    3 1.136
     2  C   3.959        C    1 2.784    H    4 0.973    O    3 0.170
     3  O   2.191        C    1 1.136    H    5 0.873    C    2 0.170
     4  H   0.993        C    2 0.973
     5  H   0.907        O    3 0.873

MOs/occ written to file <molden.input>


molecular dipole:
                 x           y           z       tot (Debye)
 q only:        0.039       0.433      -0.308
   full:        0.087       0.593      -0.415       1.852
molecular quadrupole (traceless):
                xx          xy          yy          xz          yz          zz
 q only:       -0.489      -1.906       0.252       1.531      -1.404       0.236
  q+dip:        0.848      -3.364      -0.548       3.190      -2.205      -0.300
   full:       -0.535      -2.815       0.294       2.339      -2.150       0.241

           -------------------------------------------------
          |                Geometry Summary                 |
           -------------------------------------------------

      molecular mass/u    :       42.0367582
   center of mass at/Å    :       -0.2674782      -0.0708008      -0.0046838
  moments of inertia/u·Å² :        0.7430968E+00   0.5143815E+02   0.5218121E+02
rotational constants/cm⁻¹ :        0.2268565E+02   0.3277263E+00   0.3230595E+00

 * 4 selected distances

     #   Z        #   Z                                     value/Å
     1   6 C      2   6 C                                 1.1958034
     1   6 C      3   8 O                                 1.3044921 (max)
     2   6 C      4   1 H                                 1.0450492
     3   8 O      5   1 H                                 0.9635334 (min)

 * 4 distinct bonds (by element types)

   Z      Z             #   av. dist./Å        max./Å        min./Å
   1 H    6 C           1     1.0450492     1.0450492     1.0450492
   6 C    6 C           1     1.1958034     1.1958034     1.1958034
   1 H    8 O           1     0.9635334     0.9635334     0.9635334
   6 C    8 O           1     1.3044921     1.3044921     1.3044921

           -------------------------------------------------
          |               Frequency Printout                |
           -------------------------------------------------
 projected vibrational frequencies (cm-1)
eigval :       -0.00    -0.00     0.00     0.00     0.00     0.00
eigval :      268.38   297.88   592.31   633.15  1086.36  1154.84
eigval :     2352.01  3437.47  3502.52
 reduced masses (amu)
   1: 12.41   2: 14.80   3: 10.82   4: 12.24   5: 11.34   6:  3.33   7: 11.56   8: 11.52
   9:  3.35  10:  2.36  11: 13.79  12:  3.04  13: 11.14  14:  2.54  15:  1.87
 IR intensities (amu)
   1:  0.16   2:  0.32   3:  0.08   4:  0.25   5:  0.18   6:  0.48   7:  0.55   8:  0.33
   9:  0.01  10:  0.22  11:  1.52  12:  0.61  13:  1.69  14:  0.39  15:  0.20
 Raman intensities (amu)
   1:  0.00   2:  0.00   3:  0.00   4:  0.00   5:  0.00   6:  0.00   7:  0.00   8:  0.00
   9:  0.00  10:  0.00  11:  0.00  12:  0.00  13:  0.00  14:  0.00  15:  0.00
 output can be read by thermo (or use thermo option).
 writing <g98.out> molden fake output.
 recommended (thermochemical) frequency scaling factor: 1.0
           -------------------------------------------------
          |             Thermodynamic Functions             |
           -------------------------------------------------

cs  symmetry found (for desy threshold:  0.10E+00) used in thermo

          ...................................................
          :                      SETUP                      :
          :.................................................:
          :  # frequencies                           9      :
          :  # imaginary freq.                       0      :
          :  linear?                             false      :
          :  only rotor calc.                    false      :
          :  symmetry                               cs      :
          :  rotational number                       1      :
          :  scaling factor                  1.0000000      :
          :  rotor cutoff                   50.0000000 cm⁻¹ :
          :  imag. cutoff                  -20.0000000 cm⁻¹ :
          :.................................................:

    mode    ω/cm⁻¹     T·S(HO)/kcal·mol⁻¹    T·S(FR)/kcal·mol⁻¹   T·S(vib)
   ------------------------------------------------------------------------
       1    268.38    -0.00000 ( 99.88%)     0.01501 (  0.12%)     0.00002
       2    297.88    -0.00000 ( 99.92%)     0.01604 (  0.08%)     0.00001
   ------------------------------------------------------------------------

   temp. (K)  partition function   enthalpy   heat capacity  entropy
                                   cal/mol     cal/K/mol   cal/K/mol   J/K/mol
 298.15  VIB   2.03                  776.477      5.951      4.011
         ROT  0.341E+04              888.752      2.981     19.147
         INT  0.692E+04             1665.229      8.932     23.158
         TR   0.264E+27             1481.254      4.968     37.118
         TOT                        3146.4828    13.8999    60.2763   252.1962

   temp. (K)  partition function   enthalpy   heat capacity  entropy
                                   cal/mol     cal/K/mol   cal/K/mol   J/K/mol
 120.00  VIB   1.07                   58.966      1.790      0.633
         ROT   871.                  357.707      2.981     16.434
         INT   935.                  416.672      4.771     17.067
         TR   0.673E+26              596.178      4.968     32.599
         TOT                        1012.8504     9.7393    49.6660   207.8024

   temp. (K)  partition function   enthalpy   heat capacity  entropy
                                   cal/mol     cal/K/mol   cal/K/mol   J/K/mol
 100.00  VIB   1.04                   28.914      1.214      0.361
         ROT   663.                  298.089      2.981     15.891
         INT   687.                  327.003      4.195     16.251
         TR   0.512E+26              496.815      4.968     31.693
         TOT                         823.8184     9.1631    47.9447   200.6005

   temp. (K)  partition function   enthalpy   heat capacity  entropy
                                   cal/mol     cal/K/mol   cal/K/mol   J/K/mol
  80.00  VIB   1.01                   10.293      0.657      0.155
         ROT   474.                  238.471      2.981     15.226
         INT   480.                  248.764      3.638     15.381
         TR   0.367E+26              397.452      4.968     30.585
         TOT                         646.2158     8.6057    45.9657   192.3206

   temp. (K)  partition function   enthalpy   heat capacity  entropy
                                   cal/mol     cal/K/mol   cal/K/mol   J/K/mol
  60.00  VIB   1.00                    1.908      0.213      0.037
         ROT   308.                  178.853      2.981     14.368
         INT   309.                  180.761      3.194     14.405
         TR   0.238E+26              298.089      4.968     29.157
         TOT                         478.8501     8.1621    43.5616   182.2617

   temp. (K)  partition function   enthalpy   heat capacity  entropy
                                   cal/mol     cal/K/mol   cal/K/mol   J/K/mol
  40.00  VIB   1.00                    0.068      0.017      0.001
         ROT   168.                  119.236      2.981     13.159
         INT   168.                  119.304      2.998     13.161
         TR   0.130E+26              198.726      4.968     27.143
         TOT                         318.0298     7.9660    40.3040   168.6321

   temp. (K)  partition function   enthalpy   heat capacity  entropy
                                   cal/mol     cal/K/mol   cal/K/mol   J/K/mol
  20.00  VIB   1.00                    0.000      0.000     -0.002
         ROT   59.3                   59.618      2.981     11.093
         INT   59.3                   59.618      2.981     11.091
         TR   0.458E+25               99.363      4.968     23.701
         TOT                         158.9808     7.9490    34.7925   145.5720

   temp. (K)  partition function   enthalpy   heat capacity  entropy
                                   cal/mol     cal/K/mol   cal/K/mol   J/K/mol
  10.00  VIB   1.00                    0.000      0.000     -0.003
         ROT   21.0                   29.809      2.981      9.027
         INT   21.0                   29.809      2.981      9.024
         TR   0.162E+25               49.681      4.968     20.259
         TOT                          79.4904     7.9490    29.2829   122.5198

       T/K    H(0)-H(T)+PV         H(T)/Eh          T*S/Eh         G(T)/Eh
   ------------------------------------------------------------------------
    298.15    0.501424E-02    0.353706E-01    0.286392E-01    0.673141E-02
    120.00    0.161408E-02    0.319705E-01    0.949773E-02    0.224728E-01
    100.00    0.131284E-02    0.316692E-01    0.764047E-02    0.240288E-01
     80.00    0.102981E-02    0.313862E-01    0.586008E-02    0.255261E-01
     60.00    0.763096E-03    0.311195E-01    0.416519E-02    0.269543E-01
     40.00    0.506813E-03    0.308632E-01    0.256914E-02    0.282941E-01
     20.00    0.253352E-03    0.306098E-01    0.110891E-02    0.295008E-01
     10.00    0.126676E-03    0.304831E-01    0.466653E-03    0.300164E-01 (used)
   ------------------------------------------------------------------------

         :::::::::::::::::::::::::::::::::::::::::::::::::::::
         ::                  THERMODYNAMIC                  ::
         :::::::::::::::::::::::::::::::::::::::::::::::::::::
         :: total free energy          -9.248679564214 Eh   ::
         ::.................................................::
         :: total energy               -9.278695993134 Eh   ::
         :: zero point energy           0.030356406036 Eh   ::
         :: G(RRHO) w/o ZPVE           -0.000339977116 Eh   ::
         :: G(RRHO) contrib.            0.030016428921 Eh   ::
         :::::::::::::::::::::::::::::::::::::::::::::::::::::

optimized geometry written to: xtbopt.xyz


           -------------------------------------------------
          | TOTAL ENERGY               -9.278695993134 Eh   |
          | TOTAL ENTHALPY             -9.248212911082 Eh   |
          | TOTAL FREE ENERGY          -9.248679564214 Eh   |
          | GRADIENT NORM               0.000392887522 Eh/α |
          | HOMO-LUMO GAP               6.672464892379 eV   |
           -------------------------------------------------

------------------------------------------------------------------------
 * finished run on 2020/05/12 at 11:45:14.441     
------------------------------------------------------------------------
 total:
 * wall-time:     0 d,  0 h,  0 min,  0.147 sec
 *  cpu-time:     0 d,  0 h,  0 min,  0.147 sec
 * ratio c/w:     0.995 speedup
 SCF:
 * wall-time:     0 d,  0 h,  0 min,  0.003 sec
 *  cpu-time:     0 d,  0 h,  0 min,  0.003 sec
 * ratio c/w:     1.000 speedup
 ANC optimizer:
 * wall-time:     0 d,  0 h,  0 min,  0.067 sec
 *  cpu-time:     0 d,  0 h,  0 min,  0.067 sec
 * ratio c/w:     0.999 speedup
 numerical hessian:
 * wall-time:     0 d,  0 h,  0 min,  0.059 sec
 *  cpu-time:     0 d,  0 h,  0 min,  0.059 sec
 * ratio c/w:     0.999 speedup

