$hessian                                                                        
        1.3804262914  -0.3058461652   0.5051544681  -0.9592793349   0.2207216961
       -0.3614119786  -0.3872070221   0.0698597163  -0.1285312730  -0.0163969761
       -0.0004422234  -0.0003229874  -0.0175429582   0.0157069762  -0.0148882291
       -0.3058461652   0.1244288037  -0.1273516988   0.2197481319  -0.0543249433
        0.0836515062   0.0526374931  -0.0533126687   0.0344242180   0.0016404158
       -0.0111262178  -0.0004871250   0.0318201245  -0.0056649739   0.0097630997
        0.5051544681  -0.1273516988   0.2370817076  -0.3605218268   0.0838351500
       -0.1394488995  -0.1158202209   0.0380739721  -0.0738761742  -0.0021327359
       -0.0008717421  -0.0119242239  -0.0266796845   0.0063143189  -0.0118324101
       -0.9592793349   0.2197481319  -0.3605218268   1.3115358993  -0.3014387050
        0.4930893537  -0.0314594802   0.0052335901  -0.0099114193  -0.3236010845
        0.0790788747  -0.1252464120   0.0028040004  -0.0026218917   0.0025903044
        0.2207216961  -0.0543249433   0.0838351500  -0.3014387050   0.0915928284
       -0.1201261143   0.0014839087  -0.0049804497   0.0025920503   0.0773821677
       -0.0326721869   0.0339631946   0.0018509325   0.0003847515  -0.0002642805
       -0.3614119786   0.0836515062  -0.1394488995   0.4930893537  -0.1201261143
        0.2054926090  -0.0072145210   0.0033553893  -0.0058628959  -0.1237654888
        0.0342704157  -0.0604797957  -0.0006973653  -0.0011511970   0.0002989820
       -0.3872070221   0.0526374931  -0.1158202209  -0.0314594802   0.0014839087
       -0.0072145210   0.4405854711  -0.0526054944   0.1287860286   0.0056651551
        0.0041752423  -0.0038894393  -0.0275841238  -0.0056911497  -0.0018618475
        0.0698597163  -0.0533126687   0.0380739721   0.0052335901  -0.0049804497
        0.0033553893  -0.0526054944   0.3292589912  -0.2427944717   0.0019142424
        0.0096803865   0.0001619328  -0.0244020544  -0.2806462593   0.2012031775
       -0.1285312730   0.0344242180  -0.0738761742  -0.0099114193   0.0025920503
       -0.0058628959   0.1287860286  -0.2427944717   0.2180983407  -0.0021898315
        0.0006161852   0.0084338143   0.0118464953   0.2051620183  -0.1467930849
       -0.0163969761   0.0016404158  -0.0021327359  -0.3236010845   0.0773821677
       -0.1237654888   0.0056651551   0.0019142424  -0.0021898315   0.3353133740
       -0.0810116132   0.1285227661  -0.0009804684   0.0000747873  -0.0004347098
       -0.0004422234  -0.0111262178  -0.0008717421   0.0790788747  -0.0326721869
        0.0342704157   0.0041752423   0.0096803865   0.0006161852  -0.0810116132
        0.0331850088  -0.0336265067  -0.0018002804   0.0009330095  -0.0003883521
       -0.0003229874  -0.0004871250  -0.0119242239  -0.1252464120   0.0339631946
       -0.0604797957  -0.0038894393   0.0001619328   0.0084338143   0.1285227661
       -0.0336265067   0.0628948890   0.0009360726  -0.0000114956   0.0010753163
       -0.0175429582   0.0318201245  -0.0266796845   0.0028040004   0.0018509325
       -0.0006973653  -0.0275841238  -0.0244020544   0.0118464953  -0.0009804684
       -0.0018002804   0.0009360726   0.0433035500  -0.0074687222   0.0145944819
        0.0157069762  -0.0056649739   0.0063143189  -0.0026218917   0.0003847515
       -0.0011511970  -0.0056911497  -0.2806462593   0.2051620183   0.0000747873
        0.0009330095  -0.0000114956  -0.0074687222   0.2849934721  -0.2103136445
       -0.0148882291   0.0097630997  -0.0118324101   0.0025903044  -0.0002642805
        0.0002989820  -0.0018618475   0.2012031775  -0.1467930849  -0.0004347098
       -0.0003883521   0.0010753163   0.0145944819  -0.2103136445   0.1572511967
