 Entering Gaussian System
 *********************************************
 Gaussian 98:
 frequency output generated by the xtb code
 *********************************************
                         Standard orientation:
 --------------------------------------------------------------------
  Center     Atomic     Atomic              Coordinates (Angstroms)
  Number     Number      Type              X           Y           Z
 --------------------------------------------------------------------
    1          6             0       -0.139579   -0.101973    0.046144
    2          6             0        0.956079   -0.349981    0.455988
    3          8             0       -1.349282    0.133177   -0.381667
    4          1             0        1.900790   -0.589618    0.833114
    5          1             0       -1.368008    0.908395   -0.953580
 --------------------------------------------------------------------
     1 basis functions        1 primitive gaussians
     1 alpha electrons        1 beta electrons

 Harmonic frequencies (cm**-1), IR intensities (KM/Mole),
 Raman scattering activities (A**4/amu), Raman depolarization ratios,
 reduced masses (AMU), force constants (mDyne/A) and normal coordinates:
                      1                      2                      3
                        a                      a                      a 
 Frequencies --   268.3764               297.8828               592.3138
 Red. masses --    11.5589                11.5240                 3.3497
 Frc consts  --     0.0000                 0.0000                 0.0000
 IR Inten    --     0.5540                 0.3347                 0.0128
 Raman Activ --     0.0000                 0.0000                 0.0000
 Depolar     --     0.0000                 0.0000                 0.0000
 Atom AN      X      Y      Z        X      Y      Z        X      Y      Z
   1   6    -0.13   0.45   0.61    -0.30  -0.63   0.40    -0.06   0.20   0.27
   2   6     0.08  -0.30  -0.41     0.17   0.37  -0.24    -0.03   0.11   0.15
   3   8     0.05  -0.16  -0.22     0.06   0.21  -0.14     0.04  -0.12  -0.17
   4   1    -0.04   0.15   0.21    -0.03  -0.05   0.03     0.15  -0.52  -0.71
   5   1     0.01  -0.03  -0.04     0.24   0.08  -0.01     0.01  -0.04  -0.06
                      4                      5                      6
                        a                      a                      a 
 Frequencies --   633.1528              1086.3576              1154.8354
 Red. masses --     2.3606                13.7908                 3.0355
 Frc consts  --     0.0000                 0.0000                 0.0000
 IR Inten    --     0.2186                 1.5230                 0.6089
 Raman Activ --     0.0000                 0.0000                 0.0000
 Depolar     --     0.0000                 0.0000                 0.0000
 Atom AN      X      Y      Z        X      Y      Z        X      Y      Z
   1   6     0.05   0.12  -0.08    -0.28   0.05  -0.10    -0.07  -0.18   0.12
   2   6     0.10   0.22  -0.14    -0.50   0.11  -0.18     0.04  -0.03   0.03
   3   8    -0.00  -0.10   0.07     0.70  -0.14   0.25     0.24   0.18  -0.08
   4   1    -0.36  -0.72   0.45    -0.15   0.05  -0.07     0.06   0.08  -0.04
   5   1    -0.17  -0.05  -0.01     0.09  -0.04   0.05    -0.90  -0.08  -0.13
                      7                      8                      9
                        a                      a                      a 
 Frequencies --  2352.0075              3437.4711              3502.5248
 Red. masses --    11.1438                 2.5382                 1.8694
 Frc consts  --     0.0000                 0.0000                 0.0000
 IR Inten    --     1.6936                 0.3950                 0.2001
 Raman Activ --     0.0000                 0.0000                 0.0000
 Depolar     --     0.0000                 0.0000                 0.0000
 Atom AN      X      Y      Z        X      Y      Z        X      Y      Z
   1   6    -0.72   0.17  -0.27     0.09  -0.02   0.03    -0.02   0.01  -0.01
   2   6     0.49  -0.11   0.18    -0.33   0.08  -0.13     0.02  -0.01   0.01
   3   8     0.12  -0.03   0.05    -0.00   0.01  -0.01    -0.00   0.19  -0.14
   4   1     0.26  -0.06   0.10     0.84  -0.21   0.33    -0.04   0.01  -0.01
   5   1     0.04   0.01   0.00    -0.00  -0.04   0.03     0.03  -0.78   0.58
