[Molden Format]
[Title]
[Atoms] AU
C      1     6 -0.26376515952002E+00 -0.19270046797442E+00  0.87200098624441E-01
C      2     6  0.18067274604237E+01 -0.66136818042086E+00  0.86169281745937E+00
O      3     8 -0.25497724396212E+01  0.25166811814048E+00 -0.72124658041251E+00
H      4     1  0.35919712973548E+01 -0.11142162853518E+01  0.15743577285615E+01
H      5     1 -0.25851611586374E+01  0.17166168156067E+01 -0.18020040642328E+01
[GTO]
           1 0
 s           4   1.0000000000000000     
   51.049363095579913      -0.16312063210127389     
   8.7911227406887544      -0.19911024581000730     
  0.70640422258929825       0.31882047753655751     
  0.26922813413411617       0.12706504184240380     
 p           4   1.0000000000000000     
   5.8263656140800002       0.73716451545209605     
   1.5106896018720002       0.68216371614850257     
  0.53256483288000001       0.35783053929253711     
  0.21202323690600003        5.3983030275847881E-002

           2 0
 s           4   1.0000000000000000     
   51.049363095579913      -0.16312063210127389     
   8.7911227406887544      -0.19911024581000730     
  0.70640422258929825       0.31882047753655751     
  0.26922813413411617       0.12706504184240380     
 p           4   1.0000000000000000     
   5.8263656140800002       0.73716451545209605     
   1.5106896018720002       0.68216371614850257     
  0.53256483288000001       0.35783053929253711     
  0.21202323690600003        5.3983030275847881E-002

           3 0
 s           4   1.0000000000000000     
   69.137961906196551      -0.20478756370077797     
   11.906129132707308      -0.24997023136827334     
  0.95670827744340703       0.40025880240639616     
  0.36462520496073686       0.15952206667693555     
 p           4   1.0000000000000000     
   8.2124193257781641        1.1321556799186829     
   2.1293576997098116        1.0476840782254817     
  0.75066448202360914       0.54956508217158984     
  0.29885246543283073        8.2908486592766617E-002

           4 0
 s           3   1.0000000000000000     
   3.3702276975336001       0.27359110588908298     
  0.61389118221497996       0.26460540653860526     
  0.16614291148415999        8.2465947534082318E-002

           5 0
 s           3   1.0000000000000000     
   3.3702276975336001       0.27359110588908298     
  0.61389118221497996       0.26460540653860526     
  0.16614291148415999        8.2465947534082318E-002

[MO]
Sym=     1a
Ene=  -0.71510964927401732     
Spin= Alpha
Occup=     2.00000000
           1  0.21614233051198972     
           2 -0.15578114461753256     
           3   4.0855251743021244E-002
           4  -6.2848266949470905E-002
           5   1.2952549073922015E-002
           6  -2.2859406288463991E-002
           7   5.8358036557647347E-003
           8  -9.0655568608775626E-003
           9  0.75096943109070069     
          10  0.11690352627493279     
          11   2.4088561229930874E-002
          12   7.0977902949928553E-003
          13   1.2226479379666849E-003
          14  0.15712683343470207     
Sym=     2a
Ene=  -0.63111199095505921     
Spin= Alpha
Occup=     2.00000000
           1 -0.46178710462724687     
           2   2.2776506991665006E-002
           3   5.0391709130696884E-002
           4  -3.1812697968266031E-002
           5 -0.23619548448774438     
           6  0.13032469009959780     
           7  -2.1836494861747453E-002
           8   4.3192209524560529E-002
           9  0.16259777643465159     
          10 -0.34325504384906785     
          11  0.28052567101361753     
          12 -0.27785607119230588     
          13  -2.8954458643569689E-002
          14  0.25844071966268800     
Sym=     3a
Ene=  -0.59573691116194860     
Spin= Alpha
Occup=     2.00000000
           1  0.20389138544338847     
           2  0.34037758097245646     
           3   4.8979551319404672E-002
           4   3.5414648886779997E-002
           5  0.41089124875253569     
           6  -8.8729593143443461E-002
           7   5.1754826517287709E-002
           8  -5.6225257784918888E-002
           9 -0.12405646883928205     
          10  -3.7799283699705352E-002
          11  0.35970348075461445     
          12 -0.27190728380699508     
          13   9.6731433644419607E-002
          14  0.26287702545807062     
Sym=     4a
Ene=  -0.55202173572719915     
Spin= Alpha
Occup=     2.00000000
           1   8.5673446349222471E-002
           2 -0.11452159146120715     
           3  0.22603050932579435     
           4 -0.18928846916563624     
           5 -0.27518241670055726     
           6  -1.2572875447358318E-002
           7   6.1207796753683257E-002
           8  -4.7617508263905158E-002
           9 -0.38820010920878728     
          10  0.59045619427799134     
          11  0.34522686896661847     
          12 -0.12774747621944130     
          13 -0.13757002549965761     
          14  0.11035100053164482     
Sym=     5a
Ene=  -0.52345661011592093     
Spin= Alpha
Occup=     2.00000000
           1   3.7638989429568842E-004
           2  -7.0871719872565520E-002
           3  0.24681886923560817     
           4  0.33714733530817731     
           5   3.9541422528435391E-004
           6  -2.5766710156079342E-002
           7   9.1351540721041277E-002
           8  0.12512807445152513     
           9   4.4369923998741027E-005
          10 -0.13400260660038246     
          11  0.46467095539644804     
          12  0.63430663726796299     
          13   7.2826949203701186E-004
          14   1.0684534512239247E-005
Sym=     6a
Ene=  -0.49042467823862734     
Spin= Alpha
Occup=     2.00000000
           1  0.14647922233671992     
           2  0.16720382349157628     
           3  -8.3131654277174144E-002
           4   9.6501369180306829E-002
           5 -0.23537518953680869     
           6 -0.43483368310797177     
           7   8.0995043178374554E-002
           8 -0.15075519842830529     
           9   4.0205848345090764E-002
          10 -0.25951133787100811     
          11  -3.4633003390728091E-002
          12  -2.7983699078454716E-002
          13 -0.49260582471016706     
          14   2.7126337800725427E-002
Sym=     7a
Ene=  -0.40752871199294993     
Spin= Alpha
Occup=     2.00000000
           1   1.0239302824272488E-002
           2 -0.21638223889465055     
           3 -0.44661329420028273     
           4  0.28172565486329337     
           5  -1.7466368439261516E-002
           6 -0.22596706735796809     
           7 -0.49848990753405859     
           8  0.31776282724422567     
           9 -0.15750616052563454     
          10  0.17715014717463909     
          11  0.20039516143869565     
          12 -0.10969587376151591     
          13   1.2839329566353763E-002
          14  0.18446600881336331     
Sym=     8a
Ene=  -0.38785075010184161     
Spin= Alpha
Occup=     2.00000000
           1  -8.2670119190715141E-004
           2   7.6307252298638939E-002
           3 -0.26698877498154622     
           4 -0.36447558203857217     
           5   1.5189390959754387E-003
           6  0.11010704533337221     
           7 -0.38378015831632006     
           8 -0.52373580048505430     
           9  -1.0461233560081382E-004
          10  -8.8923374240381742E-002
          11  0.30964002260692214     
          12  0.42245397865940076     
          13  -3.1597902058775376E-004
          14   1.3029796368555739E-006
Sym=     9a
Ene=  -0.14264217728872525     
Spin= Alpha
Occup=     0.00000000
           1   1.4379234236927932E-002
           2  0.29868357973591436     
           3  0.64533486499653336     
           4 -0.41069863630883574     
           5  -1.4712975917276305E-002
           6 -0.31688944735943292     
           7 -0.63654525169489018     
           8  0.40030835052204256     
           9  0.16675964823163134     
          10 -0.10865796548976622     
          11  -5.8874324398077715E-002
          12   2.0593708078426719E-002
          13   1.8670027377513516E-002
          14 -0.27170020386736460     
Sym=    10a
Ene=  -0.12427351119545132     
Spin= Alpha
Occup=     0.00000000
           1  -1.0581509163466289E-003
           2  0.14305464979031127     
           3 -0.49863775554973483     
           4 -0.67952004179701264     
           5  -1.9732396961661919E-003
           6 -0.13306555067749992     
           7  0.46190704939379534     
           8  0.62890586092277878     
           9   1.4448022559360901E-004
          10  -5.6685574810280824E-002
          11  0.19869269392937153     
          12  0.27104826157928696     
          13   1.5903167436988237E-003
          14   4.1863253099970780E-005
Sym=    11a
Ene=    3.9438384066818738E-002
Spin= Alpha
Occup=     0.00000000
           1 -0.72204775288381873     
           2  0.17469162016869610     
           3  -9.9665086186668264E-002
           4  0.11045908853759961     
           5  0.66238685861336988     
           6   4.9241370561628924E-002
           7   1.1673543212520888E-002
           8   3.7944523207961173E-003
           9  0.60273149852376851     
          10  0.51640552331694189     
          11  0.22764009239532218     
          12  -5.7898332260526361E-002
          13 -0.58689397435376056     
          14 -0.49866611682556355     
Sym=    12a
Ene=   0.16550667573205088     
Spin= Alpha
Occup=     0.00000000
           1 -0.30699677355088995     
           2   2.7671966911763615E-002
           3  0.15087897742461190     
           4 -0.10511647959349843     
           5  0.50710730464936760     
           6  0.13363724184341966     
           7 -0.12587722273647756     
           8  0.12232438717409244     
           9 -0.44875304248798492     
          10  0.12743098424143254     
          11 -0.61567608953514852     
          12  0.47809035722009674     
          13 -0.51252139152689347     
          14  0.98612214540849963     
Sym=    13a
Ene=   0.37252073102781674     
Spin= Alpha
Occup=     0.00000000
           1  0.63148084589597842     
           2 -0.57636810275821782     
           3   8.7210091151740277E-002
           4 -0.18747604125890646     
           5  0.58983915517010577     
           6  0.60324239172120353     
           7 -0.13302051218316502     
           8  0.22735326666276381     
           9 -0.28190684376980146     
          10 -0.54024194481412158     
          11  0.25961810079602693     
          12 -0.30388955232252973     
          13 -0.81725885335236270     
          14 -0.30271228693847130     
Sym=    14a
Ene=    1.4902884183891407     
Spin= Alpha
Occup=     0.00000000
           1  0.75985256986117444     
           2   1.2374706734102539     
           3 -0.26680616936130019     
           4  0.45366959834582327     
           5 -0.75783899046266490     
           6   1.1982500290994151     
           7 -0.28163605770924233     
           8  0.45707301212873069     
           9  0.35924507090811741     
          10  0.33066100253426989     
          11  -8.7613776344592942E-002
          12  0.13460055137294413     
          13 -0.52051424060775731     
          14   7.1627627099646318E-002
