3
 energy: -7.329154682618 gnorm: 0.198090338214 xtb: 6.2.2 (9d81278992624c895f80dd42a50cac0aa55982e2)
O         1.03966600000000   -0.18634600000000    0.00000000000000
N        -0.14887200000000    0.46072000000000    0.00000000000000
H        -0.89079400000000   -0.27437400000000    0.00000000000000
3
 energy: -7.350383649936 gnorm: 0.077096911544 xtb: 6.2.2 (9d81278992624c895f80dd42a50cac0aa55982e2)
O         0.98340388770733   -0.16267196752428    0.00000000000000
N        -0.10722798373308    0.43370617986762    0.00000000000000
H        -0.87617590397425   -0.27103421234334    0.00000000000000
3
 energy: -7.351879067097 gnorm: 0.060907344346 xtb: 6.2.2 (9d81278992624c895f80dd42a50cac0aa55982e2)
O         0.96893249698179   -0.13868396524395    0.00000000000000
N        -0.07414101683759    0.40235553165688    0.00000000000000
H        -0.89479148014419   -0.26367156641293    0.00000000000000
3
 energy: -7.352930913767 gnorm: 0.008509398743 xtb: 6.2.2 (9d81278992624c895f80dd42a50cac0aa55982e2)
O         0.98241626436828   -0.14614507010538    0.00000000000000
N        -0.08547599461944    0.41213828430301    0.00000000000000
H        -0.89694026974884   -0.26599321419763    0.00000000000000
3
 energy: -7.352957487811 gnorm: 0.001735621638 xtb: 6.2.2 (9d81278992624c895f80dd42a50cac0aa55982e2)
O         0.98040513179762   -0.14568487282253    0.00000000000000
N        -0.08355599491839    0.41260457568627    0.00000000000000
H        -0.89684913687923   -0.26691970286375    0.00000000000000
3
 energy: -7.352959527118 gnorm: 0.000855815096 xtb: 6.2.2 (9d81278992624c895f80dd42a50cac0aa55982e2)
O         0.98031388235707   -0.14544530510851    0.00000000000000
N        -0.08248813699979    0.41302843096200    0.00000000000000
H        -0.89782574535727   -0.26758312585348    0.00000000000000
