      -----------------------------------------------------------      
     |                   =====================                   |     
     |                           x T B                           |     
     |                   =====================                   |     
     |                         S. Grimme                         |     
     |          Mulliken Center for Theoretical Chemistry        |     
     |                    University of Bonn                     |     
      -----------------------------------------------------------      

   * xtb version 6.2.2 (9d81278992624c895f80dd42a50cac0aa55982e2) compiled by '@Darwin' on 04/03/2020

   xtb is free software: you can redistribute it and/or modify it under
   the terms of the GNU Lesser General Public License as published by
   the Free Software Foundation, either version 3 of the License, or
   (at your option) any later version.
   
   xtb is distributed in the hope that it will be useful,
   but WITHOUT ANY WARRANTY; without even the implied warranty of
   MERCHANTABILITY or FITNESS FOR A PARTICULAR PURPOSE.  See the
   GNU Lesser General Public License for more details.
   
   Cite this work as:
   * S. Grimme, C. Bannwarth, P. Shushkov, J. Chem. Theory Comput., 2017,
     13, 1989-2009. DOI: 10.1021/acs.jctc.7b00118
   * C. Bannwarth, S. Ehlert and S. Grimme., J. Chem. Theory Comput., 2019,
     15, 1652-1671. DOI: 10.1021/acs.jctc.8b01176
   * P. Pracht, E. Caldeweyher, S. Ehlert, S. Grimme, ChemRxiv, 2019, preprint.
     DOI: 10.26434/chemrxiv.8326202.v1
   
   for DFT-D4:
   * E. Caldeweyher, C. Bannwarth and S. Grimme, J. Chem. Phys., 2017,
     147, 034112. DOI: 10.1063/1.4993215
   * E. Caldeweyher, S. Ehlert, A. Hansen, H. Neugebauer, S. Spicher,
     C. Bannwarth and S. Grimme, J. Chem. Phys., 2019, 150, 154122.
     DOI: 10.1063/1.5090222
   
   for sTDA-xTB:
   * S. Grimme and C. Bannwarth, J. Chem. Phys., 2016, 145, 054103.
     DOI: 10.1063/1.4959605
   
   in the mass-spec context:
   * V. Asgeirsson, C. Bauer and S. Grimme, Chem. Sci., 2017, 8, 4879.
     DOI: 10.1039/c7sc00601b
   
   for metadynamics refer to:
   * S. Grimme, J. Chem. Theory Comput., 2019, 155, 2847-2862
     DOI: 10.1021/acs.jctc.9b00143
   
   with help from (in alphabetical order)
   C. Bannwarth, F. Bohle, G. Brandenburg, E. Caldeweyher, M. Checinski,
   S. Dohm, S. Ehlert, S. Ehrlich, F. März, H. Neugebauer, J. Pisarek,
   P. Pracht, P. Shushkov, and S. Spicher.
   
 * started run on 2020/05/12 at 11:44:44.087     

           -------------------------------------------------
          |                Calculation Setup                |
           -------------------------------------------------

          program call               : xtb --input H1N1O1_1_S_0.input H1N1O1_1_S_0.xyz --ohess --molden --namespace H1N1O1_1_S_0 output.out
          calculation namespace      : H1N1O1_1_S_0
          coordinate file            : H1N1O1_1_S_0.xyz
          number of atoms            :                     3
          number of electrons        :                    12
          charge                     :                     0
          spin                       :                   0.0
          first test random number   :      0.46305138288168

   ID    Z sym.   atoms
    1    8 O      1
    2    7 N      2
    3    1 H      3

           -------------------------------------------------
          |                 G F N 2 - x T B                 |
           -------------------------------------------------

        Reference                      10.1021/acs.jctc.8b01176
      * Hamiltonian:
        H0-scaling (s, p, d)           1.850000    2.230000    2.230000
        zeta-weighting                 0.500000
      * Dispersion:
        s8                             2.700000
        a1                             0.520000
        a2                             5.000000
        s9                             5.000000
      * Repulsion:
        kExp                           1.500000    1.000000
        rExp                           1.000000
      * Coulomb:
        alpha                          2.000000
        third order                    shell-resolved
        anisotropic                    true
        a3                             3.000000
        a5                             4.000000
        cn-shift                       1.200000
        cn-exp                         4.000000
        max-rad                        5.000000


          ...................................................
          :                      SETUP                      :
          :.................................................:
          :  # basis functions                   9          :
          :  # atomic orbitals                   9          :
          :  # shells                            5          :
          :  # electrons                        12          :
          :  max. iterations                   250          :
          :  Hamiltonian                  GFN2-xTB          :
          :  restarted?                      false          :
          :  GBSA solvation                  false          :
          :  PC potential                    false          :
          :  electronic temp.          300.0000000     K    :
          :  accuracy                    1.0000000          :
          :  -> integral cutoff          0.2500000E+02      :
          :  -> integral neglect         0.1000000E-07      :
          :  -> SCF convergence          0.1000000E-05 Eh   :
          :  -> wf. convergence          0.1000000E-03 e    :
          :  Broyden damping             0.4000000          :
          ...................................................

 iter      E             dE          RMSdq      gap      omega  full diag
   1     -7.2426117 -0.724261E+01  0.101E+01    1.54       0.0  T
   2     -7.2865245 -0.439128E-01  0.631E+00    0.68       1.0  T
   3     -7.3442912 -0.577668E-01  0.307E+00    0.85       1.0  T
   4     -7.3473620 -0.307076E-02  0.563E-01    0.55       1.0  T
   5     -7.3479016 -0.539606E-03  0.932E-02    0.56       1.0  T
   6     -7.3479014  0.170835E-06  0.180E-02    0.57       3.2  T
   7     -7.3479019 -0.426553E-06  0.938E-03    0.57       6.2  T
   8     -7.3479020 -0.106473E-06  0.191E-03    0.57      30.2  T
   9     -7.3479020 -0.441278E-08  0.463E-04    0.57     124.7  T
  10     -7.3479020 -0.321563E-09  0.929E-05    0.57     621.7  T

   *** convergence criteria satisfied after 10 iterations ***

         #    Occupation            Energy/Eh            Energy/eV
      -------------------------------------------------------------
         1        2.0000           -0.7421776             -20.1957
         2        2.0000           -0.6514955             -17.7281
         3        2.0000           -0.5910559             -16.0834
         4        2.0000           -0.5713452             -15.5471
         5        2.0000           -0.5398136             -14.6891
         6        2.0000           -0.4318164             -11.7503 (HOMO)
         7        0.0000           -0.4110173             -11.1844 (LUMO)
         8                         -0.0185635              -0.5051
         9                          0.0528282               1.4375
      -------------------------------------------------------------
                  HL-Gap            0.0207991 Eh            0.5660 eV
             Fermi-level           -0.4214169 Eh          -11.4673 eV

 SCC (total)                   0 d,  0 h,  0 min,  0.001 sec
 SCC setup                      ...        0 min,  0.000 sec (  5.874%)
 Dispersion                     ...        0 min,  0.000 sec (  0.549%)
 integral evaluation            ...        0 min,  0.000 sec ( 23.378%)
 zeroth order Hamiltonian       ...        0 min,  0.000 sec (  0.849%)
 iterations                     ...        0 min,  0.001 sec ( 46.406%)
 molecular gradient             ...        0 min,  0.000 sec ( 18.686%)
 printout                       ...        0 min,  0.000 sec (  3.544%)

         :::::::::::::::::::::::::::::::::::::::::::::::::::::
         ::                     SUMMARY                     ::
         :::::::::::::::::::::::::::::::::::::::::::::::::::::
         :: total energy              -7.329154682541 Eh    ::
         :: gradient norm              0.198090146174 Eh/a0 ::
         :: HOMO-LUMO gap              0.565971797701 eV    ::
         ::.................................................::
         :: SCC energy                -7.347901962329 Eh    ::
         :: -> isotropic ES            0.009473777737 Eh    ::
         :: -> anisotropic ES         -0.002017727303 Eh    ::
         :: -> anisotropic XC          0.013906893031 Eh    ::
         :: -> dispersion             -0.000388330847 Eh    ::
         :: repulsion energy           0.018747279507 Eh    ::
         :: add. restraining           0.000000000000 Eh    ::
         :::::::::::::::::::::::::::::::::::::::::::::::::::::

      ----------------------------------------------------------- 
     |                   =====================                   |
     |                        A N C O P T                        |
     |                   =====================                   |
     |               Approximate Normal Coordinate               |
     |                Rational Function Optimizer                |
      ----------------------------------------------------------- 

          ...................................................
          :                      SETUP                      :
          :.................................................:
          :   optimization level            normal          :
          :   max. optcycles                   200          :
          :   ANC micro-cycles                  20          :
          :   degrees of freedom                 3          :
          :.................................................:
          :   RF solver                   davidson          :
          :   write xtbopt.log                true          :
          :   linear?                        false          :
          :   energy convergence         0.5000000E-05 Eh   :
          :   grad. convergence          0.1000000E-02 Eh/α :
          :   maximium RF displ.         1.0000000          :
          :   Hlow (freq-cutoff)         0.1000000E-01      :
          :   Hmax (freq-cutoff)         5.0000000          :
          :   S6 in model hess.         20.0000000          :
          ...................................................

generating ANC from model Hessian ...
Using Lindh-Hessian (1995)
 Shifting diagonal of input Hessian by    0.0000000000000000     
 Lowest  eigenvalues of input Hessian
   -0.000000   -0.000000   -0.000000    0.000000    0.000000    0.000000
    0.192460    0.969448    1.374996
 Highest eigenvalues
    0.000000    0.000000    0.000000    0.192460    0.969448    1.374996


........................................................................
.............................. CYCLE    1 ..............................
........................................................................
   1     -7.3479020 -0.734790E+01  0.554E-06    0.57       0.0  T
   2     -7.3479020 -0.355271E-14  0.384E-06    0.57   15020.0  T
   3     -7.3479020 -0.346390E-13  0.135E-06    0.57   42771.1  T
     SCC iter.                  ...        0 min,  0.000 sec
     gradient                   ...        0 min,  0.000 sec
 * total energy  :    -7.3291547 Eh     change       -0.7720491E-10 Eh
   gradient norm :     0.1980903 Eh/α   predicted     0.0000000E+00 (-100.00%)
   displ. norm   :     0.1513516 α      lambda       -0.2919263E-01
   maximum displ.:     0.1345865 α      in ANC's #3, #2, #1, ...

........................................................................
.............................. CYCLE    2 ..............................
........................................................................
   1     -7.3776085 -0.737761E+01  0.107E+00    0.82       0.0  T
   2     -7.3777681 -0.159570E-03  0.631E-01    0.78       1.0  T
   3     -7.3777930 -0.249126E-04  0.248E-01    0.74       1.0  T
   4     -7.3778412 -0.481806E-04  0.826E-02    0.72       1.0  T
   5     -7.3778425 -0.127715E-05  0.227E-02    0.72       2.5  T
   6     -7.3778426 -0.100790E-06  0.203E-03    0.72      28.4  T
   7     -7.3778426 -0.187061E-08  0.643E-04    0.72      89.8  T
   8     -7.3778426 -0.597993E-10  0.392E-05    0.72    1473.2  T
     SCC iter.                  ...        0 min,  0.000 sec
     gradient                   ...        0 min,  0.000 sec
 * total energy  :    -7.3503836 Eh     change       -0.2122897E-01 Eh
   gradient norm :     0.0770963 Eh/α   predicted    -0.1493067E-01 ( -29.67%)
   displ. norm   :     0.1079496 α      lambda       -0.7583279E-02
   maximum displ.:     0.0901378 α      in ANC's #3, #1, #2, ...

........................................................................
.............................. CYCLE    3 ..............................
........................................................................
   1     -7.3889485 -0.738895E+01  0.839E-01    0.91       0.0  T
   2     -7.3890148 -0.662979E-04  0.494E-01    0.88       1.0  T
   3     -7.3890379 -0.230977E-04  0.775E-02    0.83       1.0  T
   4     -7.3890396 -0.163118E-05  0.285E-02    0.82       2.0  T
   5     -7.3890398 -0.212519E-06  0.147E-02    0.82       3.9  T
   6     -7.3890398 -0.358775E-07  0.101E-03    0.82      56.9  T
   7     -7.3890398 -0.216741E-09  0.361E-04    0.82     160.1  T
   8     -7.3890398 -0.177884E-10  0.174E-05    0.82    3310.2  T
     SCC iter.                  ...        0 min,  0.000 sec
     gradient                   ...        0 min,  0.000 sec
 * total energy  :    -7.3518791 Eh     change       -0.1495417E-02 Eh
   gradient norm :     0.0609070 Eh/α   predicted    -0.3835823E-02 ( 156.51%)
   displ. norm   :     0.0410411 α      lambda       -0.2495399E-02
   maximum displ.:     0.0364805 α      in ANC's #3, #2, #1, ...

........................................................................
.............................. CYCLE    4 ..............................
........................................................................
   1     -7.3842016 -0.738420E+01  0.324E-01    0.73       0.0  T
   2     -7.3842139 -0.123546E-04  0.191E-01    0.74       1.0  T
   3     -7.3842185 -0.461849E-05  0.360E-02    0.76       1.6  T
   4     -7.3842189 -0.309625E-06  0.115E-02    0.76       5.0  T
   5     -7.3842189 -0.582475E-07  0.687E-03    0.76       8.4  T
   6     -7.3842189 -0.100087E-07  0.312E-04    0.76     185.1  T
   7     -7.3842189 -0.193161E-10  0.157E-04    0.76     368.2  T
     SCC iter.                  ...        0 min,  0.000 sec
     gradient                   ...        0 min,  0.000 sec
 * total energy  :    -7.3529309 Eh     change       -0.1051847E-02 Eh
   gradient norm :     0.0085064 Eh/α   predicted    -0.1249800E-02 (  18.82%)
   displ. norm   :     0.0056777 α      lambda       -0.4508370E-04
   maximum displ.:     0.0049834 α      in ANC's #3, #1, #2, ...

........................................................................
.............................. CYCLE    5 ..............................
........................................................................
   1     -7.3845987 -0.738460E+01  0.452E-02    0.78       0.0  T
   2     -7.3845993 -0.639307E-06  0.231E-02    0.78       2.5  T
   3     -7.3845994 -0.107602E-06  0.106E-02    0.78       5.5  T
   4     -7.3845995 -0.352253E-07  0.389E-03    0.78      14.9  T
   5     -7.3845995 -0.326885E-08  0.899E-04    0.78      64.2  T
   6     -7.3845995 -0.123477E-09  0.584E-05    0.78     989.2  T
     SCC iter.                  ...        0 min,  0.000 sec
     gradient                   ...        0 min,  0.000 sec
 * total energy  :    -7.3529575 Eh     change       -0.2657404E-04 Eh
   gradient norm :     0.0017341 Eh/α   predicted    -0.2254326E-04 ( -15.17%)
   displ. norm   :     0.0031506 α      lambda       -0.3491943E-05
   maximum displ.:     0.0023183 α      in ANC's #2, #3, #1, ...

........................................................................
.............................. CYCLE    6 ..............................
........................................................................
   1     -7.3845289 -0.738453E+01  0.206E-02    0.78       0.0  T
   2     -7.3845291 -0.148964E-06  0.958E-03    0.78       6.0  T
   3     -7.3845291 -0.238794E-07  0.437E-03    0.78      13.2  T
   4     -7.3845291 -0.446914E-08  0.177E-03    0.78      32.5  T
   5     -7.3845291 -0.365717E-09  0.223E-04    0.78     259.2  T
   6     -7.3845291 -0.617373E-11  0.225E-05    0.78    2566.1  T
     SCC iter.                  ...        0 min,  0.000 sec
     gradient                   ...        0 min,  0.000 sec
 * total energy  :    -7.3529595 Eh     change       -0.2039307E-05 Eh
   gradient norm :     0.0008558 Eh/α   predicted    -0.1746355E-05 ( -14.37%)
   displ. norm   :     0.0006248 α      lambda       -0.3416432E-06
   maximum displ.:     0.0005944 α      in ANC's #3, #2, #1, ...

   *** GEOMETRY OPTIMIZATION CONVERGED AFTER 6 ITERATIONS ***

------------------------------------------------------------------------
 total energy gain   :        -0.0238048 Eh      -14.9378 kcal/mol
 total RMSD          :         0.1193793 a0        0.0632 Å
 total power (kW/mol):       -10.4166018 (step)********** (real)
------------------------------------------------------------------------

 ANCopt (total)                0 d,  0 h,  0 min,  0.006 sec
 optimizer setup                ...        0 min,  0.000 sec (  1.222%)
 model hessian                  ...        0 min,  0.000 sec (  0.790%)
 ANC generation                 ...        0 min,  0.000 sec (  0.662%)
 coordinate transformation      ...        0 min,  0.000 sec (  0.205%)
 single point calculation       ...        0 min,  0.005 sec ( 89.795%)
 optimization log               ...        0 min,  0.000 sec (  1.922%)
 hessian update                 ...        0 min,  0.000 sec (  0.235%)
 rational function              ...        0 min,  0.000 sec (  1.948%)

================
 final structure:
================
3
 xtb: 6.2.2 (9d81278992624c895f80dd42a50cac0aa55982e2)
O         0.98031388235707   -0.14544530510851    0.00000000000000
N        -0.08248813699979    0.41302843096200    0.00000000000000
H        -0.89782574535727   -0.26758312585348    0.00000000000000

 Bond Distances (Angstroems)
 ---------------------------
O1-N2=1.2006         N2-O1=1.2006         N2-H3=1.0621         H3-N2=1.0621         
 N  H  Rav=1.0621 sigma=0.0000  Rmin=1.0621  Rmax=1.0621     1
 O  N  Rav=1.2006 sigma=0.0000  Rmin=1.2006  Rmax=1.2006     1

 selected bond angles (degree)
 --------------------
H3-N2-O1=112.43                

 selected dihedral angles (degree)
 ---------------------------------

           -------------------------------------------------
          |                Final Singlepoint                |
           -------------------------------------------------

          ...................................................
          :                      SETUP                      :
          :.................................................:
          :  # basis functions                   9          :
          :  # atomic orbitals                   9          :
          :  # shells                            5          :
          :  # electrons                        12          :
          :  max. iterations                   250          :
          :  Hamiltonian                  GFN2-xTB          :
          :  restarted?                      false          :
          :  GBSA solvation                  false          :
          :  PC potential                    false          :
          :  electronic temp.          300.0000000     K    :
          :  accuracy                    1.0000000          :
          :  -> integral cutoff          0.2500000E+02      :
          :  -> integral neglect         0.1000000E-07      :
          :  -> SCF convergence          0.1000000E-05 Eh   :
          :  -> wf. convergence          0.1000000E-03 e    :
          :  Broyden damping             0.4000000          :
          ...................................................

 iter      E             dE          RMSdq      gap      omega  full diag
   1     -7.3845291 -0.738453E+01  0.375E-06    0.78       0.0  T
   2     -7.3845291 -0.976996E-14  0.175E-06    0.78   33048.3  T
   3     -7.3845291 -0.266454E-14  0.103E-06    0.78   56006.0  T

   *** convergence criteria satisfied after 3 iterations ***

         #    Occupation            Energy/Eh            Energy/eV
      -------------------------------------------------------------
         1        2.0000           -0.7716531             -20.9978
         2        2.0000           -0.6573591             -17.8877
         3        2.0000           -0.6078720             -16.5410
         4        2.0000           -0.6033556             -16.4181
         5        2.0000           -0.5403418             -14.7034
         6        2.0000           -0.3959083             -10.7732 (HOMO)
         7        0.0000           -0.3672213              -9.9926 (LUMO)
         8                          0.0337115               0.9173
         9                          0.3040481               8.2736
      -------------------------------------------------------------
                  HL-Gap            0.0286870 Eh            0.7806 eV
             Fermi-level           -0.3815648 Eh          -10.3829 eV

 SCC (total)                   0 d,  0 h,  0 min,  0.001 sec
 SCC setup                      ...        0 min,  0.000 sec (  4.994%)
 Dispersion                     ...        0 min,  0.000 sec (  0.473%)
 integral evaluation            ...        0 min,  0.000 sec ( 39.303%)
 zeroth order Hamiltonian       ...        0 min,  0.000 sec (  0.591%)
 iterations                     ...        0 min,  0.000 sec ( 18.972%)
 molecular gradient             ...        0 min,  0.000 sec ( 30.230%)
 printout                       ...        0 min,  0.000 sec (  4.433%)

         :::::::::::::::::::::::::::::::::::::::::::::::::::::
         ::                     SUMMARY                     ::
         :::::::::::::::::::::::::::::::::::::::::::::::::::::
         :: total energy              -7.352959527090 Eh    ::
         :: gradient norm              0.000855581619 Eh/a0 ::
         :: HOMO-LUMO gap              0.780614060532 eV    ::
         ::.................................................::
         :: SCC energy                -7.384529087195 Eh    ::
         :: -> isotropic ES            0.006521812665 Eh    ::
         :: -> anisotropic ES          0.000454981597 Eh    ::
         :: -> anisotropic XC          0.013311406710 Eh    ::
         :: -> dispersion             -0.000398829068 Eh    ::
         :: repulsion energy           0.031569560033 Eh    ::
         :: add. restraining           0.000000000000 Eh    ::
         :::::::::::::::::::::::::::::::::::::::::::::::::::::

           ------------------------------------------------- 
          |                Numerical Hessian                |
           ------------------------------------------------- 
step length          :   0.00500
SCC accuracy         :   0.30000
Hessian scale factor :   1.00000
frozen atoms in %    :   0.00000    0
RMS gradient         :   0.00086
estimated CPU  time      0.00 min
estimated wall time      0.00 min

writing file <hessian>.

 projected vibrational frequencies (cm-1)
eigval :       -0.00    -0.00     0.00     0.00     0.00     0.00
eigval :     1465.96  1665.07  2736.45
           -------------------------------------------------
          |                Property Printout                |
           -------------------------------------------------

    * Orbital Energies and Occupations

         #    Occupation            Energy/Eh            Energy/eV
      -------------------------------------------------------------
         1        2.0000           -0.7716531             -20.9978
         2        2.0000           -0.6573591             -17.8877
         3        2.0000           -0.6078720             -16.5410
         4        2.0000           -0.6033556             -16.4181
         5        2.0000           -0.5403418             -14.7034
         6        2.0000           -0.3959083             -10.7732 (HOMO)
         7        0.0000           -0.3672213              -9.9926 (LUMO)
         8                          0.0337115               0.9173
Molecule has the following symmetry elements: (sigma) 
It seems to be the Cs point group
         9                          0.3040481               8.2736
      -------------------------------------------------------------
                  HL-Gap            0.0286870 Eh            0.7806 eV
             Fermi-level           -0.3815648 Eh          -10.3829 eV

     #   Z        covCN         q      C6AA      α(0)
     1   8 O      0.923    -0.161    17.416     5.597
     2   7 N      1.778     0.026    21.454     6.859
     3   1 H      0.855     0.135     1.508     1.924

 Mol. C6AA /au·bohr⁶  :        100.245626
 Mol. C8AA /au·bohr⁸  :       1997.169766
 Mol. α(0) /au        :         14.379822


Wiberg/Mayer (AO) data.
largest (>0.10) Wiberg bond orders for each atom
          total WBO             WBO to atom ...
     1  O   2.060        N    2 2.014
     2  N   2.949        O    1 2.014    H    3 0.936
     3  H   0.982        N    2 0.936

MOs/occ written to file <molden.input>


molecular dipole:
                 x           y           z       tot (Debye)
 q only:       -0.531      -0.004       0.000
   full:       -0.629      -0.306       0.000       1.778
molecular quadrupole (traceless):
                xx          xy          yy          xz          yz          zz
 q only:       -0.181       0.292       0.119       0.000      -0.000       0.062
  q+dip:       -0.457       1.116      -0.061       0.000      -0.000       0.518
   full:       -0.668       0.952      -0.753       0.000       0.000       1.420

           -------------------------------------------------
          |                Geometry Summary                 |
           -------------------------------------------------

      molecular mass/u    :       31.0140489
   center of mass at/Å    :        0.4392884       0.1028034      -0.0000017
  moments of inertia/u·Å² :        0.8487299E+00   0.1192212E+02   0.1277085E+02
rotational constants/cm⁻¹ :        0.1986219E+02   0.1413980E+01   0.1320009E+01

 * 1 selected distances

     #   Z        #   Z                                     value/Å
     1   8 O      2   7 N                                 1.2006003 (max)

 * 1 distinct bonds (by element types)

   Z      Z             #   av. dist./Å        max./Å        min./Å
   7 N    8 O           1     1.2006003     1.2006003     1.2006003

           -------------------------------------------------
          |               Frequency Printout                |
           -------------------------------------------------
 projected vibrational frequencies (cm-1)
eigval :       -0.00    -0.00     0.00     0.00     0.00     0.00
eigval :     1465.96  1665.07  2736.45
 reduced masses (amu)
   1:  1.01   2: 14.86   3: 16.00   4: 13.37   5: 14.39   6: 13.53   7:  3.29   8: 14.78
   9:  1.82
 IR intensities (amu)
   1:  0.30   2:  0.17   3:  0.08   4:  0.25   5:  0.19   6:  0.26   7:  0.33   8:  0.99
   9:  0.37
 Raman intensities (amu)
   1:  0.00   2:  0.00   3:  0.00   4:  0.00   5:  0.00   6:  0.00   7:  0.00   8:  0.00
   9:  0.00
 output can be read by thermo (or use thermo option).
 writing <g98.out> molden fake output.
 recommended (thermochemical) frequency scaling factor: 1.0
           -------------------------------------------------
          |             Thermodynamic Functions             |
           -------------------------------------------------

cs  symmetry found (for desy threshold:  0.10E+00) used in thermo

          ...................................................
          :                      SETUP                      :
          :.................................................:
          :  # frequencies                           3      :
          :  # imaginary freq.                       0      :
          :  linear?                             false      :
          :  only rotor calc.                    false      :
          :  symmetry                               cs      :
          :  rotational number                       1      :
          :  scaling factor                  1.0000000      :
          :  rotor cutoff                   50.0000000 cm⁻¹ :
          :  imag. cutoff                  -20.0000000 cm⁻¹ :
          :.................................................:

    mode    ω/cm⁻¹     T·S(HO)/kcal·mol⁻¹    T·S(FR)/kcal·mol⁻¹   T·S(vib)
   ------------------------------------------------------------------------
   ------------------------------------------------------------------------

   temp. (K)  partition function   enthalpy   heat capacity  entropy
                                   cal/mol     cal/K/mol   cal/K/mol   J/K/mol
 298.15  VIB   1.00                    5.109      0.127      0.019
         ROT   868.                  888.752      2.981     16.428
         INT   869.                  893.861      3.107     16.447
         TR   0.167E+27             1481.254      4.968     36.212
         TOT                        2375.1148     8.0756    52.6593   220.3265

   temp. (K)  partition function   enthalpy   heat capacity  entropy
                                   cal/mol     cal/K/mol   cal/K/mol   J/K/mol
 120.00  VIB   1.00                    0.000      0.000     -0.000
         ROT   222.                  357.707      2.981     13.715
         INT   222.                  357.707      2.981     13.715
         TR   0.427E+26              596.178      4.968     31.693
         TOT                         953.8849     7.9491    45.4076   189.9853

   temp. (K)  partition function   enthalpy   heat capacity  entropy
                                   cal/mol     cal/K/mol   cal/K/mol   J/K/mol
 100.00  VIB   1.00                    0.000      0.000     -0.000
         ROT   169.                  298.089      2.981     13.172
         INT   169.                  298.089      2.981     13.172
         TR   0.325E+26              496.815      4.968     30.787
         TOT                         794.9040     7.9490    43.9587   183.9233

   temp. (K)  partition function   enthalpy   heat capacity  entropy
                                   cal/mol     cal/K/mol   cal/K/mol   J/K/mol
  80.00  VIB   1.00                    0.000      0.000     -0.000
         ROT   121.                  238.471      2.981     12.506
         INT   121.                  238.471      2.981     12.506
         TR   0.232E+26              397.452      4.968     29.679
         TOT                         635.9232     7.9490    42.1855   176.5041

   temp. (K)  partition function   enthalpy   heat capacity  entropy
                                   cal/mol     cal/K/mol   cal/K/mol   J/K/mol
  60.00  VIB   1.00                    0.000      0.000     -0.000
         ROT   78.4                  178.853      2.981     11.649
         INT   78.4                  178.853      2.981     11.649
         TR   0.151E+26              298.089      4.968     28.251
         TOT                         476.9424     7.9490    39.8994   166.9391

   temp. (K)  partition function   enthalpy   heat capacity  entropy
                                   cal/mol     cal/K/mol   cal/K/mol   J/K/mol
  40.00  VIB   1.00                    0.000      0.000     -0.000
         ROT   42.7                  119.236      2.981     10.440
         INT   42.7                  119.236      2.981     10.440
         TR   0.821E+25              198.726      4.968     26.237
         TOT                         317.9616     7.9490    36.6773   153.4579

   temp. (K)  partition function   enthalpy   heat capacity  entropy
                                   cal/mol     cal/K/mol   cal/K/mol   J/K/mol
  20.00  VIB   1.00                    0.000      0.000     -0.000
         ROT   15.1                   59.618      2.981      8.374
         INT   15.1                   59.618      2.981      8.374
         TR   0.290E+25               99.363      4.968     22.795
         TOT                         158.9808     7.9490    31.1692   130.4117

   temp. (K)  partition function   enthalpy   heat capacity  entropy
                                   cal/mol     cal/K/mol   cal/K/mol   J/K/mol
  10.00  VIB   1.00                    0.000      0.000     -0.000
         ROT   5.33                   29.809      2.981      6.308
         INT   5.33                   29.809      2.981      6.308
         TR   0.103E+25               49.681      4.968     19.353
         TOT                          79.4904     7.9490    25.6610   107.3655

       T/K    H(0)-H(T)+PV         H(T)/Eh          T*S/Eh         G(T)/Eh
   ------------------------------------------------------------------------
    298.15    0.378499E-02    0.171521E-01    0.250201E-01   -0.786805E-02
    120.00    0.152011E-02    0.148872E-01    0.868339E-02    0.620382E-02
    100.00    0.126676E-02    0.146339E-01    0.700527E-02    0.762859E-02
     80.00    0.101341E-02    0.143805E-01    0.537815E-02    0.900235E-02
     60.00    0.760056E-03    0.141272E-01    0.381502E-02    0.103121E-01
     40.00    0.506704E-03    0.138738E-01    0.233796E-02    0.115358E-01
     20.00    0.253352E-03    0.136204E-01    0.993424E-03    0.126270E-01
     10.00    0.126676E-03    0.134938E-01    0.408934E-03    0.130848E-01 (used)
   ------------------------------------------------------------------------

         :::::::::::::::::::::::::::::::::::::::::::::::::::::
         ::                  THERMODYNAMIC                  ::
         :::::::::::::::::::::::::::::::::::::::::::::::::::::
         :: total free energy          -7.339874688969 Eh   ::
         ::.................................................::
         :: total energy               -7.352959527087 Eh   ::
         :: zero point energy           0.013367095785 Eh   ::
         :: G(RRHO) w/o ZPVE           -0.000282257667 Eh   ::
         :: G(RRHO) contrib.            0.013084838118 Eh   ::
         :::::::::::::::::::::::::::::::::::::::::::::::::::::

optimized geometry written to: xtbopt.xyz


           -------------------------------------------------
          | TOTAL ENERGY               -7.352959527087 Eh   |
          | TOTAL ENTHALPY             -7.339465755286 Eh   |
          | TOTAL FREE ENERGY          -7.339874688969 Eh   |
          | GRADIENT NORM               0.000855604304 Eh/α |
          | HOMO-LUMO GAP               0.780614033195 eV   |
           -------------------------------------------------

------------------------------------------------------------------------
 * finished run on 2020/05/12 at 11:44:44.126     
------------------------------------------------------------------------
 total:
 * wall-time:     0 d,  0 h,  0 min,  0.039 sec
 *  cpu-time:     0 d,  0 h,  0 min,  0.039 sec
 * ratio c/w:     0.999 speedup
 SCF:
 * wall-time:     0 d,  0 h,  0 min,  0.002 sec
 *  cpu-time:     0 d,  0 h,  0 min,  0.002 sec
 * ratio c/w:     0.999 speedup
 ANC optimizer:
 * wall-time:     0 d,  0 h,  0 min,  0.007 sec
 *  cpu-time:     0 d,  0 h,  0 min,  0.007 sec
 * ratio c/w:     1.000 speedup
 numerical hessian:
 * wall-time:     0 d,  0 h,  0 min,  0.015 sec
 *  cpu-time:     0 d,  0 h,  0 min,  0.015 sec
 * ratio c/w:     1.000 speedup

