$hessian                                                                        
        0.6735510041  -0.2983953098  -0.0000018304  -0.5830175033   0.3015691122
        0.0000015088  -0.0905335008  -0.0031738024   0.0000003216
       -0.2983953098   0.1967287337   0.0000006982   0.3013698691  -0.2462920465
       -0.0000006221  -0.0029745593   0.0495633127  -0.0000000761
       -0.0000018304   0.0000006982   0.0000000000   0.0000015091  -0.0000006228
       -0.0000000000   0.0000003212  -0.0000000754  -0.0000000000
       -0.5830175033   0.3013698691   0.0000015091   0.6870132556  -0.2080496087
       -0.0000020350  -0.1039957523  -0.0933202603   0.0000005259
        0.3015691122  -0.2462920465  -0.0000006228  -0.2080496087   0.4388358774
       -0.0000000397  -0.0935195035  -0.1925438310   0.0000006625
        0.0000015088  -0.0000006221  -0.0000000000  -0.0000020350  -0.0000000397
        0.0000000000   0.0000005262   0.0000006618  -0.0000000000
       -0.0905335008  -0.0029745593   0.0000003212  -0.1039957523  -0.0935195035
        0.0000005262   0.1945292531   0.0964940628  -0.0000008474
       -0.0031738024   0.0495633127  -0.0000000754  -0.0933202603  -0.1925438310
        0.0000006618   0.0964940628   0.1429805182  -0.0000005864
        0.0000003216  -0.0000000761  -0.0000000000   0.0000005259   0.0000006625
       -0.0000000000  -0.0000008474  -0.0000005864   0.0000000000
