[Molden Format]
[Title]
[Atoms] AU
O      1     8  0.18525231427910E+01 -0.27486146705885E+00 -0.59868238564360E-05
N      2     7 -0.15587588625571E+00  0.78051135996014E+00 -0.81812413020659E-06
H      3     1 -0.16966472565352E+01 -0.50564989290128E+00  0.68049479866426E-05
[GTO]
           1 0
 s           4   1.0000000000000000     
   69.137961906196551      -0.20478756370077797     
   11.906129132707308      -0.24997023136827334     
  0.95670827744340703       0.40025880240639616     
  0.36462520496073686       0.15952206667693555     
 p           4   1.0000000000000000     
   8.2124193257781641        1.1321556799186829     
   2.1293576997098116        1.0476840782254817     
  0.75066448202360914       0.54956508217158984     
  0.29885246543283073        8.2908486592766617E-002

           2 0
 s           4   1.0000000000000000     
   63.594024466941008      -0.19234388414721629     
   10.951417231523665      -0.23478107924953728     
  0.87999310257376984       0.37593753901700888     
  0.33538715296521110       0.14982889271862770     
 p           4   1.0000000000000000     
   7.2965040481495080       0.97658666315667420     
   1.8918745450712575       0.90372226730345739     
  0.66694432110824120       0.47404958461536373     
  0.26552202674130870        7.1516067715011844E-002

           3 0
 s           3   1.0000000000000000     
   3.3702276975336001       0.27359110588908298     
  0.61389118221497996       0.26460540653860526     
  0.16614291148415999        8.2465947534082318E-002

[MO]
Sym=     1a
Ene=  -0.77165314735035540     
Spin= Alpha
Occup=     2.00000000
           1  0.61926577796879412     
           2 -0.22946615227176251     
           3   9.8602143658877220E-002
           4   6.6749799131326019E-007
           5  0.35448372655484139     
           6  0.23537004573966033     
           7 -0.14471007490525362     
           8  -5.7305970382645439E-007
           9   3.3794604275045943E-002
Sym=     2a
Ene=  -0.65735909301938311     
Spin= Alpha
Occup=     2.00000000
           1  0.61700132489890647     
           2  0.43833332487605020     
           3 -0.12851094859749362     
           4  -1.1990169013485033E-006
           5 -0.47878068630941967     
           6  0.13595597773821760     
           7   7.4722521889826157E-002
           8  -5.9095010017080904E-007
           9 -0.20122549054887537     
Sym=     3a
Ene=  -0.60787204172439480     
Spin= Alpha
Occup=     2.00000000
           1  0.21923015063152626     
           2  -5.5539840369841177E-003
           3 -0.64535795867879231     
           4   2.3726558543899349E-006
           5  -5.8130912259754509E-002
           6 -0.36073861662508871     
           7 -0.34527431138983733     
           8   2.9598851015933443E-006
           9  0.25199399361602409     
Sym=     4a
Ene=  -0.60335563160969718     
Spin= Alpha
Occup=     2.00000000
           1  -4.1665130688945796E-007
           2   2.4503260469202728E-006
           3   2.4150028058051112E-006
           4  0.68616849504634481     
           5   2.0478576423820955E-007
           6   2.6539147010480975E-006
           7   1.7403879698228586E-006
           8  0.60641378047894834     
           9  -4.0417608319227578E-007
Sym=     5a
Ene=  -0.54034183390227153     
Spin= Alpha
Occup=     2.00000000
           1 -0.22066405220596580     
           2 -0.56790289382606129     
           3 -0.20882809517376213     
           4   2.4740555454456928E-006
           5 -0.41944052316916880     
           6  0.37519194394388394     
           7 -0.35019367820756608     
           8  -6.0282948641767353E-007
           9 -0.25668941891197700     
Sym=     6a
Ene=  -0.39590832668335074     
Spin= Alpha
Occup=     1.99999945
           1  -3.5375983086210205E-002
           2  0.22948501635571072     
           3  0.64829963095594623     
           4  -1.9076275077035952E-006
           5 -0.40965358408484487     
           6  -3.9995812417906312E-002
           7 -0.64075431764012525     
           8   1.2314685426842176E-006
           9  0.35135912423744781     
Sym=     7a
Ene=  -0.36722128882176858     
Spin= Alpha
Occup=     0.00000055
           1  -4.0625614461225473E-008
           2   2.6054962498310424E-006
           3   1.2948728929804807E-006
           4  0.75383976110322692     
           5   1.9301535565899334E-008
           6  -2.8727920741813592E-006
           7  -1.3951505262197103E-006
           8 -0.81936799782465508     
           9   2.4247155107652493E-008
Sym=     8a
Ene=    3.3711527053991129E-002
Spin= Alpha
Occup=     0.00000000
           1   3.2988693537109738E-002
           2 -0.21864497791294332     
           3  -9.9808223037333652E-002
           4   9.2853788274350770E-007
           5 -0.66445438095351994     
           6  0.51891345244836606     
           7  0.62775727714503604     
           8  -2.8856800057772027E-006
           9   1.0747860222549284     
Sym=     9a
Ene=   0.30404811160163159     
Spin= Alpha
Occup=     0.00000000
           1  0.68591294741264486     
           2 -0.80053372295562786     
           3  0.44472489998626735     
           4   1.9992755630531039E-006
           5 -0.59990594570974154     
           6 -0.94210888394549352     
           7  0.36765016861691330     
           8   2.6351809618999120E-006
           9 -0.18488869083265042     
