 Entering Gaussian System
 *********************************************
 Gaussian 98:
 frequency output generated by the xtb code
 *********************************************
                         Standard orientation:
 --------------------------------------------------------------------
  Center     Atomic     Atomic              Coordinates (Angstroms)
  Number     Number      Type              X           Y           Z
 --------------------------------------------------------------------
    1          8             0        0.980313   -0.145450   -0.000003
    2          7             0       -0.082486    0.413029   -0.000000
    3          1             0       -0.897827   -0.267578    0.000004
 --------------------------------------------------------------------
     1 basis functions        1 primitive gaussians
     1 alpha electrons        1 beta electrons

 Harmonic frequencies (cm**-1), IR intensities (KM/Mole),
 Raman scattering activities (A**4/amu), Raman depolarization ratios,
 reduced masses (AMU), force constants (mDyne/A) and normal coordinates:
                      1                      2                      3
                        a                      a                      a 
 Frequencies --  1465.9593              1665.0668              2736.4506
 Red. masses --     3.2922                14.7753                 1.8197
 Frc consts  --     0.0000                 0.0000                 0.0000
 IR Inten    --     0.3251                 0.9867                 0.3656
 Raman Activ --     0.0000                 0.0000                 0.0000
 Depolar     --     0.0000                 0.0000                 0.0000
 Atom AN      X      Y      Z        X      Y      Z        X      Y      Z
   1   8     0.25   0.10  -0.00     0.58  -0.33  -0.00     0.07  -0.03  -0.00
   2   7    -0.10  -0.28   0.00    -0.65   0.36   0.00     0.13   0.20  -0.00
   3   1    -0.62   0.67   0.00     0.09  -0.04  -0.00    -0.75  -0.61   0.00
