3
 energy: -7.352959527090 gnorm: 0.000855581619 xtb: 6.2.2 (9d81278992624c895f80dd42a50cac0aa55982e2)
O         0.98031312078871   -0.14545043801778   -0.00000316809104
N        -0.08248597438887    0.41302886286258   -0.00000043293269
H        -0.89782714639984   -0.26757842484480    0.00000360102373
