5
 energy: -9.421529480170 gnorm: 0.223617818158 xtb: 6.2.2 (9d81278992624c895f80dd42a50cac0aa55982e2)
C         1.49166400000000   -0.60455100000000   -0.22083200000000
C         0.59793500000000    0.39273500000000    0.49782600000000
C        -0.82109500000000    0.03255300000000    0.39878900000000
N        -0.26418100000000    1.06993300000000   -0.48164600000000
H        -1.00432200000000   -0.89067100000000   -0.19413700000000
5
 energy: -9.473681507253 gnorm: 0.133286617167 xtb: 6.2.2 (9d81278992624c895f80dd42a50cac0aa55982e2)
C         1.52910951165632   -0.54452224388032   -0.15581075786814
C         0.63048021334233    0.34524104477552    0.40601999528467
C        -0.78390419000768    0.01996823513214    0.34430902655586
N        -0.26967526662300    1.07617296667200   -0.42768542956540
H        -1.10600926836797   -0.89686100269934   -0.16683283440699
5
 energy: -9.492821176884 gnorm: 0.121643850805 xtb: 6.2.2 (9d81278992624c895f80dd42a50cac0aa55982e2)
C         1.56430565675434   -0.48288441217639   -0.07093866465244
C         0.67948219676043    0.28736922837422    0.28638565373323
C        -0.74835296977483    0.00871433899127    0.28256154883474
N        -0.29351513810780    1.07614773969273   -0.35734663113165
H        -1.20191874563214   -0.88934789488183   -0.14066190678389
5
 energy: -9.502872332429 gnorm: 0.051200750630 xtb: 6.2.2 (9d81278992624c895f80dd42a50cac0aa55982e2)
C         1.73919226935486   -0.48558257371864   -0.03729624705273
C         0.68349571565562    0.26816601526042    0.22586988303086
C        -0.75832558941601   -0.00654273577833    0.27919000225463
N        -0.33271778362155    1.08887540987464   -0.33427633961146
H        -1.33164361197293   -0.86491711563808   -0.13348729862129
5
 energy: -9.505783198340 gnorm: 0.037220226614 xtb: 6.2.2 (9d81278992624c895f80dd42a50cac0aa55982e2)
C         1.76801140131602   -0.44434221264828   -0.04283973626877
C         0.67479542035275    0.24138751834120    0.22338947204585
C        -0.76663038357677   -0.01559810089792    0.25727833099936
N        -0.30191936107306    1.07729099779334   -0.33257804711089
H        -1.37425607701894   -0.85873920258834   -0.10525001966555
5
 energy: -9.508905820288 gnorm: 0.014035268392 xtb: 6.2.2 (9d81278992624c895f80dd42a50cac0aa55982e2)
C         1.80285791471592   -0.40574369636417   -0.01672425050358
C         0.67668884013786    0.21357562160863    0.18508284772236
C        -0.74994476381996   -0.05651023114825    0.22628560915129
N        -0.29514312724578    1.07297701347720   -0.31880103450160
H        -1.43445786378804   -0.82429970757342   -0.07584317186847
5
 energy: -9.509547454330 gnorm: 0.027332100889 xtb: 6.2.2 (9d81278992624c895f80dd42a50cac0aa55982e2)
C         1.88206193088862   -0.35347938668301    0.00334430450198
C         0.68001286079688    0.17483945114252    0.15711656985162
C        -0.73744980742088   -0.08357941644623    0.20224008116374
N        -0.28969405260747    1.05368496366138   -0.31184047331389
H        -1.53492993165715   -0.79146661167466   -0.05086048220346
5
 energy: -9.510213095860 gnorm: 0.011920880062 xtb: 6.2.2 (9d81278992624c895f80dd42a50cac0aa55982e2)
C         1.87637187706232   -0.35805215016161    0.00504504482687
C         0.67404233022949    0.16356627577163    0.15187875927512
C        -0.73999037415511   -0.08505392664749    0.18897955423859
N        -0.29603009925770    1.06136945122707   -0.30790501602128
H        -1.51439273387899   -0.78183065018960   -0.03799834231931
5
 energy: -9.510428389733 gnorm: 0.008441268609 xtb: 6.2.2 (9d81278992624c895f80dd42a50cac0aa55982e2)
C         1.87823850555095   -0.35046018900548    0.00792085526205
C         0.67539031301892    0.15599080126693    0.15173236921692
C        -0.73280101037897   -0.09112270490691    0.17491231050486
N        -0.29687066355750    1.06346886299699   -0.30652497376818
H        -1.52395614463340   -0.77787777035153   -0.02804056121565
5
 energy: -9.510670493204 gnorm: 0.008440941414 xtb: 6.2.2 (9d81278992624c895f80dd42a50cac0aa55982e2)
C         1.89001129194173   -0.33281262070562    0.00628332218817
C         0.67546056219729    0.13764502271650    0.15904414742753
C        -0.72739027623283   -0.09581468882906    0.15121322939693
N        -0.29596826520090    1.05864467427958   -0.30733931056960
H        -1.54211231270530   -0.76766338746141   -0.00920138844303
5
 energy: -9.510930456443 gnorm: 0.008789344565 xtb: 6.2.2 (9d81278992624c895f80dd42a50cac0aa55982e2)
C         1.88963491357896   -0.32235756633157   -0.00276822339453
C         0.67816515773538    0.12615490747284    0.18060921541565
C        -0.72392345922543   -0.09474585244807    0.12627790267542
N        -0.29614267189257    1.05640283052421   -0.31193868836423
H        -1.54773294019634   -0.76545531921740    0.00781979366770
5
 energy: -9.511102298531 gnorm: 0.007549550302 xtb: 6.2.2 (9d81278992624c895f80dd42a50cac0aa55982e2)
C         1.88490246208271   -0.31521593171744   -0.01710305313649
C         0.68475321853424    0.11612838343072    0.21675987602735
C        -0.71818709884717   -0.09232714988751    0.09267682352941
N        -0.30253476938781    1.05324283546372   -0.32012961396230
H        -1.54893281238198   -0.76182913728949    0.02779596754203
5
 energy: -9.511158962017 gnorm: 0.002957117197 xtb: 6.2.2 (9d81278992624c895f80dd42a50cac0aa55982e2)
C         1.88961335745530   -0.31993555338104   -0.01146183456302
C         0.68460063649208    0.11790608816431    0.20689295860706
C        -0.71776752132009   -0.09528476240251    0.09666782113649
N        -0.30663735050184    1.05725500069785   -0.31716444199785
H        -1.54980812212545   -0.75994177307862    0.02506549681732
5
 energy: -9.511171460767 gnorm: 0.002288265045 xtb: 6.2.2 (9d81278992624c895f80dd42a50cac0aa55982e2)
C         1.88789200333471   -0.32326221207324   -0.01100070608932
C         0.68578377156651    0.12087345737105    0.20819612789833
C        -0.71558470196920   -0.09621487897981    0.09671631845915
N        -0.31029633544242    1.05669641446070   -0.31721441850387
H        -1.54779373748960   -0.75809378077870    0.02330267823571
5
 energy: -9.511176427187 gnorm: 0.001331161314 xtb: 6.2.2 (9d81278992624c895f80dd42a50cac0aa55982e2)
C         1.88845435164932   -0.32360340283731   -0.01169076465680
C         0.68624456058559    0.12158593271276    0.21034591218231
C        -0.71449944262830   -0.09721828722259    0.09387937023127
N        -0.31102921762852    1.05698178503836   -0.31727427076550
H        -1.54916925197809   -0.75774702769122    0.02473975300872
5
 energy: -9.511181032402 gnorm: 0.000572297074 xtb: 6.2.2 (9d81278992624c895f80dd42a50cac0aa55982e2)
C         1.88658644434965   -0.32579501875152   -0.01243399939667
C         0.68568461522711    0.12555694289067    0.21055553293206
C        -0.71477738728472   -0.09730316742481    0.09601030786823
N        -0.30982633287831    1.05694383110176   -0.31689521678570
H        -1.54766633941372   -0.75940358781610    0.02276337538208
