 Entering Gaussian System
 *********************************************
 Gaussian 98:
 frequency output generated by the xtb code
 *********************************************
                         Standard orientation:
 --------------------------------------------------------------------
  Center     Atomic     Atomic              Coordinates (Angstroms)
  Number     Number      Type              X           Y           Z
 --------------------------------------------------------------------
    1          6             0        1.886585   -0.325805   -0.012440
    2          6             0        0.685686    0.125554    0.210553
    3          6             0       -0.714778   -0.097299    0.096013
    4          7             0       -0.309822    1.056945   -0.316896
    5          1             0       -1.547670   -0.759395    0.022770
 --------------------------------------------------------------------
     1 basis functions        1 primitive gaussians
     1 alpha electrons        1 beta electrons

 Harmonic frequencies (cm**-1), IR intensities (KM/Mole),
 Raman scattering activities (A**4/amu), Raman depolarization ratios,
 reduced masses (AMU), force constants (mDyne/A) and normal coordinates:
                      1                      2                      3
                        a                      a                      a 
 Frequencies --   280.2979               378.2433               416.3683
 Red. masses --     9.1823                11.7896                11.1443
 Frc consts  --     0.0000                 0.0000                 0.0000
 IR Inten    --     0.4682                 0.5321                 0.4294
 Raman Activ --     0.0000                 0.0000                 0.0000
 Depolar     --     0.0000                 0.0000                 0.0000
 Atom AN      X      Y      Z        X      Y      Z        X      Y      Z
   1   6     0.18   0.31  -0.06    -0.31   0.03  -0.41    -0.06  -0.39   0.10
   2   6    -0.01  -0.66   0.23     0.01   0.13   0.77     0.22   0.19   0.07
   3   6    -0.00   0.24  -0.20     0.12  -0.02  -0.13     0.40  -0.02  -0.31
   4   7    -0.11   0.05  -0.09     0.14  -0.10  -0.18    -0.55   0.22   0.03
   5   1    -0.16   0.22   0.43     0.10  -0.08  -0.12     0.11  -0.05   0.36
                      4                      5                      6
                        a                      a                      a 
 Frequencies --   712.2236               821.0526              1007.8985
 Red. masses --     7.1572                 5.1304                10.5068
 Frc consts  --     0.0000                 0.0000                 0.0000
 IR Inten    --     0.4306                 0.3467                 0.4631
 Raman Activ --     0.0000                 0.0000                 0.0000
 Depolar     --     0.0000                 0.0000                 0.0000
 Atom AN      X      Y      Z        X      Y      Z        X      Y      Z
   1   6     0.07  -0.03   0.02    -0.20   0.09   0.04    -0.42   0.16   0.08
   2   6    -0.04  -0.40   0.02    -0.32  -0.05  -0.14    -0.26  -0.15  -0.15
   3   6     0.15   0.25   0.29     0.01  -0.06  -0.10     0.62  -0.28   0.17
   4   7    -0.28   0.26  -0.19     0.37   0.15   0.05     0.09   0.16  -0.06
   5   1     0.40  -0.34  -0.45     0.38  -0.52   0.49    -0.14   0.34  -0.08
                      7                      8                      9
                        a                      a                      a 
 Frequencies --  1230.2102              1668.3350              3169.4930
 Red. masses --    12.0962                12.1689                 2.0094
 Frc consts  --     0.0000                 0.0000                 0.0000
 IR Inten    --     1.9126                 1.6634                 0.1794
 Raman Activ --     0.0000                 0.0000                 0.0000
 Depolar     --     0.0000                 0.0000                 0.0000
 Atom AN      X      Y      Z        X      Y      Z        X      Y      Z
   1   6     0.58  -0.21  -0.13    -0.16   0.06   0.03    -0.00   0.00   0.00
   2   6    -0.54   0.13   0.20     0.48  -0.12   0.05     0.03  -0.01   0.01
   3   6    -0.00  -0.30   0.07    -0.33  -0.48   0.12    -0.23  -0.19  -0.01
   4   7    -0.00   0.34  -0.15     0.05   0.53  -0.20    -0.01   0.02  -0.01
   5   1    -0.11   0.05   0.04    -0.17  -0.11   0.04     0.74   0.60   0.06
