5
 energy: -9.511181034787 gnorm: 0.000569488734 xtb: 6.2.2 (9d81278992624c895f80dd42a50cac0aa55982e2)
C         1.88658469505259   -0.32580491859128   -0.01244001620602
C         0.68568600760677    0.12555372013739    0.21055292030142
C        -0.71477756160809   -0.09729925728983    0.09601297273733
N        -0.30982190490954    1.05694490025185   -0.31689598000035
H        -1.54767023614696   -0.75939544451337    0.02277010316587
