3
 energy: -6.525376420094 gnorm: 0.000838491367 xtb: 6.2.2 (9d81278992624c895f80dd42a50cac0aa55982e2)
O        -0.12622032802370    0.35472272942429   -0.00000017850826
C         1.03946753100789   -0.10516474547147   -0.00000344489049
H        -0.91324720298419   -0.24955798395283    0.00000362339875
