[Molden Format]
[Title]
[Atoms] AU
O      1     8 -0.23852182919520E+00  0.67032874659863E+00 -0.33733168704668E-06
C      2     6  0.19643087667975E+01 -0.19873254846867E+00 -0.65098989541889E-05
H      3     1 -0.17257869376023E+01 -0.47159619812996E+00  0.68472306412340E-05
[GTO]
           1 0
 s           4   1.0000000000000000     
   69.137961906196551      -0.20478756370077797     
   11.906129132707308      -0.24997023136827334     
  0.95670827744340703       0.40025880240639616     
  0.36462520496073686       0.15952206667693555     
 p           4   1.0000000000000000     
   8.2124193257781641        1.1321556799186829     
   2.1293576997098116        1.0476840782254817     
  0.75066448202360914       0.54956508217158984     
  0.29885246543283073        8.2908486592766617E-002

           2 0
 s           4   1.0000000000000000     
   51.049363095579913      -0.16312063210127389     
   8.7911227406887544      -0.19911024581000730     
  0.70640422258929825       0.31882047753655751     
  0.26922813413411617       0.12706504184240380     
 p           4   1.0000000000000000     
   5.8263656140800002       0.73716451545209605     
   1.5106896018720002       0.68216371614850257     
  0.53256483288000001       0.35783053929253711     
  0.21202323690600003        5.3983030275847881E-002

           3 0
 s           3   1.0000000000000000     
   3.3702276975336001       0.27359110588908298     
  0.61389118221497996       0.26460540653860526     
  0.16614291148415999        8.2465947534082318E-002

[MO]
Sym=     1a
Ene=  -0.75473274516415800     
Spin= Alpha
Occup=     2.00000000
           1  0.74409623240917555     
           2  0.12201490549954494     
           3  -8.6480892328750725E-002
           4  -2.7947091411465770E-007
           5  0.26085208807892557     
           6 -0.15193604253236231     
           7   5.3508917914860801E-002
           8   4.3661462640797134E-007
           9  0.12107530677074131     
Sym=     2a
Ene=  -0.66873122382852257     
Spin= Alpha
Occup=     2.00000000
           1  0.20664624467211914     
           2 -0.62704034234982542     
           3  -8.4479575354250880E-002
           4   2.3317235623456853E-006
           5 -0.35913536751364727     
           6   6.3920849815819858E-002
           7  -9.8405839343254337E-002
           8  -5.2829439593428431E-008
           9  0.33920415513009095     
Sym=     3a
Ene=  -0.59192389103297516     
Spin= Alpha
Occup=     2.00000000
           1 -0.38133428290809057     
           2   4.2560610613154089E-002
           3 -0.77382343995533887     
           4   1.2077581241131192E-006
           5  0.26865157617227797     
           6  -6.6746312004505690E-002
           7 -0.23053098968072722     
           8   6.3599085699345456E-007
           9  0.17685957287800999     
Sym=     4a
Ene=  -0.56044984717231472     
Spin= Alpha
Occup=     2.00000000
           1  -5.2339986993246487E-009
           2  -3.0304516328988044E-006
           3  -1.5202950285891479E-006
           4 -0.86907686173872356     
           5   1.9542962461331414E-009
           6  -1.2256947802229284E-006
           7  -6.1634019753073745E-007
           8 -0.35133761151546361     
           9  -2.0563372224841330E-009
Sym=     5a
Ene=  -0.44549243558677182     
Spin= Alpha
Occup=     2.00000000
           1  -3.5412142186148361E-002
           2 -0.25021414456139995     
           3  0.25173709191860549     
           4   4.3443210260592979E-007
           5  0.72509324071743508     
           6  0.58481672675741192     
           7 -0.11940406337385903     
           8  -1.8327773897731368E-006
           9  0.12822569312814744     
Sym=     6a
Ene=  -0.29792982914034633     
Spin= Alpha
Occup=     0.99999944
           1  0.22096999934746295     
           2  -4.2195042859883021E-002
           3  0.29339018300196068     
           4  -3.4930430085079612E-007
           5   4.2175206965836258E-002
           6 -0.27420169740398720     
           7 -0.92188275853073287     
           8   2.5420176393763623E-006
           9 -0.31145734181703855     
Sym=     7a
Ene=  -0.27056722755380513     
Spin= Alpha
Occup=     0.00000056
           1   4.5750511047543308E-009
           2  -1.8675340832760552E-006
           3  -9.2678409803024763E-007
           4 -0.53456280161114011     
           5   1.3666865776515534E-009
           6   3.3367285826550723E-006
           7   1.6478719636743885E-006
           8  0.95792163730166258     
           9  -8.9717624468016983E-009
Sym=     8a
Ene=    4.8054475952125253E-002
Spin= Alpha
Occup=     0.00000000
           1 -0.74219134089110994     
           2  0.37803151022190318     
           3  0.61357930536721705     
           4  -2.3914082372788007E-006
           5  0.10218757506974428     
           6 -0.37673614596250748     
           7  -8.8673585420621037E-002
           8   1.4703130612073397E-006
           9   1.0497431423752552     
Sym=     9a
Ene=   0.43766573960342164     
Spin= Alpha
Occup=     0.00000000
           1 -0.48169957496907351     
           2 -0.96006937652732094     
           3  0.15381409744067320     
           4   3.0822729325662307E-006
           5  0.71036854209469524     
           6 -0.89538823088989328     
           7  0.39782574190780307     
           8   2.4305751995603131E-006
           9 -0.40507166710093256     
