3
 energy: -6.509269369094 gnorm: 0.129414514286 xtb: 6.2.2 (9d81278992624c895f80dd42a50cac0aa55982e2)
O        -0.19814600000000    0.45684900000000    0.00000000000000
C         1.04781300000000   -0.16796100000000    0.00000000000000
H        -0.84966700000000   -0.28888800000000    0.00000000000000
3
 energy: -6.520532659229 gnorm: 0.070328560898 xtb: 6.2.2 (9d81278992624c895f80dd42a50cac0aa55982e2)
O        -0.16749776313129    0.42280156070234    0.00000000000000
C         1.02013791031469   -0.14598897376202   -0.00000000000000
H        -0.85264014718340   -0.27681258694031    0.00000000000000
3
 energy: -6.524181931756 gnorm: 0.048165421277 xtb: 6.2.2 (9d81278992624c895f80dd42a50cac0aa55982e2)
O        -0.12185935247961    0.36645622818965    0.00000000000000
C         1.00837719840051   -0.10945513350099   -0.00000000000000
H        -0.88651784592091   -0.25700109468866    0.00000000000000
3
 energy: -6.525304085869 gnorm: 0.005218741501 xtb: 6.2.2 (9d81278992624c895f80dd42a50cac0aa55982e2)
O        -0.13045288566447    0.36626374484339    0.00000000000000
C         1.03210774173453   -0.11125406961662   -0.00000000000000
H        -0.90165485607006   -0.25500967522677    0.00000000000000
3
 energy: -6.525371503602 gnorm: 0.001933718322 xtb: 6.2.2 (9d81278992624c895f80dd42a50cac0aa55982e2)
O        -0.12725710760568    0.35867479115249    0.00000000000000
C         1.03736811448524   -0.10705708533457   -0.00000000000000
H        -0.91011100687956   -0.25161770581792    0.00000000000000
3
 energy: -6.525376419940 gnorm: 0.000838610150 xtb: 6.2.2 (9d81278992624c895f80dd42a50cac0aa55982e2)
O        -0.12622218534445    0.35472206853188    0.00000000000000
C         1.03946808164065   -0.10515930283092   -0.00000000000000
H        -0.91324589629620   -0.24956276570096    0.00000000000000
