$hessian                                                                        
        0.5479748364  -0.0548938971  -0.0000018170  -0.4383472548   0.1592855383
        0.0000012521  -0.1096275816  -0.1043916412   0.0000005649
       -0.0548938971   0.2785676335  -0.0000002946   0.1947945794  -0.1148577994
       -0.0000004795  -0.1399006823  -0.1637098341   0.0000007741
       -0.0000018170  -0.0000002946   0.0000000000   0.0000011901  -0.0000003556
       -0.0000000000   0.0000006268   0.0000006501  -0.0000000000
       -0.4383472548   0.1947945794   0.0000011901   0.5266602367  -0.1752161633
       -0.0000015326  -0.0883129819  -0.0195784161   0.0000003424
        0.1592855383  -0.1148577994  -0.0000003556  -0.1752161633   0.0826282107
        0.0000004674   0.0159306250   0.0322295887  -0.0000001119
        0.0000012521  -0.0000004795  -0.0000000000  -0.0000015326   0.0000004674
        0.0000000000   0.0000002805   0.0000000121  -0.0000000000
       -0.1096275816  -0.1399006823   0.0000006268  -0.0883129819   0.0159306250
        0.0000002805   0.1979405635   0.1239700573  -0.0000009073
       -0.1043916412  -0.1637098341   0.0000006501  -0.0195784161   0.0322295887
        0.0000000121   0.1239700573   0.1314802454  -0.0000006622
        0.0000005649   0.0000007741  -0.0000000000   0.0000003424  -0.0000001119
       -0.0000000000  -0.0000009073  -0.0000006622   0.0000000000
