[Molden Format]
[Title]
[Atoms] AU
C      1     6 -0.11677178855446E+01 -0.10278755966718E-03  0.36190807678718E+00
C      2     6  0.77930984494592E+00 -0.17327829050833E+01 -0.26959232881881E+00
C      3     6  0.27996296491852E+01  0.43646708467914E-02 -0.95126554036032E-01
C      4     6  0.77326472767609E+00  0.17323888586203E+01 -0.28842099264521E+00
H      5     1 -0.31844863362626E+01 -0.38678368240630E-02  0.29123179871288E+00
[GTO]
           1 0
 s           4   1.0000000000000000     
   51.049363095579913      -0.16312063210127389     
   8.7911227406887544      -0.19911024581000730     
  0.70640422258929825       0.31882047753655751     
  0.26922813413411617       0.12706504184240380     
 p           4   1.0000000000000000     
   5.8263656140800002       0.73716451545209605     
   1.5106896018720002       0.68216371614850257     
  0.53256483288000001       0.35783053929253711     
  0.21202323690600003        5.3983030275847881E-002

           2 0
 s           4   1.0000000000000000     
   51.049363095579913      -0.16312063210127389     
   8.7911227406887544      -0.19911024581000730     
  0.70640422258929825       0.31882047753655751     
  0.26922813413411617       0.12706504184240380     
 p           4   1.0000000000000000     
   5.8263656140800002       0.73716451545209605     
   1.5106896018720002       0.68216371614850257     
  0.53256483288000001       0.35783053929253711     
  0.21202323690600003        5.3983030275847881E-002

           3 0
 s           4   1.0000000000000000     
   51.049363095579913      -0.16312063210127389     
   8.7911227406887544      -0.19911024581000730     
  0.70640422258929825       0.31882047753655751     
  0.26922813413411617       0.12706504184240380     
 p           4   1.0000000000000000     
   5.8263656140800002       0.73716451545209605     
   1.5106896018720002       0.68216371614850257     
  0.53256483288000001       0.35783053929253711     
  0.21202323690600003        5.3983030275847881E-002

           4 0
 s           4   1.0000000000000000     
   51.049363095579913      -0.16312063210127389     
   8.7911227406887544      -0.19911024581000730     
  0.70640422258929825       0.31882047753655751     
  0.26922813413411617       0.12706504184240380     
 p           4   1.0000000000000000     
   5.8263656140800002       0.73716451545209605     
   1.5106896018720002       0.68216371614850257     
  0.53256483288000001       0.35783053929253711     
  0.21202323690600003        5.3983030275847881E-002

           5 0
 s           3   1.0000000000000000     
   3.3702276975336001       0.27359110588908298     
  0.61389118221497996       0.26460540653860526     
  0.16614291148415999        8.2465947534082318E-002

[MO]
Sym=     1a
Ene=  -0.70160440664519919     
Spin= Alpha
Occup=     2.00000000
           1 -0.30055795340982749     
           2 -0.15283739798098694     
           3  -3.1682935041873633E-005
           4   4.3570047305920741E-002
           5 -0.33012133115132575     
           6   1.7975265581943341E-003
           7 -0.14514992358607029     
           8  -1.8870926351895623E-002
           9 -0.29002742961865002     
          10  0.15556710792015221     
          11   3.0307368609981753E-004
          12   5.9612893808860612E-003
          13 -0.33012910211265656     
          14   1.2898232631046377E-003
          15  0.14494336584034553     
          16  -2.0447970089909256E-002
          17  -3.7520446314944000E-002
Sym=     2a
Ene=  -0.61487971208995074     
Spin= Alpha
Occup=     2.00000000
           1  0.48708811642050287     
           2 -0.10229340352863692     
           3  -3.0775480235926321E-004
           4  -2.5093454975958933E-002
           5  -2.9584719434076454E-002
           6 -0.26350753496858870     
           7  -1.1367110599116279E-002
           8   2.7509234344632129E-002
           9 -0.40453664849207677     
          10   2.9754744315066060E-002
          11   1.9118047766555817E-004
          12   2.6801050579368362E-002
          13  -2.9592259092182289E-002
          14 -0.26356218054515229     
          15   1.0745556136089096E-002
          16   2.7390141033514125E-002
          17  0.25058307379339390     
Sym=     3a
Ene=  -0.59071529283634472     
Spin= Alpha
Occup=     2.00000000
           1   9.2468248659286791E-007
           2   5.9884179926400656E-004
           3 -0.33611271928456210     
           4   1.8239583259372432E-003
           5  0.50670955700040310     
           6  -5.7322324410334930E-003
           7  -7.9581855678014762E-002
           8   3.4450100595244573E-002
           9  -9.3570736345070208E-006
          10   5.3375231205546401E-004
          11 -0.30536050452509989     
          12   1.6594043016431076E-003
          13 -0.50670010860057080     
          14   6.0010060159127951E-003
          15  -7.9942329808920534E-002
          16  -3.3583227984278471E-002
          17  -1.8569337545461225E-005
Sym=     4a
Ene=  -0.53496944037965788     
Spin= Alpha
Occup=     2.00000000
           1 -0.13954265052797374     
           2  0.44289439343278958     
           3   3.2042994136877119E-004
           4  -8.2324030477658031E-002
           5   9.2587380228956420E-002
           6 -0.20177278786537564     
           7   1.0614995725780516E-002
           8   1.1364086835877552E-002
           9 -0.43716170713665464     
          10 -0.12645288330848553     
          11  -5.6883397167372833E-005
          12   2.5900922412182004E-002
          13   9.2630449391456912E-002
          14 -0.20171971005561612     
          15  -1.1184834896689831E-002
          16   1.1482364077324178E-002
          17 -0.43997580307555373     
Sym=     5a
Ene=  -0.51433584738115667     
Spin= Alpha
Occup=     2.00000000
           1   9.0894331262511313E-002
           2  0.10655061312886009     
           3   2.4238256062352162E-003
           4  0.41403518237954101     
           5  -8.2965652316220384E-002
           6   3.0022624076712395E-002
           7  -8.8904131234634511E-003
           8  0.41306806691823533     
           9   6.4958149186344682E-002
          10   2.1646353632231618E-002
          11   2.1802313528132360E-003
          12  0.39204555049611589     
          13  -8.2965631491639574E-002
          14   3.0006703356935685E-002
          15   1.3483555823932247E-002
          16  0.41295768624776469     
          17  -4.1136391049270089E-002
Sym=     6a
Ene=  -0.50948529499027850     
Spin= Alpha
Occup=     2.00000000
           1   2.1453515286095056E-005
           2   7.2316130565765874E-004
           3 -0.42899161136959191     
           4   2.3224013115440323E-003
           5  -2.1295592266236972E-002
           6 -0.40177974557862184     
           7   5.7548617919775443E-003
           8   4.6486734719814259E-002
           9   6.2493554113961979E-006
          10  -7.4606801610050961E-004
          11  0.43073273935785594     
          12  -2.3532974835163089E-003
          13   2.1297943064107330E-002
          14  0.40175396995249069     
          15   6.6642680201731697E-003
          16  -4.6576602354452989E-002
          17   1.1328253538612426E-005
Sym=     7a
Ene=  -0.43822741556965639     
Spin= Alpha
Occup=     2.00000000
           1   8.6193418216114023E-002
           2   8.6166832809901242E-002
           3  -2.6105785185834637E-004
           4  -7.4773235224151691E-002
           5 -0.46806976627619612     
           6  -5.0918529427734061E-002
           7  0.50355611271781175     
           8  -2.8068182488132410E-002
           9  0.12356869873708894     
          10   6.7050590875029334E-002
          11  -4.2324572292531300E-005
          12  -2.9041196965721567E-002
          13 -0.46804861821510307     
          14  -4.9149205997256140E-002
          15 -0.50400204529137371     
          16  -2.2598279525159314E-002
          17  -6.9943992856185327E-002
Sym=     8a
Ene=  -0.40180958259412752     
Spin= Alpha
Occup=     1.00000000
           1  -9.6815567486071105E-002
           2 -0.14874643890905126     
           3   1.1982105552814958E-003
           4  0.26871052363342518     
           5  -3.9534651069420453E-002
           6  0.21817922812965793     
           7  0.11876494777221261     
           8  -1.4842938320639223E-003
           9 -0.47304289602654270     
          10 -0.71269877250908809     
          11  -2.0613201046352113E-003
          12 -0.15085436802350413     
          13  -3.9542625573367123E-002
          14  0.21860165173214197     
          15 -0.11802429875130091     
          16  -2.0338164894768753E-004
          17  0.14504872200210112     
Sym=     9a
Ene=  -0.36184109950366045     
Spin= Alpha
Occup=     1.00000000
           1  0.21169709084077820     
           2  0.16391663093868830     
           3   3.7849146424033249E-003
           4  0.65276035086569684     
           5   2.1114572470942910E-003
           6  -4.9296276951496215E-002
           7  -2.9821801712935546E-002
           8  -3.7771262685788620E-002
           9   6.2684085095307110E-002
          10  0.23712415290319444     
          11  -3.3852430021436342E-003
          12 -0.68942662215828510     
          13   2.2142193575106282E-003
          14  -4.9443966018271730E-002
          15   2.9366035640934110E-002
          16  -3.8395386958579948E-002
          17 -0.11973748364456523     
Sym=    10a
Ene=  -0.35481917105584870     
Spin= Alpha
Occup=     1.00000000
           1   4.8603380909620145E-005
           2  -3.2671461853791959E-004
           3  0.21479864922303332     
           4  -1.0057388291542667E-003
           5  0.20032421321248722     
           6  -7.4138466775560061E-002
           7 -0.27786654593232885     
           8 -0.60165132505674024     
           9   1.4754712025063119E-005
          10  -3.2041845477955711E-004
          11  0.21889790054253411     
          12  -1.3641120351377584E-003
          13 -0.20032896685287671     
          14   7.5066946761261910E-002
          15 -0.27104727081892060     
          16  0.60460032708043332     
          17  -2.8605810531013303E-005
Sym=    11a
Ene=  -0.29110039495942724     
Spin= Alpha
Occup=     0.00000000
           1  -1.0101165365562808E-005
           2  -5.3429577205127692E-004
           3  0.31350267161934392     
           4  -1.7144851954086020E-003
           5  0.12167496539883055     
           6   4.0537804569714918E-002
           7 -0.56762271955640964     
           8  0.39964881446667616     
           9   2.4763757724164661E-006
          10  -5.4307667691614312E-004
          11  0.31509185786848959     
          12  -1.7111941204263671E-003
          13 -0.12168126369552537     
          14  -3.8554535361598807E-002
          15 -0.57207529390783063     
          16 -0.39343829561063237     
          17   6.4417388917040134E-006
Sym=    12a
Ene=  -0.18934641861598178     
Spin= Alpha
Occup=     0.00000000
           1  -8.4602774060040409E-002
           2  -2.3603795668196568E-002
           3  -3.1264337328560381E-003
           4 -0.56768385781330444     
           5  -4.3953881299870448E-002
           6   5.3965749276549159E-002
           7  -4.0458380518329742E-002
           8  0.57844057418552708     
           9  -2.8809146027797394E-002
          10  -1.3449068810246443E-002
          11  -3.4849305658329879E-003
          12 -0.63651185164277990     
          13  -4.3959209163590092E-002
          14   5.3818238718782586E-002
          15   4.6945303211588199E-002
          16  0.57798457495429534     
          17   5.8992128961469499E-002
Sym=    13a
Ene=   0.12607942855200227     
Spin= Alpha
Occup=     0.00000000
           1   1.0729844795434420     
           2 -0.32991933407515051     
           3  -7.1426455107848202E-003
           4 -0.21706157324445879     
           5 -0.15931014768656745     
           6  0.35952081804368846     
           7 -0.16635488461412323     
           8  -4.4812645000050721E-002
           9  -8.1426937672435015E-002
          10  -6.6554518906229099E-002
          11  -3.3803658201648846E-003
          12   4.4328091979536050E-002
          13 -0.14979732296907680     
          14  0.35709998880202726     
          15  0.15921710572000997     
          16  -4.4330400454304003E-002
          17 -0.93032771787031965     
Sym=    14a
Ene=   0.12801465541335938     
Spin= Alpha
Occup=     0.00000000
           1   7.9082474778545860E-003
           2  -3.5852398916988450E-003
           3  0.71553449229933763     
           4  -5.4972611682180678E-003
           5  0.65002429146094054     
           6  -9.7264905539054411E-002
           7  0.53939888616111398     
           8  0.14782861086103544     
           9  -6.8392357297371407E-004
          10  -1.2963257373283569E-003
          11  0.50595716611556329     
          12  -2.4097772157540770E-003
          13 -0.65227696917491407     
          14  0.10080188691733154     
          15  0.54045729224304206     
          16 -0.15437175730827593     
          17  -6.7875217311973062E-003
Sym=    15a
Ene=   0.17818215665017476     
Spin= Alpha
Occup=     0.00000000
           1   2.8181015629850161E-004
           2  -1.2003143323576762E-003
           3  0.62420784088277403     
           4  -3.4423202603409970E-003
           5 -0.10085426125660991     
           6 -0.75045410110633859     
           7  -8.1384325801216670E-002
           8   6.5017416045298052E-002
           9   5.0951961280298113E-005
          10   1.3390980832782174E-003
          11 -0.81872113059737017     
          12   4.4532676099607428E-003
          13  0.10072036854547094     
          14  0.75081133260860555     
          15  -7.9314191059294201E-002
          16  -6.4168727911979653E-002
          17  -2.8131703027281957E-004
Sym=    16a
Ene=   0.26969926597646227     
Spin= Alpha
Occup=     0.00000000
           1  0.15032968638612951     
           2  0.65628105966643768     
           3   4.2656401089719931E-004
           4 -0.12298946643655013     
           5  0.12619804789320632     
           6  0.63131695922952991     
           7  0.12564554600350283     
           8  -5.7094453199899205E-002
           9 -0.74029801351381830     
          10  0.67105115172893981     
          11   1.5210978614385894E-003
          12   9.0497370611831510E-002
          13  0.12640207810816556     
          14  0.63188138717872300     
          15 -0.12420599848119078     
          16  -5.5708472795066077E-002
          17  0.49546666379856358     
Sym=    17a
Ene=   0.62700183731987347     
Spin= Alpha
Occup=     0.00000000
           1 -0.33359990308070803     
           2  -1.0073266227370608     
           3  -7.8802700461643935E-004
           4  0.17038532505961024     
           5  0.62429142253337011     
           6  -3.2826174170373451E-002
           7  0.54420289971878377     
           8  0.15439644664970131     
           9 -0.51947475216433614     
          10  0.58086508894140798     
          11   1.1299589972112581E-003
          12   2.5716445990713297E-002
          13  0.62430575316486170     
          14  -3.0870110531581573E-002
          15 -0.54261266114338980     
          16  0.16029615209700229     
          17 -0.54316804911913585     
