5
 energy: -8.583834523720 gnorm: 0.131944716099 xtb: 6.2.2 (9d81278992624c895f80dd42a50cac0aa55982e2)
C        -0.71424500000000    0.00173400000000    0.54976000000000
C         0.35587100000000   -0.75294900000000   -0.21497100000000
C         1.66338100000000    0.00246500000000   -0.07870400000000
C         0.35325200000000    0.75179900000000   -0.22313400000000
H        -1.65825900000000   -0.00304900000000   -0.03295100000000
5
 energy: -8.609790656467 gnorm: 0.101553463097 xtb: 6.2.2 (9d81278992624c895f80dd42a50cac0aa55982e2)
C        -0.68014591473987    0.00129422668715    0.45694780687824
C         0.37849233875660   -0.77553977367635   -0.20893458173632
C         1.61478028546787    0.00250465649932   -0.05537334627354
C         0.37579895453220    0.77453567691627   -0.21734243189772
H        -1.68892566401681   -0.00279478642639    0.02470255302933
5
 energy: -8.640497310037 gnorm: 0.111871326348 xtb: 6.2.2 (9d81278992624c895f80dd42a50cac0aa55982e2)
C        -0.60811483651016    0.00038873830026    0.26637181427252
C         0.41431458545173   -0.86233032970162   -0.12786501752762
C         1.47251942339881    0.00207783028154   -0.08829073460261
C         0.41131929799285    0.86232514216746   -0.13721962395974
H        -1.69003847033323   -0.00246138104764    0.08700356181745
5
 energy: -8.645903350159 gnorm: 0.040893680574 xtb: 6.2.2 (9d81278992624c895f80dd42a50cac0aa55982e2)
C        -0.62451378089507    0.00023781950173    0.24354851829611
C         0.41773987808109   -0.88799543932631   -0.12128176857880
C         1.49013706507619    0.00208140834158   -0.09311249532152
C         0.41465746660426    0.88807361789648   -0.13091495792988
H        -1.69802062886647   -0.00239740641348    0.10176070353409
5
 energy: -8.647351014296 gnorm: 0.021153919736 xtb: 6.2.2 (9d81278992624c895f80dd42a50cac0aa55982e2)
C        -0.60323535769961    0.00009537675471    0.21093538162013
C         0.40815787346324   -0.92241232142311   -0.16116411765826
C         1.47117505131702    0.00239601383815   -0.03020860678581
C         0.40495304842745    0.92201175656371   -0.17116932732755
H        -1.68105061550810   -0.00209082573346    0.15160667015148
5
 energy: -8.647886465441 gnorm: 0.008458383505 xtb: 6.2.2 (9d81278992624c895f80dd42a50cac0aa55982e2)
C        -0.61654267223412    0.00007426223264    0.21088048941339
C         0.41008419116618   -0.92168561099630   -0.13423853653882
C         1.47502094166372    0.00220873543865   -0.06543346453014
C         0.40688394724914    0.92158862260008   -0.14423615980832
H        -1.67544640784492   -0.00218600927507    0.13302767146388
5
 energy: -8.647964366000 gnorm: 0.004714776466 xtb: 6.2.2 (9d81278992624c895f80dd42a50cac0aa55982e2)
C        -0.61580155851614    0.00006365268267    0.20842818146152
C         0.41287689152156   -0.91827331826339   -0.13924028061757
C         1.48013528168178    0.00224975775635   -0.05895131817336
C         0.40969020169997    0.91813686310742   -0.14920076168042
H        -1.68690081638718   -0.00217695528305    0.13896417900983
5
 energy: -8.647985353195 gnorm: 0.002840580627 xtb: 6.2.2 (9d81278992624c895f80dd42a50cac0aa55982e2)
C        -0.61552130759448    0.00006260307975    0.20814705827874
C         0.41131560443195   -0.91796633564935   -0.14133724982907
C         1.47958769966258    0.00226046670287   -0.05609967078406
C         0.40813108097392    0.91780842731060   -0.15129576919861
H        -1.68351307747397   -0.00216516144387    0.14058563153300
5
 energy: -8.648001107102 gnorm: 0.002095188558 xtb: 6.2.2 (9d81278992624c895f80dd42a50cac0aa55982e2)
C        -0.61587733704670    0.00003033931728    0.20407458953879
C         0.41115343897063   -0.91824624985386   -0.14166062205240
C         1.47947671525386    0.00228359069612   -0.05458928031563
C         0.40795590180968    0.91805922924011   -0.15162425019948
H        -1.68270871898747   -0.00212690939965    0.14379956302872
5
 energy: -8.648020496595 gnorm: 0.000884746190 xtb: 6.2.2 (9d81278992624c895f80dd42a50cac0aa55982e2)
C        -0.61723217308398    0.00000412225861    0.19493183552717
C         0.41164553092798   -0.91748804758835   -0.14252725868080
C         1.48075216876239    0.00227738308928   -0.05126420386290
C         0.40847848261721    0.91733552092583   -0.15247191674510
H        -1.68364400922360   -0.00212897868538    0.15133154376163
5
 energy: -8.648022019572 gnorm: 0.000243507270 xtb: 6.2.2 (9d81278992624c895f80dd42a50cac0aa55982e2)
C        -0.61793041933674   -0.00005796256219    0.19151136736233
C         0.41239834755148   -0.91694690159804   -0.14266229071490
C         1.48150051036336    0.00231752952592   -0.05033363376121
C         0.40918984255928    0.91674319836042   -0.15262280225491
H        -1.68515828113738   -0.00205586372611    0.15410735936868
