$hessian                                                                        
        0.7751865351   0.0005795635  -0.0925681261  -0.1604549806   0.1470885899
        0.0426568804  -0.1258000646   0.0001563555   0.0214661478  -0.1594897930
       -0.1472434465   0.0442110453  -0.3294416968  -0.0005810623  -0.0157659474
        0.0005795635   0.2298077235  -0.0009169713   0.1061190362  -0.0865863282
       -0.0355608235  -0.0002432429  -0.0242962209   0.0002667717  -0.1059433947
       -0.0864841041   0.0361922690  -0.0005119621  -0.0324410703   0.0000187541
       -0.0925681261  -0.0009169713   0.0782624332   0.0345234308  -0.0543070676
       -0.0435202515   0.0277371893   0.0004039173   0.0222988875   0.0355398407
        0.0547261322  -0.0444677120  -0.0052323347   0.0000939895  -0.0125733571
       -0.1604549806   0.1061190362   0.0345234308   0.3259760902   0.0172939124
       -0.0257267655  -0.1684957938  -0.1383866632  -0.0198762111   0.0118610044
        0.0001445986   0.0038810721  -0.0088863201   0.0148291159   0.0071984737
        0.1470885899  -0.0865863282  -0.0543070676   0.0172939124   0.3458953333
        0.0584109645  -0.1623348578  -0.0950179490  -0.0229065440   0.0004657317
       -0.1661825847   0.0197630761  -0.0025133763   0.0018915287  -0.0009604289
        0.0426568804  -0.0355608235  -0.0435202515  -0.0257267655   0.0584109645
        0.0490514452  -0.0188609173  -0.0065062385  -0.0379606752   0.0039367767
       -0.0175749167   0.0361188841  -0.0020059743   0.0012310142  -0.0036894026
       -0.1258000646  -0.0002432429   0.0277371893  -0.1684957938  -0.1623348578
       -0.0188609173   0.4708663186   0.0001914966   0.0172242921  -0.1697189910
        0.1624278171  -0.0207669555  -0.0068514692  -0.0000412129  -0.0053336086
        0.0001563555  -0.0242962209   0.0004039173  -0.1383866632  -0.0950179490
       -0.0065062385   0.0001914966   0.2131083166  -0.0009184630   0.1380138883
       -0.0936756134   0.0070793975   0.0000249228  -0.0001185333  -0.0000586133
        0.0214661478   0.0002667717   0.0222988875  -0.0198762111  -0.0229065440
       -0.0379606752   0.0172242921  -0.0009184630   0.0460460568  -0.0214829712
        0.0235088036  -0.0383010791   0.0026687424   0.0000494317   0.0079168100
       -0.1594897930  -0.1059433947   0.0355398407   0.0118610044   0.0004657317
        0.0039367767  -0.1697189910   0.1380138883  -0.0214829712   0.3261876062
       -0.0177456434  -0.0253050043  -0.0088398266  -0.0147905820   0.0073113581
       -0.1472434465  -0.0864841041   0.0547261322   0.0001445986  -0.1661825847
       -0.0175749167   0.1624278171  -0.0936756134   0.0235088036  -0.0177456434
        0.3444935874  -0.0617377643   0.0024166742   0.0018487149   0.0010777451
        0.0442110453   0.0361922690  -0.0444677120   0.0038810721   0.0197630761
        0.0361188841  -0.0207669555   0.0070793975  -0.0383010791  -0.0253050043
       -0.0617377643   0.0503697571  -0.0020201576  -0.0012969784  -0.0037198501
       -0.3294416968  -0.0005119621  -0.0052323347  -0.0088863201  -0.0025133763
       -0.0020059743  -0.0068514692   0.0000249228   0.0026687424  -0.0088398266
        0.0024166742  -0.0020201576   0.3540193127   0.0005837413   0.0065897242
       -0.0005810623  -0.0324410703   0.0000939895   0.0148291159   0.0018915287
        0.0012310142  -0.0000412129  -0.0001185333   0.0000494317  -0.0147905820
        0.0018487149  -0.0012969784   0.0005837413   0.0288193599  -0.0000774570
       -0.0157659474   0.0000187541  -0.0125733571   0.0071984737  -0.0009604289
       -0.0036894026  -0.0053336086  -0.0000586133   0.0079168100   0.0073113581
        0.0010777451  -0.0037198501   0.0065897242  -0.0000774570   0.0120657998
