5
 energy: -8.648022022098 gnorm: 0.000241381213 xtb: 6.2.2 (9d81278992624c895f80dd42a50cac0aa55982e2)
C        -0.61792975112546   -0.00005439283919    0.19151352444611
C         0.41239304843950   -0.91694930988683   -0.14266212988136
C         1.48150034677058    0.00230968455951   -0.05033880921803
C         0.40919410984628    0.91674078945920   -0.15262583061447
H        -1.68515775393091   -0.00204677129268    0.15411324526775
