 Entering Gaussian System
 *********************************************
 Gaussian 98:
 frequency output generated by the xtb code
 *********************************************
                         Standard orientation:
 --------------------------------------------------------------------
  Center     Atomic     Atomic              Coordinates (Angstroms)
  Number     Number      Type              X           Y           Z
 --------------------------------------------------------------------
    1          6             0       -0.617930   -0.000054    0.191514
    2          6             0        0.412393   -0.916949   -0.142662
    3          6             0        1.481500    0.002310   -0.050339
    4          6             0        0.409194    0.916741   -0.152626
    5          1             0       -1.685158   -0.002047    0.154113
 --------------------------------------------------------------------
     1 basis functions        1 primitive gaussians
     1 alpha electrons        1 beta electrons

 Harmonic frequencies (cm**-1), IR intensities (KM/Mole),
 Raman scattering activities (A**4/amu), Raman depolarization ratios,
 reduced masses (AMU), force constants (mDyne/A) and normal coordinates:
                      1                      2                      3
                        a                      a                      a 
 Frequencies --   537.7065               600.7258               742.0691
 Red. masses --    12.0024                 2.8048                11.8347
 Frc consts  --     0.0000                 0.0000                 0.0000
 IR Inten    --     0.1440                 0.2599                 0.0875
 Raman Activ --     0.0000                 0.0000                 0.0000
 Depolar     --     0.0000                 0.0000                 0.0000
 Atom AN      X      Y      Z        X      Y      Z        X      Y      Z
   1   6     0.02   0.00   0.47    -0.02  -0.00  -0.35     0.45  -0.00   0.05
   2   6    -0.04   0.21  -0.48    -0.01   0.01  -0.05     0.00  -0.49  -0.12
   3   6     0.06   0.00   0.48     0.06   0.00   0.18    -0.49  -0.00   0.18
   4   6    -0.04  -0.22  -0.48    -0.01  -0.01  -0.05     0.00   0.49  -0.12
   5   1     0.01   0.00   0.03    -0.03   0.01   0.91     0.12  -0.00   0.03
                      4                      5                      6
                        a                      a                      a 
 Frequencies --   830.0087               990.7229              1083.7828
 Red. masses --     7.3218                 6.9338                11.9261
 Frc consts  --     0.0000                 0.0000                 0.0000
 IR Inten    --     1.3000                 1.0050                 0.4396
 Raman Activ --     0.0000                 0.0000                 0.0000
 Depolar     --     0.0000                 0.0000                 0.0000
 Atom AN      X      Y      Z        X      Y      Z        X      Y      Z
   1   6     0.00   0.23   0.00     0.00  -0.58   0.00     0.00  -0.35   0.00
   2   6     0.12  -0.41  -0.09     0.01   0.28   0.08    -0.53  -0.08   0.04
   3   6    -0.00   0.39  -0.00     0.00  -0.18   0.00    -0.00   0.53  -0.00
   4   6    -0.12  -0.40   0.10    -0.01   0.28  -0.09     0.53  -0.08  -0.04
   5   1    -0.00   0.65  -0.01    -0.00   0.68  -0.00     0.00  -0.09  -0.00
                      7                      8                      9
                        a                      a                      a 
 Frequencies --  1220.6160              1392.2995              3168.7075
 Red. masses --    11.6615                11.7715                 1.9324
 Frc consts  --     0.0000                 0.0000                 0.0000
 IR Inten    --     0.4345                 0.2422                 0.0540
 Raman Activ --     0.0000                 0.0000                 0.0000
 Depolar     --     0.0000                 0.0000                 0.0000
 Atom AN      X      Y      Z        X      Y      Z        X      Y      Z
   1   6     0.51   0.00  -0.12     0.44   0.00  -0.14    -0.29  -0.00   0.00
   2   6    -0.50   0.02   0.05     0.04   0.46   0.09     0.00  -0.01  -0.00
   3   6     0.44   0.00   0.05    -0.56  -0.00  -0.04     0.00   0.00   0.00
   4   6    -0.50  -0.02   0.05     0.04  -0.46   0.09     0.00   0.01  -0.00
   5   1     0.16  -0.00  -0.08     0.15   0.00  -0.00     0.96   0.00   0.02
