      -----------------------------------------------------------      
     |                   =====================                   |     
     |                           x T B                           |     
     |                   =====================                   |     
     |                         S. Grimme                         |     
     |          Mulliken Center for Theoretical Chemistry        |     
     |                    University of Bonn                     |     
      -----------------------------------------------------------      

   * xtb version 6.2.2 (9d81278992624c895f80dd42a50cac0aa55982e2) compiled by '@Darwin' on 04/03/2020

   xtb is free software: you can redistribute it and/or modify it under
   the terms of the GNU Lesser General Public License as published by
   the Free Software Foundation, either version 3 of the License, or
   (at your option) any later version.
   
   xtb is distributed in the hope that it will be useful,
   but WITHOUT ANY WARRANTY; without even the implied warranty of
   MERCHANTABILITY or FITNESS FOR A PARTICULAR PURPOSE.  See the
   GNU Lesser General Public License for more details.
   
   Cite this work as:
   * S. Grimme, C. Bannwarth, P. Shushkov, J. Chem. Theory Comput., 2017,
     13, 1989-2009. DOI: 10.1021/acs.jctc.7b00118
   * C. Bannwarth, S. Ehlert and S. Grimme., J. Chem. Theory Comput., 2019,
     15, 1652-1671. DOI: 10.1021/acs.jctc.8b01176
   * P. Pracht, E. Caldeweyher, S. Ehlert, S. Grimme, ChemRxiv, 2019, preprint.
     DOI: 10.26434/chemrxiv.8326202.v1
   
   for DFT-D4:
   * E. Caldeweyher, C. Bannwarth and S. Grimme, J. Chem. Phys., 2017,
     147, 034112. DOI: 10.1063/1.4993215
   * E. Caldeweyher, S. Ehlert, A. Hansen, H. Neugebauer, S. Spicher,
     C. Bannwarth and S. Grimme, J. Chem. Phys., 2019, 150, 154122.
     DOI: 10.1063/1.5090222
   
   for sTDA-xTB:
   * S. Grimme and C. Bannwarth, J. Chem. Phys., 2016, 145, 054103.
     DOI: 10.1063/1.4959605
   
   in the mass-spec context:
   * V. Asgeirsson, C. Bauer and S. Grimme, Chem. Sci., 2017, 8, 4879.
     DOI: 10.1039/c7sc00601b
   
   for metadynamics refer to:
   * S. Grimme, J. Chem. Theory Comput., 2019, 155, 2847-2862
     DOI: 10.1021/acs.jctc.9b00143
   
   with help from (in alphabetical order)
   C. Bannwarth, F. Bohle, G. Brandenburg, E. Caldeweyher, M. Checinski,
   S. Dohm, S. Ehlert, S. Ehrlich, F. März, H. Neugebauer, J. Pisarek,
   P. Pracht, P. Shushkov, and S. Spicher.
   
 * started run on 2020/05/12 at 11:45:11.356     

           -------------------------------------------------
          |                Calculation Setup                |
           -------------------------------------------------

          program call               : xtb --input H1C4_8_S_3.input H1C4_8_S_3.xyz --ohess --molden --namespace H1C4_8_S_3 output.out
          calculation namespace      : H1C4_8_S_3
          coordinate file            : H1C4_8_S_3.xyz
          number of atoms            :                     5
          number of electrons        :                    17
          charge                     :                     0
          spin                       :                   1.5
          first test random number   :      0.56421354674109

   ID    Z sym.   atoms
    1    6 C      1-4
    2    1 H      5

           -------------------------------------------------
          |                 G F N 2 - x T B                 |
           -------------------------------------------------

        Reference                      10.1021/acs.jctc.8b01176
      * Hamiltonian:
        H0-scaling (s, p, d)           1.850000    2.230000    2.230000
        zeta-weighting                 0.500000
      * Dispersion:
        s8                             2.700000
        a1                             0.520000
        a2                             5.000000
        s9                             5.000000
      * Repulsion:
        kExp                           1.500000    1.000000
        rExp                           1.000000
      * Coulomb:
        alpha                          2.000000
        third order                    shell-resolved
        anisotropic                    true
        a3                             3.000000
        a5                             4.000000
        cn-shift                       1.200000
        cn-exp                         4.000000
        max-rad                        5.000000


          ...................................................
          :                      SETUP                      :
          :.................................................:
          :  # basis functions                  17          :
          :  # atomic orbitals                  17          :
          :  # shells                            9          :
          :  # electrons                        17          :
          :  max. iterations                   250          :
          :  Hamiltonian                  GFN2-xTB          :
          :  restarted?                      false          :
          :  GBSA solvation                  false          :
          :  PC potential                    false          :
          :  electronic temp.          300.0000000     K    :
          :  accuracy                    1.0000000          :
          :  -> integral cutoff          0.2500000E+02      :
          :  -> integral neglect         0.1000000E-07      :
          :  -> SCF convergence          0.1000000E-05 Eh   :
          :  -> wf. convergence          0.1000000E-03 e    :
          :  Broyden damping             0.4000000          :
          ...................................................

 iter      E             dE          RMSdq      gap      omega  full diag
   1     -8.6646056 -0.866461E+01  0.790E+00    1.75       0.0  T
   2     -8.4823596  0.182246E+00  0.643E+00    2.14       1.0  T
   3     -8.2811751  0.201185E+00  0.723E+00    1.08       1.0  T
   4     -8.6166351 -0.335460E+00  0.387E+00    1.55       1.0  T
   5     -8.6141627  0.247232E-02  0.284E+00    1.59       1.0  T
   6     -8.6567392 -0.425765E-01  0.197E+00    1.63       1.0  T
   7     -8.6602948 -0.355557E-02  0.172E+00    1.65       1.0  T
   8     -8.6727440 -0.124492E-01  0.349E-01    1.77       1.0  T
   9     -8.6729219 -0.177940E-03  0.344E-01    1.78       1.0  T
  10     -8.6728732  0.487300E-04  0.139E-01    1.80       1.0  T
  11     -8.6728620  0.111874E-04  0.135E-01    1.80       1.0  T
  12     -8.6729330 -0.710333E-04  0.378E-02    1.79       1.2  T
  13     -8.6729268  0.625147E-05  0.463E-02    1.79       1.0  T
  14     -8.6729332 -0.646562E-05  0.238E-02    1.79       1.9  T
  15     -8.6729354 -0.222180E-05  0.512E-03    1.79       8.7  T
  16     -8.6729355 -0.688175E-07  0.204E-03    1.79      21.9  T
  17     -8.6729355 -0.149219E-07  0.286E-04    1.79     156.1  T
  18     -8.6729355 -0.281743E-09  0.618E-05    1.79     723.6  T

   *** convergence criteria satisfied after 18 iterations ***

         #    Occupation            Energy/Eh            Energy/eV
      -------------------------------------------------------------
         1        2.0000           -0.7068026             -19.2331
       ...           ...                  ...                  ...
         4        2.0000           -0.5381902             -14.6449
         5        2.0000           -0.5294682             -14.4076
         6        2.0000           -0.4812535             -13.0956
         7        1.9743           -0.4347921             -11.8313
         8        1.0257           -0.4278834             -11.6433
         9        1.0000           -0.3942351             -10.7277
        10        1.0000           -0.3604951              -9.8096 (HOMO)
        11                         -0.2945968              -8.0164 (LUMO)
        12                         -0.2093602              -5.6970
        13                          0.0029957               0.0815
        14                          0.0875117               2.3813
        15                          0.1545668               4.2060
       ...                                ...                  ...
        17                          0.2007040               5.4614
      -------------------------------------------------------------
                  HL-Gap            0.0658983 Eh            1.7932 eV
             Fermi-level           -0.3794419 Eh          -10.3251 eV

 SCC (total)                   0 d,  0 h,  0 min,  0.005 sec
 SCC setup                      ...        0 min,  0.000 sec (  1.782%)
 Dispersion                     ...        0 min,  0.000 sec (  0.414%)
 integral evaluation            ...        0 min,  0.001 sec ( 23.899%)
 zeroth order Hamiltonian       ...        0 min,  0.000 sec (  0.373%)
 iterations                     ...        0 min,  0.002 sec ( 41.415%)
 molecular gradient             ...        0 min,  0.001 sec ( 29.686%)
 printout                       ...        0 min,  0.000 sec (  2.197%)

         :::::::::::::::::::::::::::::::::::::::::::::::::::::
         ::                     SUMMARY                     ::
         :::::::::::::::::::::::::::::::::::::::::::::::::::::
         :: total energy              -8.583834523828 Eh    ::
         :: gradient norm              0.131944758104 Eh/a0 ::
         :: HOMO-LUMO gap              1.793183673499 eV    ::
         ::.................................................::
         :: SCC energy                -8.672935528602 Eh    ::
         :: -> isotropic ES           -0.008704217839 Eh    ::
         :: -> anisotropic ES          0.000020957793 Eh    ::
         :: -> anisotropic XC          0.005739601339 Eh    ::
         :: -> dispersion             -0.002144285618 Eh    ::
         :: repulsion energy           0.089101010532 Eh    ::
         :: add. restraining           0.000000000000 Eh    ::
         :::::::::::::::::::::::::::::::::::::::::::::::::::::

      ----------------------------------------------------------- 
     |                   =====================                   |
     |                        A N C O P T                        |
     |                   =====================                   |
     |               Approximate Normal Coordinate               |
     |                Rational Function Optimizer                |
      ----------------------------------------------------------- 

          ...................................................
          :                      SETUP                      :
          :.................................................:
          :   optimization level            normal          :
          :   max. optcycles                   200          :
          :   ANC micro-cycles                  20          :
          :   degrees of freedom                 9          :
          :.................................................:
          :   RF solver                   davidson          :
          :   write xtbopt.log                true          :
          :   linear?                        false          :
          :   energy convergence         0.5000000E-05 Eh   :
          :   grad. convergence          0.1000000E-02 Eh/α :
          :   maximium RF displ.         1.0000000          :
          :   Hlow (freq-cutoff)         0.1000000E-01      :
          :   Hmax (freq-cutoff)         5.0000000          :
          :   S6 in model hess.         20.0000000          :
          ...................................................

generating ANC from model Hessian ...
Using Lindh-Hessian (1995)
 Shifting diagonal of input Hessian by    0.0000000000000000     
 Lowest  eigenvalues of input Hessian
   -0.000000   -0.000000    0.000000    0.000000    0.000000    0.000000
    0.045702    0.055591    0.112876    0.555428    0.634071    0.824670
    0.827203    1.224990    1.336263
 Highest eigenvalues
    0.555428    0.634071    0.824670    0.827203    1.224990    1.336263


........................................................................
.............................. CYCLE    1 ..............................
........................................................................
   1     -8.6729355 -0.867294E+01  0.621E-06    1.79       0.0  T
   2     -8.6729355  0.324718E-11  0.216E-05    1.79    2073.0  T
   3     -8.6729355 -0.297007E-11  0.846E-06    1.79    5285.4  T
     SCC iter.                  ...        0 min,  0.000 sec
     gradient                   ...        0 min,  0.001 sec
 * total energy  :    -8.5838345 Eh     change        0.1077822E-09 Eh
   gradient norm :     0.1319447 Eh/α   predicted     0.0000000E+00 (-100.00%)
   displ. norm   :     0.2609273 α      lambda       -0.2960949E-01
   maximum displ.:     0.2086768 α      in ANC's #4, #1, #3, ...

........................................................................
.............................. CYCLE    2 ..............................
........................................................................
   1     -8.7081983 -0.870820E+01  0.211E+00    2.47       0.0  T
   2     -8.6252792  0.829191E-01  0.369E+00    2.11       1.0  T
   3     -8.6910184 -0.657393E-01  0.219E+00    2.49       1.0  T
   4     -8.6986284 -0.760998E-02  0.161E+00    2.35       1.0  T
   5     -8.7152832 -0.166548E-01  0.596E-01    2.37       1.0  T
   6     -8.7154679 -0.184728E-03  0.557E-01    2.37       1.0  T
   7     -8.7165348 -0.106685E-02  0.317E-01    2.38       1.0  T
   8     -8.7169269 -0.392097E-03  0.588E-02    2.39       1.0  T
   9     -8.7169406 -0.136991E-04  0.180E-02    2.39       2.5  T
  10     -8.7169360  0.459921E-05  0.367E-02    2.39       1.2  T
  11     -8.7169414 -0.540866E-05  0.919E-03    2.39       4.9  T
  12     -8.7169417 -0.342276E-06  0.211E-03    2.39      21.2  T
  13     -8.7169417 -0.130212E-07  0.121E-03    2.39      37.1  T
  14     -8.7169417 -0.560465E-08  0.219E-04    2.39     204.4  T
  15     -8.7169417 -0.199412E-09  0.391E-06    2.39   11429.8  T
     SCC iter.                  ...        0 min,  0.001 sec
     gradient                   ...        0 min,  0.001 sec
 * total energy  :    -8.6097907 Eh     change       -0.2595613E-01 Eh
   gradient norm :     0.1015496 Eh/α   predicted    -0.1581270E-01 ( -39.08%)
   displ. norm   :     0.5900353 α      lambda       -0.5914852E-01
   maximum displ.:     0.5735179 α      in ANC's #4, #3, #7, ...

........................................................................
.............................. CYCLE    3 ..............................
........................................................................
   1     -8.7989492 -0.879895E+01  0.354E+00    2.29       0.0  T
   2     -8.7979149  0.103426E-02  0.227E+00    2.21       1.0  T
   3     -8.7814109  0.165041E-01  0.181E+00    2.25       1.0  T
   4     -8.8023327 -0.209218E-01  0.480E-01    2.21       1.0  T
   5     -8.8034046 -0.107191E-02  0.158E-01    2.20       1.0  T
   6     -8.8033932  0.114287E-04  0.787E-02    2.20       1.0  T
   7     -8.8034125 -0.193886E-04  0.373E-03    2.20      12.0  T
   8     -8.8034125 -0.679222E-09  0.200E-03    2.20      22.4  T
   9     -8.8034125  0.749986E-08  0.120E-03    2.20      37.3  T
  10     -8.8034125 -0.107996E-07  0.177E-04    2.20     252.1  T
  11     -8.8034125 -0.558416E-10  0.352E-05    2.20    1270.9  T
     SCC iter.                  ...        0 min,  0.001 sec
     gradient                   ...        0 min,  0.001 sec
 * total energy  :    -8.6404973 Eh     change       -0.3070665E-01 Eh
   gradient norm :     0.1117476 Eh/α   predicted    -0.3987028E-01 (  29.84%)
   displ. norm   :     0.1005757 α      lambda       -0.8261431E-02
   maximum displ.:     0.0636486 α      in ANC's #9, #3, #4, ...

........................................................................
.............................. CYCLE    4 ..............................
........................................................................
   1     -8.7880722 -0.878807E+01  0.524E-01    1.83       0.0  T
   2     -8.7881340 -0.618518E-04  0.309E-01    1.84       1.0  T
   3     -8.7880476  0.864411E-04  0.194E-01    1.82       1.0  T
   4     -8.7881494 -0.101811E-03  0.714E-02    1.83       1.0  T
   5     -8.7881863 -0.369440E-04  0.177E-02    1.83       2.5  T
   6     -8.7881864 -0.718439E-07  0.193E-03    1.83      23.2  T
   7     -8.7881864 -0.132200E-07  0.653E-04    1.83      68.5  T
   8     -8.7881864  0.760343E-09  0.345E-04    1.83     129.5  T
     SCC iter.                  ...        0 min,  0.001 sec
     gradient                   ...        0 min,  0.001 sec
 * total energy  :    -8.6459034 Eh     change       -0.5406040E-02 Eh
   gradient norm :     0.0408700 Eh/α   predicted    -0.4172501E-02 ( -22.82%)
   displ. norm   :     0.2262862 α      lambda       -0.5191351E-02
   maximum displ.:     0.1872555 α      in ANC's #1, #4, #9, ...

........................................................................
.............................. CYCLE    5 ..............................
........................................................................
   1     -8.7794985 -0.877950E+01  0.909E-01    1.93       0.0  T
   2     -8.7796558 -0.157312E-03  0.542E-01    1.81       1.0  T
   3     -8.7794042  0.251588E-03  0.449E-01    1.94       1.0  T
   4     -8.7801106 -0.706334E-03  0.195E-01    1.91       1.0  T
   5     -8.7803261 -0.215483E-03  0.197E-02    1.89       2.3  T
   6     -8.7803261 -0.684055E-07  0.529E-03    1.89       8.4  T
   7     -8.7803262 -0.256761E-07  0.139E-03    1.89      32.1  T
   8     -8.7803261  0.154517E-07  0.165E-03    1.89      27.1  T
   9     -8.7803262 -0.226333E-07  0.172E-04    1.89     260.4  T
  10     -8.7803262 -0.176001E-10  0.954E-06    1.89    4689.3  T
     SCC iter.                  ...        0 min,  0.001 sec
     gradient                   ...        0 min,  0.001 sec
 * total energy  :    -8.6473510 Eh     change       -0.1447664E-02 Eh
   gradient norm :     0.0210525 Eh/α   predicted    -0.2728589E-02 (  88.48%)
   displ. norm   :     0.1080260 α      lambda       -0.1472049E-02
   maximum displ.:     0.1058150 α      in ANC's #1, #3, #7, ...

........................................................................
.............................. CYCLE    6 ..............................
........................................................................
   1     -8.7834222 -0.878342E+01  0.429E-01    1.67       0.0  T
   2     -8.7834171  0.507127E-05  0.249E-01    1.66       1.0  T
   3     -8.7831479  0.269181E-03  0.228E-01    1.66       1.0  T
   4     -8.7834668 -0.318892E-03  0.437E-02    1.66       1.0  T
   5     -8.7834778 -0.109304E-04  0.688E-03    1.66       6.5  T
   6     -8.7834778 -0.308213E-07  0.161E-03    1.66      27.8  T
   7     -8.7834778  0.112780E-07  0.134E-03    1.66      33.5  T
   8     -8.7834778 -0.896565E-08  0.719E-04    1.66      62.2  T
   9     -8.7834778 -0.364039E-08  0.846E-05    1.66     528.5  T
     SCC iter.                  ...        0 min,  0.001 sec
     gradient                   ...        0 min,  0.001 sec
 * total energy  :    -8.6478865 Eh     change       -0.5354511E-03 Eh
   gradient norm :     0.0084147 Eh/α   predicted    -0.7446129E-03 (  39.06%)
   displ. norm   :     0.0343329 α      lambda       -0.1948012E-03
   maximum displ.:     0.0241311 α      in ANC's #1, #3, #4, ...

........................................................................
.............................. CYCLE    7 ..............................
........................................................................
   1     -8.7818528 -0.878185E+01  0.967E-02    1.73       0.0  T
   2     -8.7818535 -0.729182E-06  0.575E-02    1.73       1.0  T
   3     -8.7818513  0.222391E-05  0.223E-02    1.73       2.0  T
   4     -8.7818537 -0.243243E-05  0.646E-03    1.73       6.9  T
   5     -8.7818539 -0.244059E-06  0.219E-03    1.73      20.4  T
   6     -8.7818539 -0.362285E-08  0.767E-04    1.73      58.3  T
   7     -8.7818539 -0.913602E-09  0.609E-04    1.73      73.4  T
     SCC iter.                  ...        0 min,  0.001 sec
     gradient                   ...        0 min,  0.001 sec
 * total energy  :    -8.6479644 Eh     change       -0.7790056E-04 Eh
   gradient norm :     0.0046914 Eh/α   predicted    -0.9751403E-04 (  25.18%)
   displ. norm   :     0.0114250 α      lambda       -0.3399940E-04
   maximum displ.:     0.0073208 α      in ANC's #3, #1, #7, ...

........................................................................
.............................. CYCLE    8 ..............................
........................................................................
   1     -8.7824139 -0.878241E+01  0.382E-02    1.75       0.0  T
   2     -8.7824136  0.291746E-06  0.238E-02    1.75       1.9  T
   3     -8.7824109  0.265678E-05  0.225E-02    1.75       2.0  T
   4     -8.7824143 -0.343149E-05  0.283E-03    1.75      15.8  T
   5     -8.7824144 -0.319429E-07  0.778E-04    1.75      57.5  T
   6     -8.7824144  0.540372E-08  0.884E-04    1.75      50.6  T
     SCC iter.                  ...        0 min,  0.001 sec
     gradient                   ...        0 min,  0.001 sec
 * total energy  :    -8.6479854 Eh     change       -0.2098719E-04 Eh
   gradient norm :     0.0028320 Eh/α   predicted    -0.1700047E-04 ( -19.00%)
   displ. norm   :     0.0104185 α      lambda       -0.1957611E-04
   maximum displ.:     0.0062173 α      in ANC's #7, #4, #1, ...

........................................................................
.............................. CYCLE    9 ..............................
........................................................................
   1     -8.7827594 -0.878276E+01  0.317E-02    1.75       0.0  T
   2     -8.7827593  0.124200E-06  0.204E-02    1.75       2.2  T
   3     -8.7827573  0.201403E-05  0.184E-02    1.75       2.4  T
   4     -8.7827597 -0.240469E-05  0.247E-03    1.75      18.1  T
   5     -8.7827597 -0.270717E-07  0.771E-04    1.75      58.0  T
   6     -8.7827597  0.671717E-08  0.105E-03    1.75      42.6  T
   7     -8.7827597 -0.838386E-08  0.130E-04    1.75     343.5  T
     SCC iter.                  ...        0 min,  0.001 sec
     gradient                   ...        0 min,  0.001 sec
 * total energy  :    -8.6480011 Eh     change       -0.1575391E-04 Eh
   gradient norm :     0.0020936 Eh/α   predicted    -0.9787649E-05 ( -37.87%)
   displ. norm   :     0.0238134 α      lambda       -0.3272756E-04
   maximum displ.:     0.0134007 α      in ANC's #7, #1, #3, ...

........................................................................
.............................. CYCLE   10 ..............................
........................................................................
   1     -8.7832533 -0.878325E+01  0.682E-02    1.74       0.0  T
   2     -8.7832532  0.179399E-06  0.422E-02    1.74       1.1  T
   3     -8.7832450  0.812410E-05  0.331E-02    1.74       1.3  T
   4     -8.7832537 -0.871808E-05  0.220E-03    1.74      20.3  T
   5     -8.7832537  0.102439E-07  0.181E-03    1.74      24.7  T
   6     -8.7832537 -0.211561E-08  0.146E-03    1.74      30.6  T
   7     -8.7832538 -0.156534E-07  0.303E-04    1.74     147.8  T
   8     -8.7832538 -0.966605E-10  0.299E-05    1.74    1496.6  T
     SCC iter.                  ...        0 min,  0.001 sec
     gradient                   ...        0 min,  0.001 sec
 * total energy  :    -8.6480205 Eh     change       -0.1938949E-04 Eh
   gradient norm :     0.0008844 Eh/α   predicted    -0.1637369E-04 ( -15.55%)
   displ. norm   :     0.0095201 α      lambda       -0.2920750E-05
   maximum displ.:     0.0066331 α      in ANC's #3, #1, #7, ...

........................................................................
.............................. CYCLE   11 ..............................
........................................................................
   1     -8.7833276 -0.878333E+01  0.263E-02    1.73       0.0  T
   2     -8.7833276 -0.353051E-07  0.157E-02    1.73       2.8  T
   3     -8.7833273  0.279067E-06  0.705E-03    1.73       6.3  T
   4     -8.7833276 -0.276535E-06  0.241E-03    1.73      18.5  T
   5     -8.7833276 -0.380236E-07  0.651E-04    1.73      68.7  T
   6     -8.7833276  0.447119E-08  0.844E-04    1.73      53.0  T
     SCC iter.                  ...        0 min,  0.001 sec
     gradient                   ...        0 min,  0.001 sec
 * total energy  :    -8.6480220 Eh     change       -0.1522977E-05 Eh
   gradient norm :     0.0002429 Eh/α   predicted    -0.1461710E-05 (  -4.02%)
   displ. norm   :     0.0030752 α      lambda       -0.2859685E-06
   maximum displ.:     0.0016718 α      in ANC's #3, #7, #1, ...

   *** GEOMETRY OPTIMIZATION CONVERGED AFTER 11 ITERATIONS ***

------------------------------------------------------------------------
 total energy gain   :        -0.0641875 Eh      -40.2783 kcal/mol
 total RMSD          :         0.4454700 a0        0.2357 Å
 total power (kW/mol):       -15.3203861 (step)-4768.0015 (real)
------------------------------------------------------------------------

 ANCopt (total)                0 d,  0 h,  0 min,  0.035 sec
 optimizer setup                ...        0 min,  0.000 sec (  0.274%)
 model hessian                  ...        0 min,  0.000 sec (  0.387%)
 ANC generation                 ...        0 min,  0.000 sec (  0.176%)
 coordinate transformation      ...        0 min,  0.000 sec (  0.070%)
 single point calculation       ...        0 min,  0.034 sec ( 96.276%)
 optimization log               ...        0 min,  0.000 sec (  0.865%)
 hessian update                 ...        0 min,  0.000 sec (  0.076%)
 rational function              ...        0 min,  0.000 sec (  0.844%)

================
 final structure:
================
5
 xtb: 6.2.2 (9d81278992624c895f80dd42a50cac0aa55982e2)
C        -0.61793041933674   -0.00005796256219    0.19151136736233
C         0.41239834755148   -0.91694690159804   -0.14266229071490
C         1.48150051036336    0.00231752952592   -0.05033363376121
C         0.40918984255928    0.91674319836042   -0.15262280225491
H        -1.68515828113738   -0.00205586372611    0.15410735936868

 Bond Distances (Angstroems)
 ---------------------------
C1-C2=1.4191         C1-C4=1.4191         C1-H5=1.0679         C2-C1=1.4191         C2-C3=1.4130         C2-C4=1.8337         
C3-C2=1.4130         C3-C4=1.4130         C4-C1=1.4191         C4-C2=1.8337         C4-C3=1.4130         H5-C1=1.0679         
 C  H  Rav=1.0679 sigma=0.0000  Rmin=1.0679  Rmax=1.0679     1
 C  C  Rav=1.4996 sigma=0.1671  Rmin=1.4130  Rmax=1.8337     5

 selected bond angles (degree)
 --------------------
C4-C1-C2= 80.49                H5-C1-C2=135.74                H5-C1-C4=135.73                C3-C2-C1= 96.52                
C4-C2-C1= 49.75                C4-C2-C3= 49.54                C4-C3-C2= 80.91                C2-C4-C1= 49.75                
C3-C4-C1= 96.52                C3-C4-C2= 49.54                

 selected dihedral angles (degree)
 ---------------------------------
C3-C2-C1-C4= 17.74            C3-C2-C1-H5=168.00            C4-C2-C1-H5=150.27            C4-C3-C2-C1=342.21            
C2-C4-C1-H5=209.73            C3-C4-C1-C2=342.26            C3-C4-C1-H5=191.99            C1-C4-C2-C3=203.44            
C3-C4-C2-C1=156.56            C1-C4-C3-C2= 17.79            
           -------------------------------------------------
          |                Final Singlepoint                |
           -------------------------------------------------

          ...................................................
          :                      SETUP                      :
          :.................................................:
          :  # basis functions                  17          :
          :  # atomic orbitals                  17          :
          :  # shells                            9          :
          :  # electrons                        17          :
          :  max. iterations                   250          :
          :  Hamiltonian                  GFN2-xTB          :
          :  restarted?                      false          :
          :  GBSA solvation                  false          :
          :  PC potential                    false          :
          :  electronic temp.          300.0000000     K    :
          :  accuracy                    1.0000000          :
          :  -> integral cutoff          0.2500000E+02      :
          :  -> integral neglect         0.1000000E-07      :
          :  -> SCF convergence          0.1000000E-05 Eh   :
          :  -> wf. convergence          0.1000000E-03 e    :
          :  Broyden damping             0.4000000          :
          ...................................................

 iter      E             dE          RMSdq      gap      omega  full diag
   1     -8.7833277 -0.878333E+01  0.291E-04    1.73       0.0  T
   2     -8.7833277 -0.492051E-12  0.168E-04    1.73     265.8  T
   3     -8.7833277  0.780602E-10  0.110E-04    1.73     405.9  T

   *** convergence criteria satisfied after 3 iterations ***

         #    Occupation            Energy/Eh            Energy/eV
      -------------------------------------------------------------
         1        2.0000           -0.7016044             -19.0916
       ...           ...                  ...                  ...
         4        2.0000           -0.5349692             -14.5573
         5        2.0000           -0.5143358             -13.9958
         6        2.0000           -0.5094853             -13.8638
         7        2.0000           -0.4382273             -11.9248
         8        1.0000           -0.4018101             -10.9338
         9        1.0000           -0.3618412              -9.8462
        10        1.0000           -0.3548191              -9.6551 (HOMO)
        11                         -0.2911003              -7.9212 (LUMO)
        12                         -0.1893464              -5.1524
        13                          0.1260799               3.4308
        14                          0.1280148               3.4835
        15                          0.1781821               4.8486
       ...                                ...                  ...
        17                          0.6270020              17.0616
      -------------------------------------------------------------
                  HL-Gap            0.0637188 Eh            1.7339 eV
             Fermi-level           -0.3714892 Eh          -10.1087 eV

 SCC (total)                   0 d,  0 h,  0 min,  0.003 sec
 SCC setup                      ...        0 min,  0.000 sec (  2.830%)
 Dispersion                     ...        0 min,  0.000 sec (  0.480%)
 integral evaluation            ...        0 min,  0.001 sec ( 36.456%)
 zeroth order Hamiltonian       ...        0 min,  0.000 sec (  0.439%)
 iterations                     ...        0 min,  0.001 sec ( 19.070%)
 molecular gradient             ...        0 min,  0.001 sec ( 38.709%)
 printout                       ...        0 min,  0.000 sec (  1.700%)

         :::::::::::::::::::::::::::::::::::::::::::::::::::::
         ::                     SUMMARY                     ::
         :::::::::::::::::::::::::::::::::::::::::::::::::::::
         :: total energy              -8.648022022098 Eh    ::
         :: gradient norm              0.000241381213 Eh/a0 ::
         :: HOMO-LUMO gap              1.733876068616 eV    ::
         ::.................................................::
         :: SCC energy                -8.783327650738 Eh    ::
         :: -> isotropic ES           -0.005643298941 Eh    ::
         :: -> anisotropic ES         -0.000777229679 Eh    ::
         :: -> anisotropic XC          0.005811083719 Eh    ::
         :: -> dispersion             -0.002140784588 Eh    ::
         :: repulsion energy           0.135305617944 Eh    ::
         :: add. restraining           0.000000000000 Eh    ::
         :::::::::::::::::::::::::::::::::::::::::::::::::::::

           ------------------------------------------------- 
          |                Numerical Hessian                |
           ------------------------------------------------- 
step length          :   0.00500
SCC accuracy         :   0.30000
Hessian scale factor :   1.00000
frozen atoms in %    :   0.00000    0
RMS gradient         :   0.00024
estimated CPU  time      0.00 min
estimated wall time      0.00 min

writing file <hessian>.

 projected vibrational frequencies (cm-1)
eigval :       -0.00    -0.00    -0.00     0.00     0.00     0.00
eigval :      537.71   600.73   742.07   830.01   990.72  1083.78
eigval :     1220.62  1392.30  3168.71
           -------------------------------------------------
          |                Property Printout                |
           -------------------------------------------------

    * Orbital Energies and Occupations

         #    Occupation            Energy/Eh            Energy/eV
      -------------------------------------------------------------
         1        2.0000           -0.7016044             -19.0916
         2        2.0000           -0.6148797             -16.7317
         3        2.0000           -0.5907153             -16.0742
         4        2.0000           -0.5349694             -14.5573
         5        2.0000           -0.5143358             -13.9958
         6        2.0000           -0.5094853             -13.8638
         7        2.0000           -0.4382274             -11.9248
         8        1.0000           -0.4018096             -10.9338
         9        1.0000           -0.3618411              -9.8462
        10        1.0000           -0.3548192              -9.6551 (HOMO)
        11                         -0.2911004              -7.9212 (LUMO)
        12                         -0.1893464              -5.1524
        13                          0.1260794               3.4308
        14                          0.1280147               3.4835
        15                          0.1781822               4.8486
        16                          0.2696993               7.3389
        17                          0.6270018              17.0616
      -------------------------------------------------------------
                  HL-Gap            0.0637188 Eh            1.7339 eV
             Fermi-level           -0.3714891 Eh          -10.1087 eV

     #   Z        covCN         q      C6AA      α(0)
     1   6 C      3.155     0.019    27.278     8.540
     2   6 C      2.755    -0.055    29.333     8.869
     3   6 C      2.229     0.004    30.158     8.893
     4   6 C      2.755    -0.055    29.333     8.869
     5   1 H      0.927     0.085     1.925     2.169

 Mol. C6AA /au·bohr⁶  :        525.865364
 Mol. C8AA /au·bohr⁸  :      14566.075414
 Mol. α(0) /au        :         37.340376


Wiberg/Mayer (AO) data.
largest (>0.10) Wiberg bond orders for each atom
          total WBO             WBO to atom ...
     1  C   3.337        C    4 1.176    C    2 1.176    H    5 0.940
     2  C   2.905        C    3 1.187    C    1 1.176    C    4 0.539
     3  C   2.429        C    4 1.187    C    2 1.187
     4  C   2.905        C    3 1.187    C    1 1.176    C    2 0.539
     5  H   0.959        C    1 0.940

MOs/occ written to file <molden.input>


molecular dipole:
                 x           y           z       tot (Debye)
 q only:       -0.367      -0.000       0.062
   full:       -0.558      -0.000       0.122       1.452
molecular quadrupole (traceless):
                xx          xy          yy          xz          yz          zz
 q only:        1.024       0.003      -0.758      -0.097       0.003      -0.265
  q+dip:        3.138       0.010      -2.527       0.049       0.010      -0.611
   full:        1.902       0.010      -2.784       0.254       0.020       0.882

           -------------------------------------------------
          |                Geometry Summary                 |
           -------------------------------------------------

      molecular mass/u    :       49.0508844
   center of mass at/Å    :        0.3780043       0.0004591      -0.0345697
  moments of inertia/u·Å² :        0.2077250E+02   0.3181502E+02   0.5142897E+02
rotational constants/cm⁻¹ :        0.8115362E+00   0.5298640E+00   0.3277848E+00

 * 3 selected distances

     #   Z        #   Z                                     value/Å
     1   6 C      2   6 C                                 1.4191317 (max)
     1   6 C      4   6 C                                 1.4191296
     1   6 C      5   1 H                                 1.0678850 (min)

 * 2 distinct bonds (by element types)

   Z      Z             #   av. dist./Å        max./Å        min./Å
   1 H    6 C           1     1.0678850     1.0678850     1.0678850
   6 C    6 C           2     1.4191306     1.4191317     1.4191296
Molecule has the following symmetry elements: (sigma) 
It seems to be the Cs point group

           -------------------------------------------------
          |               Frequency Printout                |
           -------------------------------------------------
 projected vibrational frequencies (cm-1)
eigval :       -0.00    -0.00    -0.00     0.00     0.00     0.00
eigval :      537.71   600.73   742.07   830.01   990.72  1083.78
eigval :     1220.62  1392.30  3168.71
 reduced masses (amu)
   1: 10.48   2: 11.99   3: 11.78   4: 12.00   5: 11.83   6: 10.88   7: 12.00   8:  2.80
   9: 11.83  10:  7.32  11:  6.93  12: 11.93  13: 11.66  14: 11.77  15:  1.93
 IR intensities (amu)
   1:  0.06   2:  0.07   3:  0.05   4:  0.07   5:  0.03   6:  0.02   7:  0.14   8:  0.26
   9:  0.09  10:  1.30  11:  1.01  12:  0.44  13:  0.43  14:  0.24  15:  0.05
 Raman intensities (amu)
   1:  0.00   2:  0.00   3:  0.00   4:  0.00   5:  0.00   6:  0.00   7:  0.00   8:  0.00
   9:  0.00  10:  0.00  11:  0.00  12:  0.00  13:  0.00  14:  0.00  15:  0.00
 output can be read by thermo (or use thermo option).
 writing <g98.out> molden fake output.
 recommended (thermochemical) frequency scaling factor: 1.0
           -------------------------------------------------
          |             Thermodynamic Functions             |
           -------------------------------------------------

cs  symmetry found (for desy threshold:  0.10E+00) used in thermo

          ...................................................
          :                      SETUP                      :
          :.................................................:
          :  # frequencies                           9      :
          :  # imaginary freq.                       0      :
          :  linear?                             false      :
          :  only rotor calc.                    false      :
          :  symmetry                               cs      :
          :  rotational number                       1      :
          :  scaling factor                  1.0000000      :
          :  rotor cutoff                   50.0000000 cm⁻¹ :
          :  imag. cutoff                  -20.0000000 cm⁻¹ :
          :.................................................:

    mode    ω/cm⁻¹     T·S(HO)/kcal·mol⁻¹    T·S(FR)/kcal·mol⁻¹   T·S(vib)
   ------------------------------------------------------------------------
   ------------------------------------------------------------------------

   temp. (K)  partition function   enthalpy   heat capacity  entropy
                                   cal/mol     cal/K/mol   cal/K/mol   J/K/mol
 298.15  VIB   1.22                  384.127      4.533      1.683
         ROT  0.141E+05              888.752      2.981     21.965
         INT  0.172E+05             1272.879      7.513     23.648
         TR   0.332E+27             1481.254      4.968     37.578
         TOT                        2754.1330    12.4816    61.2256   256.1680

   temp. (K)  partition function   enthalpy   heat capacity  entropy
                                   cal/mol     cal/K/mol   cal/K/mol   J/K/mol
 120.00  VIB   1.00                    4.153      0.242      0.040
         ROT  0.360E+04              357.707      2.981     19.252
         INT  0.361E+04              361.860      3.223     19.291
         TR   0.849E+26              596.178      4.968     33.058
         TOT                         958.0376     8.1911    52.3498   219.0314

   temp. (K)  partition function   enthalpy   heat capacity  entropy
                                   cal/mol     cal/K/mol   cal/K/mol   J/K/mol
 100.00  VIB   1.00                    1.041      0.086      0.012
         ROT  0.274E+04              298.089      2.981     18.708
         INT  0.274E+04              299.130      3.066     18.720
         TR   0.646E+26              496.815      4.968     32.153
         TOT                         795.9454     8.0346    50.8730   212.8525

   temp. (K)  partition function   enthalpy   heat capacity  entropy
                                   cal/mol     cal/K/mol   cal/K/mol   J/K/mol
  80.00  VIB   1.00                    0.136      0.017      0.002
         ROT  0.196E+04              238.471      2.981     18.043
         INT  0.196E+04              238.607      2.998     18.045
         TR   0.462E+26              397.452      4.968     31.045
         TOT                         636.0594     7.9662    49.0899   205.3920

   temp. (K)  partition function   enthalpy   heat capacity  entropy
                                   cal/mol     cal/K/mol   cal/K/mol   J/K/mol
  60.00  VIB   1.00                    0.005      0.001     -0.000
         ROT  0.127E+04              178.853      2.981     17.186
         INT  0.127E+04              178.858      2.982     17.186
         TR   0.300E+26              298.089      4.968     29.616
         TOT                         476.9473     7.9501    46.8019   195.8193

   temp. (K)  partition function   enthalpy   heat capacity  entropy
                                   cal/mol     cal/K/mol   cal/K/mol   J/K/mol
  40.00  VIB   1.00                    0.000      0.000     -0.000
         ROT   692.                  119.236      2.981     15.977
         INT   692.                  119.236      2.981     15.977
         TR   0.163E+26              198.726      4.968     27.603
         TOT                         317.9616     7.9490    43.5797   182.3375

   temp. (K)  partition function   enthalpy   heat capacity  entropy
                                   cal/mol     cal/K/mol   cal/K/mol   J/K/mol
  20.00  VIB   1.00                    0.000      0.000     -0.000
         ROT   245.                   59.618      2.981     13.911
         INT   245.                   59.618      2.981     13.910
         TR   0.577E+25               99.363      4.968     24.161
         TOT                         158.9808     7.9490    38.0714   159.2908

   temp. (K)  partition function   enthalpy   heat capacity  entropy
                                   cal/mol     cal/K/mol   cal/K/mol   J/K/mol
  10.00  VIB   1.00                    0.000      0.000     -0.000
         ROT   86.5                   29.809      2.981     11.845
         INT   86.5                   29.809      2.981     11.844
         TR   0.204E+25               49.681      4.968     20.719
         TOT                          79.4904     7.9490    32.5631   136.2441

       T/K    H(0)-H(T)+PV         H(T)/Eh          T*S/Eh         G(T)/Eh
   ------------------------------------------------------------------------
    298.15    0.438899E-02    0.284616E-01    0.290903E-01   -0.628706E-03
    120.00    0.152673E-02    0.255993E-01    0.100110E-01    0.155883E-01
    100.00    0.126842E-02    0.253410E-01    0.810712E-02    0.172339E-01
     80.00    0.101363E-02    0.250862E-01    0.625838E-02    0.188278E-01
     60.00    0.760064E-03    0.248326E-01    0.447502E-02    0.203576E-01
     40.00    0.506704E-03    0.245793E-01    0.277795E-02    0.218013E-01
     20.00    0.253352E-03    0.243259E-01    0.121341E-02    0.231125E-01
     10.00    0.126676E-03    0.241993E-01    0.518927E-03    0.236803E-01 (used)
   ------------------------------------------------------------------------

         :::::::::::::::::::::::::::::::::::::::::::::::::::::
         ::                  THERMODYNAMIC                  ::
         :::::::::::::::::::::::::::::::::::::::::::::::::::::
         :: total free energy          -8.624341699272 Eh   ::
         ::.................................................::
         :: total energy               -8.648022023084 Eh   ::
         :: zero point energy           0.024072574348 Eh   ::
         :: G(RRHO) w/o ZPVE           -0.000392250536 Eh   ::
         :: G(RRHO) contrib.            0.023680323812 Eh   ::
         :::::::::::::::::::::::::::::::::::::::::::::::::::::

optimized geometry written to: xtbopt.xyz


           -------------------------------------------------
          | TOTAL ENERGY               -8.648022023084 Eh   |
          | TOTAL ENTHALPY             -8.623822772720 Eh   |
          | TOTAL FREE ENERGY          -8.624341699272 Eh   |
          | GRADIENT NORM               0.000241696656 Eh/α |
          | HOMO-LUMO GAP               1.733876151274 eV   |
           -------------------------------------------------

------------------------------------------------------------------------
 * finished run on 2020/05/12 at 11:45:11.505     
------------------------------------------------------------------------
 total:
 * wall-time:     0 d,  0 h,  0 min,  0.148 sec
 *  cpu-time:     0 d,  0 h,  0 min,  0.147 sec
 * ratio c/w:     0.994 speedup
 SCF:
 * wall-time:     0 d,  0 h,  0 min,  0.005 sec
 *  cpu-time:     0 d,  0 h,  0 min,  0.005 sec
 * ratio c/w:     1.000 speedup
 ANC optimizer:
 * wall-time:     0 d,  0 h,  0 min,  0.039 sec
 *  cpu-time:     0 d,  0 h,  0 min,  0.039 sec
 * ratio c/w:     0.993 speedup
 numerical hessian:
 * wall-time:     0 d,  0 h,  0 min,  0.086 sec
 *  cpu-time:     0 d,  0 h,  0 min,  0.086 sec
 * ratio c/w:     0.999 speedup

