2
 energy: -7.891100670834 gnorm: 0.164442286321 xtb: 6.2.2 (9d81278992624c895f80dd42a50cac0aa55982e2)
O         0.65800000000000    0.00000000000000    0.00000000000000
O        -0.65800000000000    0.00000000000000    0.00000000000000
2
 energy: -7.903495797184 gnorm: 0.042746806632 xtb: 6.2.2 (9d81278992624c895f80dd42a50cac0aa55982e2)
O         0.61556154777375    0.00000000000000    0.00000000000000
O        -0.61556154777375    0.00000000000000    0.00000000000000
2
 energy: -7.904013880781 gnorm: 0.018654165714 xtb: 6.2.2 (9d81278992624c895f80dd42a50cac0aa55982e2)
O         0.60067818347441    0.00000000000000    0.00000000000000
O        -0.60067818347441    0.00000000000000    0.00000000000000
2
 energy: -7.904117835490 gnorm: 0.001254157755 xtb: 6.2.2 (9d81278992624c895f80dd42a50cac0aa55982e2)
O         0.60519922267752    0.00000000000000    0.00000000000000
O        -0.60519922267752    0.00000000000000    0.00000000000000
2
 energy: -7.904118222395 gnorm: 0.000578075356 xtb: 6.2.2 (9d81278992624c895f80dd42a50cac0aa55982e2)
O         0.60477200739977    0.00000000000000    0.00000000000000
O        -0.60477200739977    0.00000000000000    0.00000000000000
