[Molden Format]
[Title]
[Atoms] AU
O      1     8  0.11428533557693E+01 -0.59839661777467E-05 -0.39893107851989E-05
O      2     8 -0.11428533557693E+01  0.59839661777467E-05  0.39893107851989E-05
[GTO]
           1 0
 s           4   1.0000000000000000     
   69.137961906196551      -0.20478756370077797     
   11.906129132707308      -0.24997023136827334     
  0.95670827744340703       0.40025880240639616     
  0.36462520496073686       0.15952206667693555     
 p           4   1.0000000000000000     
   8.2124193257781641        1.1321556799186829     
   2.1293576997098116        1.0476840782254817     
  0.75066448202360914       0.54956508217158984     
  0.29885246543283073        8.2908486592766617E-002

           2 0
 s           4   1.0000000000000000     
   69.137961906196551      -0.20478756370077797     
   11.906129132707308      -0.24997023136827334     
  0.95670827744340703       0.40025880240639616     
  0.36462520496073686       0.15952206667693555     
 p           4   1.0000000000000000     
   8.2124193257781641        1.1321556799186829     
   2.1293576997098116        1.0476840782254817     
  0.75066448202360914       0.54956508217158984     
  0.29885246543283073        8.2908486592766617E-002

[MO]
Sym=     1a
Ene=  -0.82717504437292755     
Spin= Alpha
Occup=     2.00000000
           1 -0.49830960923342088     
           2  0.27846291360305131     
           3  -1.4642557387837228E-006
           4  -9.7617049250383423E-007
           5 -0.49830960923348916     
           6 -0.27846291360304176     
           7   1.4642557385804436E-006
           8   9.7617049253481191E-007
Sym=     2a
Ene=  -0.73688372066261920     
Spin= Alpha
Occup=     2.00000000
           1  0.65927168019660953     
           2  0.26896671295485242     
           3  -1.3824468784443068E-006
           4  -9.2163125144126019E-007
           5 -0.65927168019663940     
           6  0.26896671295497504     
           7  -1.3824468784114428E-006
           8  -9.2163125143140104E-007
Sym=     3a
Ene=  -0.66150238662285543     
Spin= Alpha
Occup=     2.00000000
           1   2.7043111468579588E-008
           2  -4.0064866495850684E-006
           3 -0.46119473422633850     
           4 -0.46118921704454213     
           5  -2.7043110329919609E-008
           6  -4.0064866509193003E-006
           7 -0.46119473422639040     
           8 -0.46118921704459465     
Sym=     4a
Ene=  -0.66150238661491734     
Spin= Alpha
Occup=     2.00000000
           1  -5.4084539842421956E-009
           2   8.0127240633337853E-007
           3  0.46118921705299742     
           4 -0.46119473424175317     
           5   5.4084524064432827E-009
           6   8.0127240816255211E-007
           7  0.46118921705304822     
           8 -0.46119473424180663     
Sym=     5a
Ene=  -0.63814591534176146     
Spin= Alpha
Occup=     2.00000000
           1  0.43220058954928386     
           2  0.57194490005808296     
           3  -2.9859837132988866E-006
           4  -1.9906558105763300E-006
           5  0.43220058954916069     
           6 -0.57194490005805187     
           7   2.9859837159370414E-006
           8   1.9906558101045665E-006
Sym=     6a
Ene=  -0.44279193729455246     
Spin= Alpha
Occup=     1.00000000
           1  -2.0790761805806499E-009
           2   9.5996747525299030E-007
           3  0.55060254828964839     
           4 -0.55061165661647382     
           5  -2.0790759867212967E-009
           6  -9.5996747530946792E-007
           7 -0.55060254828960475     
           8  0.55061165661642986     
Sym=     7a
Ene=  -0.44279193727828559     
Spin= Alpha
Occup=     1.00000000
           1  -1.0395826660340736E-008
           2   4.8000438279206414E-006
           3  0.55061165660834011     
           4  0.55060254828988497     
           5  -1.0395826549502851E-008
           6  -4.8000438279398276E-006
           7 -0.55061165660829725     
           8 -0.55060254828984023     
Sym=     8a
Ene=   0.12472454216638378     
Spin= Alpha
Occup=     0.00000000
           1  0.62313803464507567     
           2 -0.92918646003202121     
           3   4.8618677740297327E-006
           4   3.2412451826767173E-006
           5 -0.62313803464507489     
           6 -0.92918646003200767     
           7   4.8618677740072415E-006
           8   3.2412451826751028E-006
