3
 energy: -8.718163142531 gnorm: 0.149655919605 xtb: 6.2.2 (9d81278992624c895f80dd42a50cac0aa55982e2)
O        -0.02399000000000    0.56013500000000    0.00000000000000
N        -1.07412200000000   -0.29341100000000    0.00000000000000
C         1.09811100000000   -0.26672300000000    0.00000000000000
3
 energy: -8.738749715588 gnorm: 0.087948458569 xtb: 6.2.2 (9d81278992624c895f80dd42a50cac0aa55982e2)
O        -0.01729816175449    0.46213217607272    0.00000000000000
N        -1.12484478577144   -0.24595652479547   -0.00000000000000
C         1.14214194752593   -0.21617465127725    0.00000000000000
3
 energy: -8.745290017032 gnorm: 0.013905266899 xtb: 6.2.2 (9d81278992624c895f80dd42a50cac0aa55982e2)
O        -0.01117368881242    0.38859091257027    0.00000000000000
N        -1.12181873319617   -0.21026172816889   -0.00000000000000
C         1.13299142200860   -0.17832818440138    0.00000000000000
3
 energy: -8.745415214854 gnorm: 0.004091084663 xtb: 6.2.2 (9d81278992624c895f80dd42a50cac0aa55982e2)
O        -0.01352378892189    0.38982929979056    0.00000000000000
N        -1.12758385337284   -0.21007770370615   -0.00000000000000
C         1.14110664229474   -0.17975059608441    0.00000000000000
3
 energy: -8.745427450634 gnorm: 0.002101462421 xtb: 6.2.2 (9d81278992624c895f80dd42a50cac0aa55982e2)
O        -0.01468879987581    0.38799460773805    0.00000000000000
N        -1.12800943064759   -0.20869173332091   -0.00000000000000
C         1.14269723052340   -0.17930187441714    0.00000000000000
3
 energy: -8.745430981015 gnorm: 0.000209693038 xtb: 6.2.2 (9d81278992624c895f80dd42a50cac0aa55982e2)
O        -0.01582788081053    0.38700038946208    0.00000000000000
N        -1.12772122296864   -0.20774102352517   -0.00000000000000
C         1.14354810377917   -0.17925836593691    0.00000000000000
