 Entering Gaussian System
 *********************************************
 Gaussian 98:
 frequency output generated by the xtb code
 *********************************************
                         Standard orientation:
 --------------------------------------------------------------------
  Center     Atomic     Atomic              Coordinates (Angstroms)
  Number     Number      Type              X           Y           Z
 --------------------------------------------------------------------
    1          8             0       -0.015826    0.387000   -0.000001
    2          7             0       -1.127722   -0.207735    0.000004
    3          6             0        1.143547   -0.179264   -0.000004
 --------------------------------------------------------------------
     1 basis functions        1 primitive gaussians
     1 alpha electrons        1 beta electrons

 Harmonic frequencies (cm**-1), IR intensities (KM/Mole),
 Raman scattering activities (A**4/amu), Raman depolarization ratios,
 reduced masses (AMU), force constants (mDyne/A) and normal coordinates:
                      1                      2                      3
                        a                      a                      a 
 Frequencies --   555.8711              1063.6146              1244.5989
 Red. masses --    14.0054                14.8583                13.6243
 Frc consts  --     0.0000                 0.0000                 0.0000
 IR Inten    --     0.4043                 0.5546                 0.3742
 Raman Activ --     0.0000                 0.0000                 0.0000
 Depolar     --     0.0000                 0.0000                 0.0000
 Atom AN      X      Y      Z        X      Y      Z        X      Y      Z
   1   8     0.01   0.59  -0.00     0.74   0.07  -0.00     0.11  -0.51   0.00
   2   7     0.44  -0.32  -0.00    -0.51  -0.24   0.00     0.44   0.26  -0.00
   3   6    -0.49  -0.34   0.00    -0.31   0.18   0.00    -0.60   0.31   0.00
