[Molden Format]
[Title]
[Atoms] AU
O      1     8 -0.29906527886838E-01  0.73132483495374E+00 -0.11719955114958E-05
N      2     7 -0.21310861140830E+01 -0.39256244455305E+00  0.81240568845844E-05
C      3     6  0.21609907522538E+01 -0.33876050066484E+00 -0.69520580748999E-05
[GTO]
           1 0
 s           4   1.0000000000000000     
   69.137961906196551      -0.20478756370077797     
   11.906129132707308      -0.24997023136827334     
  0.95670827744340703       0.40025880240639616     
  0.36462520496073686       0.15952206667693555     
 p           4   1.0000000000000000     
   8.2124193257781641        1.1321556799186829     
   2.1293576997098116        1.0476840782254817     
  0.75066448202360914       0.54956508217158984     
  0.29885246543283073        8.2908486592766617E-002

           2 0
 s           4   1.0000000000000000     
   63.594024466941008      -0.19234388414721629     
   10.951417231523665      -0.23478107924953728     
  0.87999310257376984       0.37593753901700888     
  0.33538715296521110       0.14982889271862770     
 p           4   1.0000000000000000     
   7.2965040481495080       0.97658666315667420     
   1.8918745450712575       0.90372226730345739     
  0.66694432110824120       0.47404958461536373     
  0.26552202674130870        7.1516067715011844E-002

           3 0
 s           4   1.0000000000000000     
   51.049363095579913      -0.16312063210127389     
   8.7911227406887544      -0.19911024581000730     
  0.70640422258929825       0.31882047753655751     
  0.26922813413411617       0.12706504184240380     
 p           4   1.0000000000000000     
   5.8263656140800002       0.73716451545209605     
   1.5106896018720002       0.68216371614850257     
  0.53256483288000001       0.35783053929253711     
  0.21202323690600003        5.3983030275847881E-002

[MO]
Sym=     1a
Ene=  -0.83143981343428452     
Spin= Alpha
Occup=     2.00000000
           1  0.71657027521497385     
           2  -5.8307508283276507E-002
           3 -0.13227417534296113     
           4   4.4988056095751296E-007
           5  0.21632263157779577     
           6  0.19857463948733001     
           7   8.3643868470128044E-002
           8  -8.3802053348393259E-007
           9  0.15991425793983804     
          10 -0.11524714367202425     
          11   3.5788885412823726E-002
          12   3.4348505171413576E-007
Sym=     2a
Ene=  -0.76936213511174156     
Spin= Alpha
Occup=     2.00000000
           1 -0.12049903853036405     
           2 -0.60077496247018236     
           3  -1.4324299237345401E-002
           4   2.1109592912561347E-006
           5  0.33337796601249020     
           6  0.12928396683136670     
           7  0.13895326413339890     
           8  -7.0116502568735933E-007
           9 -0.34483075484340930     
          10  0.11790895192460840     
          11 -0.10612907457783195     
          12  -2.3064403124879350E-007
Sym=     3a
Ene=  -0.68320981933315461     
Spin= Alpha
Occup=     2.00000000
           1  0.39921905301158578     
           2  -4.8177153040136485E-002
           3  0.73011202263357455     
           4  -1.0595107999693075E-006
           5 -0.21198523294855498     
           6 -0.14063719779491751     
           7  0.22390102865251491     
           8   1.2251967717210974E-007
           9 -0.20585123435114355     
          10   8.2692208118952157E-002
          11  0.14980780125077700     
          12  -5.3987952192185449E-007
Sym=     4a
Ene=  -0.66389619912926334     
Spin= Alpha
Occup=     2.00000000
           1  -3.2558924935284678E-008
           2   2.7860729819360303E-006
           3   1.3541419889031077E-006
           4  0.80057803384962645     
           5  -1.4099052694293525E-009
           6   1.2863652807882994E-006
           7   6.2376639331515864E-007
           8  0.36437156567736978     
           9  -2.1697197750431529E-009
          10   8.1545029743430013E-007
          11   3.9494308733574707E-007
          12  0.23485162216873909     
Sym=     5a
Ene=  -0.54361609607309980     
Spin= Alpha
Occup=     2.00000000
           1  -9.7333708306947125E-002
           2  0.10807773070273054     
           3  0.20443306176778805     
           4  -7.0215164102341119E-007
           5  0.76472161265331218     
           6 -0.47511535423321200     
           7  -5.6848185796725743E-002
           8   1.7244020966097012E-006
           9  0.34150122557514112     
          10  0.17166719866054261     
          11   8.7187425420238357E-002
          12  -7.3410603317985830E-007
Sym=     6a
Ene=  -0.51250717427814396     
Spin= Alpha
Occup=     2.00000000
           1   9.7114237898240072E-002
           2  0.22245902866477957     
           3  -2.2962139629678465E-002
           4  -7.2573184791860554E-007
           5  0.26279711824504287     
           6 -0.10853704679980965     
           7 -0.39777679321028458     
           8   1.0342850931976355E-006
           9 -0.70371036123738284     
          10 -0.40495634413695131     
          11  0.24582640016523299     
          12   1.0112049252579221E-006
Sym=     7a
Ene=  -0.44326383901521876     
Spin= Alpha
Occup=     1.00000000
           1  -1.6294467178496520E-009
           2   8.4939423778438218E-007
           3   4.3832774970420357E-007
           4  0.24911887603783159     
           5  -4.6457844701412315E-008
           6  -2.9037073813866017E-006
           7  -1.4797854833125060E-006
           8 -0.84477559397264734     
           9   2.4882637466542325E-008
          10   1.8326877760901901E-006
          11   9.0024612109689833E-007
          12  0.51563494799385468     
Sym=     8a
Ene=  -0.42404126183883839     
Spin= Alpha
Occup=     1.00000000
           1   9.7091941650978175E-002
           2 -0.10840792450218956     
           3  0.29239566638499331     
           4  -1.4892246051094980E-007
           5   1.8456351493833335E-002
           6  0.45919666312109159     
           7 -0.75355618829313398     
           8  -2.4719262803837852E-007
           9  0.13256922035319796     
          10  0.41231081873737391     
          11  0.13307561339527224     
          12  -1.6868239305989191E-006
Sym=     9a
Ene=  -0.35854918025575183     
Spin= Alpha
Occup=     1.00000000
           1 -0.23017087480991583     
           2   2.7112114003102740E-002
           3 -0.33525911970098032     
           4   5.1590983109237380E-007
           5   2.0996765624455155E-002
           6  0.15599487651271440     
           7  0.30527424503165351     
           8  -1.0811060334155098E-006
           9  -3.6163688767731274E-002
          10  0.28058003372861118     
          11  0.88331181734587749     
          12  -2.5625071089723828E-006
Sym=    10a
Ene=  -0.31426480770454535     
Spin= Alpha
Occup=     0.00000000
           1  -9.2315583696749990E-009
           2  -2.1002981395769279E-006
           3  -1.0646735413055538E-006
           4 -0.60171847712821569     
           5   7.6539780341713703E-009
           6   1.4904367139772116E-006
           7   7.7132714122377310E-007
           8  0.42797827322736282     
           9   2.5535369217041279E-009
          10   2.9602198535829878E-006
          11   1.5137102799310884E-006
          12  0.84496755831775505     
Sym=    11a
Ene=    6.4436705201616568E-002
Spin= Alpha
Occup=     0.00000000
           1 -0.82909423736302057     
           2  0.24005319029826938     
           3  0.61234566851363903     
           4  -1.9065337313803055E-006
           5  0.46487068761031691     
           6  0.74643618522600663     
           7  0.28997145600698121     
           8  -3.1103117684693973E-006
           9  0.27898824586797294     
          10 -0.57115912684039449     
          11   5.4825117027307808E-002
          12   1.9001659048851494E-006
Sym=    12a
Ene=   0.34059276474902539     
Spin= Alpha
Occup=     0.00000000
           1 -0.23102728543944615     
           2  -1.0344392331532342     
           3   9.7970485245341618E-002
           4   3.4399847307709541E-006
           5 -0.39424555504447845     
           6 -0.39740842548366118     
           7 -0.34210726983442974     
           8   1.9868388846211485E-006
           9  0.60013963371681345     
          10 -0.71982514861679436     
          11  0.45074121631576325     
          12   1.7227857788770517E-006
