$hessian                                                                        
        0.3883597520  -0.0131512995  -0.0000013327  -0.1972441935  -0.0925838615
        0.0000008501  -0.1911155585   0.1057351611   0.0000004826
       -0.0131512995   0.3146608368  -0.0000005033  -0.1775561414  -0.1595659737
        0.0000008983   0.1907074410  -0.1550948631  -0.0000003950
       -0.0000013327  -0.0000005033   0.0000000000   0.0000009984   0.0000006017
       -0.0000000000   0.0000003343  -0.0000000984  -0.0000000000
       -0.1972441935  -0.1775561414   0.0000009984   0.3467217885   0.1441562469
       -0.0000014619  -0.1494775950   0.0333998945   0.0000004635
       -0.0925838615  -0.1595659737   0.0000006017   0.1441562469   0.1063404014
       -0.0000006888  -0.0515723854   0.0532255723   0.0000000871
        0.0000008501   0.0000008983  -0.0000000000  -0.0000014619  -0.0000006888
        0.0000000000   0.0000006118  -0.0000002095  -0.0000000000
       -0.1911155585   0.1907074410   0.0000003343  -0.1494775950  -0.0515723854
        0.0000006118   0.3405931536  -0.1391350556  -0.0000009461
        0.1057351611  -0.1550948631  -0.0000000984   0.0333998945   0.0532255723
       -0.0000002095  -0.1391350556   0.1018692908   0.0000003079
        0.0000004826  -0.0000003950  -0.0000000000   0.0000004635   0.0000000871
       -0.0000000000  -0.0000009461   0.0000003079   0.0000000000
