 Entering Gaussian System
 *********************************************
 Gaussian 98:
 frequency output generated by the xtb code
 *********************************************
                         Standard orientation:
 --------------------------------------------------------------------
  Center     Atomic     Atomic              Coordinates (Angstroms)
  Number     Number      Type              X           Y           Z
 --------------------------------------------------------------------
    1          6             0       -1.955026   -0.512178   -0.079733
    2          6             0       -0.791873    0.002320   -0.009749
    3          6             0        0.791760   -0.010546    0.010171
    4          7             0        0.007090    1.064449    0.109315
    5          6             0        1.948049   -0.544045   -0.030004
 --------------------------------------------------------------------
     1 basis functions        1 primitive gaussians
     1 alpha electrons        1 beta electrons

 Harmonic frequencies (cm**-1), IR intensities (KM/Mole),
 Raman scattering activities (A**4/amu), Raman depolarization ratios,
 reduced masses (AMU), force constants (mDyne/A) and normal coordinates:
                      1                      2                      3
                        a                      a                      a 
 Frequencies --   175.0902               268.3549               298.2084
 Red. masses --    12.2868                12.2373                12.2729
 Frc consts  --     0.0000                 0.0000                 0.0000
 IR Inten    --     0.4393                 0.7384                 0.0575
 Raman Activ --     0.0000                 0.0000                 0.0000
 Depolar     --     0.0000                 0.0000                 0.0000
 Atom AN      X      Y      Z        X      Y      Z        X      Y      Z
   1   6    -0.39   0.46   0.04    -0.01  -0.04   0.37     0.06  -0.30  -0.03
   2   6    -0.10  -0.25  -0.03     0.01   0.06  -0.56    -0.25   0.52   0.05
   3   6     0.09  -0.25  -0.02     0.01   0.06  -0.54    -0.26  -0.52  -0.05
   4   7    -0.00  -0.37  -0.04    -0.00  -0.03   0.34     0.36  -0.00   0.00
   5   6     0.39   0.45   0.05    -0.00  -0.04   0.37     0.06   0.30   0.03
                      4                      5                      6
                        a                      a                      a 
 Frequencies --   330.5202               543.5172               906.0026
 Red. masses --    12.0108                12.0879                13.0608
 Frc consts  --     0.0000                 0.0000                 0.0000
 IR Inten    --     0.0200                 0.0037                 0.7727
 Raman Activ --     0.0000                 0.0000                 0.0000
 Depolar     --     0.0000                 0.0000                 0.0000
 Atom AN      X      Y      Z        X      Y      Z        X      Y      Z
   1   6     0.00   0.03  -0.26     0.26   0.22   0.03     0.22   0.12   0.02
   2   6    -0.01  -0.06   0.65     0.50  -0.33  -0.03     0.17   0.38   0.04
   3   6     0.01   0.06  -0.66    -0.51  -0.33  -0.04     0.17  -0.38  -0.04
   4   7     0.00  -0.00   0.00     0.00   0.20   0.02    -0.73   0.01  -0.01
   5   6    -0.00  -0.03   0.27    -0.26   0.23   0.02     0.22  -0.12  -0.01
                      7                      8                      9
                        a                      a                      a 
 Frequencies --  1187.4655              1588.6218              1863.0158
 Red. masses --    12.9758                12.0120                12.2379
 Frc consts  --     0.0000                 0.0000                 0.0000
 IR Inten    --     0.0229                 0.5812                 0.8620
 Raman Activ --     0.0000                 0.0000                 0.0000
 Depolar     --     0.0000                 0.0000                 0.0000
 Atom AN      X      Y      Z        X      Y      Z        X      Y      Z
   1   6     0.43   0.18   0.02    -0.47  -0.19  -0.03     0.31   0.13   0.02
   2   6    -0.04   0.19   0.02     0.46   0.15   0.02    -0.49  -0.31  -0.04
   3   6     0.04   0.19   0.02     0.46  -0.16  -0.01     0.48  -0.31  -0.03
   4   7    -0.00  -0.69  -0.07     0.02   0.00   0.00     0.00   0.34   0.03
   5   6    -0.43   0.19   0.01    -0.47   0.20   0.01    -0.31   0.13   0.01
