[Molden Format]
[Title]
[Atoms] AU
C      1     6 -0.36944639683259E+01 -0.96787520091422E+00 -0.15067279883200E+00
C      2     6 -0.14964231387136E+01  0.43834295828808E-02 -0.18423810949864E-01
C      3     6  0.14962096825184E+01 -0.19929478816560E-01  0.19220245914712E-01
N      4     7  0.13398066089184E-01  0.20115166295417E+01  0.20657526704838E+00
C      5     6  0.36812793584318E+01 -0.10280953793938E+01 -0.56698903181236E-01
[GTO]
           1 0
 s           4   1.0000000000000000     
   51.049363095579913      -0.16312063210127389     
   8.7911227406887544      -0.19911024581000730     
  0.70640422258929825       0.31882047753655751     
  0.26922813413411617       0.12706504184240380     
 p           4   1.0000000000000000     
   5.8263656140800002       0.73716451545209605     
   1.5106896018720002       0.68216371614850257     
  0.53256483288000001       0.35783053929253711     
  0.21202323690600003        5.3983030275847881E-002

           2 0
 s           4   1.0000000000000000     
   51.049363095579913      -0.16312063210127389     
   8.7911227406887544      -0.19911024581000730     
  0.70640422258929825       0.31882047753655751     
  0.26922813413411617       0.12706504184240380     
 p           4   1.0000000000000000     
   5.8263656140800002       0.73716451545209605     
   1.5106896018720002       0.68216371614850257     
  0.53256483288000001       0.35783053929253711     
  0.21202323690600003        5.3983030275847881E-002

           3 0
 s           4   1.0000000000000000     
   51.049363095579913      -0.16312063210127389     
   8.7911227406887544      -0.19911024581000730     
  0.70640422258929825       0.31882047753655751     
  0.26922813413411617       0.12706504184240380     
 p           4   1.0000000000000000     
   5.8263656140800002       0.73716451545209605     
   1.5106896018720002       0.68216371614850257     
  0.53256483288000001       0.35783053929253711     
  0.21202323690600003        5.3983030275847881E-002

           4 0
 s           4   1.0000000000000000     
   63.594024466941008      -0.19234388414721629     
   10.951417231523665      -0.23478107924953728     
  0.87999310257376984       0.37593753901700888     
  0.33538715296521110       0.14982889271862770     
 p           4   1.0000000000000000     
   7.2965040481495080       0.97658666315667420     
   1.8918745450712575       0.90372226730345739     
  0.66694432110824120       0.47404958461536373     
  0.26552202674130870        7.1516067715011844E-002

           5 0
 s           4   1.0000000000000000     
   51.049363095579913      -0.16312063210127389     
   8.7911227406887544      -0.19911024581000730     
  0.70640422258929825       0.31882047753655751     
  0.26922813413411617       0.12706504184240380     
 p           4   1.0000000000000000     
   5.8263656140800002       0.73716451545209605     
   1.5106896018720002       0.68216371614850257     
  0.53256483288000001       0.35783053929253711     
  0.21202323690600003        5.3983030275847881E-002

[MO]
Sym=     1a
Ene=  -0.75506517282894425     
Spin= Alpha
Occup=     2.00000000
           1   6.1105024989381009E-002
           2   4.5511126551237624E-002
           3   2.2264616848214392E-002
           4   2.9261518055194230E-003
           5  0.33024860198715172     
           6  0.14493866618472567     
           7   8.4382002704187622E-002
           8   1.0500027801814365E-002
           9  0.33006199951388626     
          10 -0.14381341052919686     
          11   8.6675245760752098E-002
          12   6.8785081532025619E-003
          13  0.41092047010193611     
          14  -1.7500148775624338E-003
          15 -0.24943269343536917     
          16  -2.5491124323617692E-002
          17   6.0984368128953768E-002
          18  -4.5142648117671345E-002
          19   2.2963825292271700E-002
          20   1.7669398688791686E-003
Sym=     2a
Ene=  -0.70090710798740929     
Spin= Alpha
Occup=     2.00000000
           1  0.35539577423141200     
           2  0.10826969217773537     
           3   6.0134106645447882E-002
           4   7.7686486066751151E-003
           5  0.33135685381618812     
           6 -0.18195680639541842     
           7  -1.1432574467572364E-002
           8  -3.8258447523137422E-003
           9 -0.33128489488697371     
          10 -0.18141114958255875     
          11   1.4173115088706978E-002
          12  -8.7378907371265504E-004
          13  -2.1429007506760438E-004
          14 -0.18645508618541914     
          15   1.5727418422022152E-003
          16  -2.3735309966519246E-003
          17 -0.35497633074293511     
          18  0.10733492675742132     
          19  -6.1834878588651443E-002
          20  -4.9960256110749513E-003
Sym=     3a
Ene=  -0.68361281561227483     
Spin= Alpha
Occup=     2.00000000
           1  0.40470235042271524     
           2  0.10682439009073340     
           3   3.4945336226333959E-002
           4   5.1640770171610629E-003
           5  0.21623765437546094     
           6 -0.20118870642406392     
           7 -0.16335032049254966     
           8  -1.9721939061349072E-002
           9  0.21664552718796859     
          10  0.19916155398295360     
          11 -0.16659445238112550     
          12  -1.4599457799873155E-002
          13 -0.22298001970406206     
          14   2.0097276265876429E-004
          15   1.5736289011976677E-002
          16   1.4092108081096614E-003
          17  0.40521093729249030     
          18 -0.10646802369798089     
          19   3.6765822938503730E-002
          20   2.4287019652165609E-003
Sym=     4a
Ene=  -0.60342174305941088     
Spin= Alpha
Occup=     2.00000000
           1 -0.27030950151652144     
           2  -8.5416275439734179E-003
           3   9.8025962743968034E-002
           4   9.9417319644451961E-003
           5  0.14128846703357700     
           6   6.7998982801332583E-002
           7  0.32115408350815089     
           8   3.4041358760937154E-002
           9 -0.14208621156264947     
          10   6.5271636355609591E-002
          11 -0.32061613780474213     
          12  -3.1830479950217684E-002
          13   1.4182496045872012E-003
          14 -0.57243120620842192     
          15   5.3278950094135646E-003
          16  -6.9303206770493769E-003
          17  0.27129220323371789     
          18  -9.4269002949160467E-003
          19  -9.7234010845900387E-002
          20  -1.0003055896582923E-002
Sym=     5a
Ene=  -0.59619707624069984     
Spin= Alpha
Occup=     2.00000000
           1 -0.17435352390113418     
           2   7.8780264577084286E-002
           3 -0.10906763242897449     
           4  -9.4386677411802226E-003
           5  0.12025470058648434     
           6  0.27832799700850780     
           7 -0.28727644991413553     
           8  -2.3618596936676048E-002
           9  0.11937750044735117     
          10 -0.28188824390604089     
          11 -0.28458297176171177     
          12  -3.0910217346183402E-002
          13 -0.50657400313222933     
          14  -3.5579399518572453E-003
          15 -0.26933512092900030     
          16  -2.5035585951291711E-002
          17 -0.17280626493617368     
          18  -8.0258307367746709E-002
          19 -0.10833025627951152     
          20  -1.1503865744598189E-002
Sym=     6a
Ene=  -0.59220565903159728     
Spin= Alpha
Occup=     2.00000000
           1   1.0428312409530235E-003
           2  -2.4595808646130711E-003
           3  -1.4593877601549380E-002
           4  0.14687726516564398     
           5  -1.9007691466930250E-004
           6  -7.1586422657685961E-003
           7  -4.1467776614128399E-002
           8  0.41637589235432304     
           9  -2.1212314362230341E-004
          10  -4.1344695655121232E-003
          11  -4.1165888525496054E-002
          12  0.41626460129004050     
          13   2.1901901895100750E-003
          14  -7.3399649800956574E-003
          15  -5.6425601814045059E-002
          16  0.56503495842291751     
          17   7.9540193683437586E-004
          18  -1.5100607138974808E-003
          19  -1.4472776610564691E-002
          20  0.14675788653731242     
Sym=     7a
Ene=  -0.48796049706327438     
Spin= Alpha
Occup=     2.00000000
           1  0.11555909485544806     
           2   3.9804258749377881E-002
           3 -0.32280822966331912     
           4  -3.2687769571183169E-002
           5  -4.1928311162374242E-002
           6  0.14994412955017022     
           7 -0.27524502080047919     
           8  -2.6198870254814332E-002
           9  -4.2383113471427793E-002
          10 -0.15370709762875784     
          11 -0.27252626394141538     
          12  -2.9813156089255118E-002
          13  0.50781109657703782     
          14   3.5571953676899934E-003
          15  0.51178016113900793     
          16   5.2453638037319672E-002
          17  0.11637954813679904     
          18  -4.3341001316764674E-002
          19 -0.32216848323405600     
          20  -3.3517644569987765E-002
Sym=     8a
Ene=  -0.47922641786928338     
Spin= Alpha
Occup=     2.00000000
           1  0.42202131431583961     
           2 -0.46508272470985723     
           3  -2.3665085844647503E-003
           4  -1.5535829140573993E-002
           5 -0.20596416613984322     
           6   8.0589169109689931E-004
           7  0.19599986341427936     
           8   1.1912727327206435E-002
           9  0.20644317950926741     
          10  -1.8489282438035369E-003
          11 -0.19680898942789588     
          12  -1.2015231785007496E-002
          13   6.5095704732564782E-004
          14 -0.12737310147320521     
          15   1.9958404153897990E-003
          16  -1.4080117633209028E-003
          17 -0.42333808067172435     
          18 -0.46676113744714431     
          19   9.9874431600738712E-003
          20   3.5447028426268986E-003
Sym=     9a
Ene=  -0.47706046672334323     
Spin= Alpha
Occup=     2.00000000
           1  -7.0758779068841957E-003
           2   1.4957867753417575E-002
           3   4.8302518722463002E-002
           4 -0.47129946703394621     
           5   3.2838060589883409E-003
           6   6.4557634340366814E-003
           7   4.2448407349046959E-002
           8 -0.44782913403673641     
           9  -3.6673162318884216E-003
          10  -5.8534925788962106E-003
          11  -4.2179332200264007E-002
          12  0.44807670073064282     
          13  -2.5105311663145032E-004
          14   2.1621747328281274E-003
          15  -4.5236219064363899E-004
          16   1.1182242604184320E-004
          17   7.9484552468900883E-003
          18   2.9831457951450665E-003
          19  -4.8607692994479354E-002
          20  0.47154374623851786     
Sym=    10a
Ene=  -0.46898778638052280     
Spin= Alpha
Occup=     2.00000000
           1  0.42602187802899061     
           2 -0.42574431536702645     
           3 -0.19111149118866355     
           4  -2.5710640460595822E-002
           5 -0.13088765654849721     
           6  0.14406030112259127     
           7   7.0688140322418089E-002
           8   9.5468501648421442E-003
           9 -0.13019763356154929     
          10 -0.14320290592142068     
          11   7.2387002734877123E-002
          12   4.9074261205178668E-003
          13 -0.11265545985144397     
          14  -2.1812717889798886E-003
          15 -0.29730933569408435     
          16  -2.9745624597399142E-002
          17  0.42456725646203880     
          18  0.42136731419470874     
          19 -0.19805727565479145     
          20  -1.5851913542647172E-002
Sym=    11a
Ene=  -0.42723734375454447     
Spin= Alpha
Occup=     0.99775634
           1   2.7203671832029731E-004
           2  -7.7152703838763602E-003
           3  -5.0317729436444483E-002
           4  0.48922914177365739     
           5  -1.5344520991779429E-005
           6  -2.5734947321085369E-003
           7  -1.9257243080135059E-002
           8  0.18859204465847448     
           9   4.5751135489791928E-005
          10  -2.6797518106414105E-003
          11  -1.9328002302168048E-002
          12  0.18861729426301610     
          13   9.8632285772641418E-005
          14   9.0396341047817505E-003
          15   6.7772551570179737E-002
          16 -0.66659774409984018     
          17   2.8984820150053706E-004
          18  -5.8136692892304135E-003
          19  -5.0616150523793514E-002
          20  0.48924122439930945     
Sym=    12a
Ene=  -0.41565176222223371     
Spin= Alpha
Occup=     0.00224366
           1 -0.10365880524058323     
           2  -6.6738966473022188E-002
           3  0.60247707177307031     
           4   6.0701182302580758E-002
           5  -6.0489446309255117E-002
           6 -0.18463271749267979     
           7   7.5779193179365475E-002
           8   5.0023926469446554E-003
           9   6.0549400553378083E-002
          10 -0.18560684935339128     
          11  -7.2782071979367771E-002
          12  -9.8158135271043407E-003
          13  -3.1027229151857794E-005
          14  0.37399209592295574     
          15  -2.9987281522869049E-003
          16   4.9555563215210735E-003
          17  0.10351447540261532     
          18  -7.5168555274234161E-002
          19 -0.60129575105219024     
          20  -6.2705076506518659E-002
Sym=    13a
Ene=  -0.32047464863923869     
Spin= Alpha
Occup=     0.00000000
           1  -2.5822308022445766E-002
           2  0.32556725222559363     
           3 -0.53930394772895118     
           4  -5.0337540017120930E-002
           5  -9.6237371762497179E-002
           6 -0.23215555831482584     
           7  0.27482450878258724     
           8   2.4649658017731682E-002
           9  -9.6384080246654472E-002
          10  0.23611366485152180     
          11  0.27125723150145181     
          12   3.0651020594659732E-002
          13  -3.3244163393379510E-002
          14  -2.4577545449033212E-003
          15 -0.35400999209547029     
          16  -3.5872998606808530E-002
          17  -2.5817866512297030E-002
          18 -0.33302079137495944     
          19 -0.53398336011632896     
          20  -5.8713807959154415E-002
Sym=    14a
Ene=  -0.24197427087394022     
Spin= Alpha
Occup=     0.00000000
           1  -4.2456460702450962E-005
           2  -7.4078825531230666E-003
           3  -5.2069615598086434E-002
           4  0.51098843308805819     
           5  -5.3350956812638030E-004
           6   7.5407102126938451E-003
           7   5.4098590443419671E-002
           8 -0.53094036094422914     
           9  -2.5098070604066776E-004
          10   6.7305261329588858E-003
          11   5.4383479192895212E-002
          12 -0.53505683420353856     
          13   1.3686708336411161E-004
          14  -7.3000271304116890E-003
          15  -5.5112876345989728E-002
          16  0.53892029832754462     
          17  -2.4077239369136197E-005
          18  -6.3954939416480698E-003
          19  -5.2303131570595088E-002
          20  0.51462971901701371     
Sym=    15a
Ene=  -0.22210909367331921     
Spin= Alpha
Occup=     0.00000000
           1   2.8303621594829465E-005
           2   7.5518301237194763E-003
           3   5.6945216767805840E-002
           4 -0.55420588221384881     
           5   1.0086989002158126E-003
           6  -8.5941606995067841E-003
           7  -6.5562946392248439E-002
           8  0.63880644449072554     
           9  -7.9093049989303237E-004
          10   8.6909283436508878E-003
          11   6.5246141934877766E-002
          12 -0.63525894750826506     
          13  -3.8360616891358599E-005
          14   4.6830763799139685E-004
          15   2.2937858081732043E-004
          16  -1.8069611130580438E-003
          17  -2.1662275969297223E-005
          18  -7.4628972053072933E-003
          19  -5.6623653107529814E-002
          20  0.55078493307277199     
Sym=    16a
Ene=   -8.5389157991727624E-002
Spin= Alpha
Occup=     0.00000000
           1  -3.8014529841971401E-002
           2 -0.33119608899863950     
           3  0.25865745313512700     
           4   2.2292238369006311E-002
           5  0.42592360290340986     
           6  0.49880256406946794     
           7 -0.52840742476966363     
           8  -4.8017329974379887E-002
           9 -0.42594654171231588     
          10  0.50569437404509765     
          11  0.52016169373170651     
          12   6.0444123747772464E-002
          13   4.3196225309472246E-006
          14 -0.20766363257496634     
          15   1.7974016350860839E-003
          16  -2.5258582413931665E-003
          17   3.8097806343003977E-002
          18 -0.33458336405384315     
          19 -0.25295282069391717     
          20  -3.0558054064379465E-002
Sym=    17a
Ene=   0.10726346474566717     
Spin= Alpha
Occup=     0.00000000
           1  0.12887739491271846     
           2  0.22658952044384312     
           3  0.24238452627243290     
           4   2.7765447751980050E-002
           5 -0.71042250399910267     
           6 -0.10164129568421754     
           7 -0.42367147092700097     
           8  -4.3832882691835939E-002
           9  0.71443145655778828     
          10  -9.5723913763465673E-002
          11  0.42744162916895384     
          12   4.1764269603655681E-002
          13  -1.9359992155204239E-003
          14 -0.82110441345545804     
          15   8.7590087171387811E-003
          16  -1.0167113503129535E-002
          17 -0.12998820973818664     
          18  0.22490416883832717     
          19 -0.24769153886284034     
          20  -2.2228744191015101E-002
Sym=    18a
Ene=   0.19076618682722118     
Spin= Alpha
Occup=     0.00000000
           1 -0.18445246969452983     
           2 -0.26221805201420689     
           3 -0.27026931796082132     
           4  -3.1281981523026837E-002
           5  0.68348520535721424     
           6  -5.2517096211408725E-003
           7  0.39127281466606229     
           8   3.9204632891982623E-002
           9  0.67897893218843886     
          10   1.1419079573559454E-002
          11  0.38833735237763128     
          12   3.9407655326075063E-002
          13 -0.70616634559389280     
          14   7.5421641666363832E-003
          15  0.74135515010478015     
          16   7.5986551194659635E-002
          17 -0.18370928589791219     
          18  0.25727279000902736     
          19 -0.27301832421093802     
          20  -2.4552108391588064E-002
Sym=    19a
Ene=   0.77781291305416278     
Spin= Alpha
Occup=     0.00000000
           1  0.57426688950729232     
           2  0.60140612886154954     
           3  0.21090682218270621     
           4   3.0636191711688118E-002
           5 -0.38838653564386277     
           6  0.68956851597618785     
           7  0.50093226571912097     
           8   6.1228164466184280E-002
           9 -0.39088023283667017     
          10 -0.69575764382782812     
          11  0.51787563526151126     
          12   4.4035857109015211E-002
          13 -0.55010161772960953     
          14   1.2432034319038148E-003
          15  0.47525812485135388     
          16   4.8223555427253734E-002
          17  0.58262160465547619     
          18 -0.60662969039459469     
          19  0.22455451426594500     
          20   1.5496322661336773E-002
Sym=    20a
Ene=   0.85398876871878004     
Spin= Alpha
Occup=     0.00000000
           1 -0.62610614045995461     
           2 -0.60501335713681292     
           3 -0.27047960181888298     
           4  -3.6821896314372042E-002
           5  0.20621502637663741     
           6 -0.95210373930497849     
           7 -0.41371609663859443     
           8  -5.6013496426576076E-002
           9 -0.20033618840073733     
          10 -0.93653488313704925     
          11  0.42190211181896931     
          12   3.1219544029958638E-002
          13   3.8602198735991195E-003
          14 -0.27270343868722885     
          15  -1.1108203196296940E-003
          16  -3.7111603441350887E-003
          17  0.61760819466308792     
          18 -0.59264731529215398     
          19  0.27706859235536729     
          20   2.1029331458975557E-002
