5
 energy: -10.889217757118 gnorm: 0.285101523984 xtb: 6.2.2 (9d81278992624c895f80dd42a50cac0aa55982e2)
C        -1.40595600000000   -0.77330100000000   -0.44881400000000
C        -0.74455200000000    0.18918600000000    0.53098000000000
C         0.73376800000000    0.17721100000000    0.54979100000000
N         0.01253000000000    1.20297500000000   -0.21890800000000
C         1.40421000000000   -0.79607100000000   -0.41304900000000
5
 energy: -10.977039626974 gnorm: 0.200721971318 xtb: 6.2.2 (9d81278992624c895f80dd42a50cac0aa55982e2)
C        -1.43428043052616   -0.74359151672936   -0.37752417101940
C        -0.74593401651743    0.15399951861563    0.42365575030009
C         0.73730966818504    0.14198263823703    0.44252764721866
N         0.01171430913374    1.21441981350940   -0.14760438687748
C         1.43119046972482   -0.76681045363271   -0.34105483962188
5
 energy: -11.020278585632 gnorm: 0.254229367140 xtb: 6.2.2 (9d81278992624c895f80dd42a50cac0aa55982e2)
C        -1.48369527440416   -0.70711553856537   -0.27205692873948
C        -0.77151455010503    0.11493217054769    0.25329484694626
C         0.76658161358477    0.10247061718677    0.27286603347403
N         0.01013982478012    1.22082903301071   -0.01974757755720
C         1.47848838614430   -0.73111628217981   -0.23435637412362
5
 energy: -11.050337115137 gnorm: 0.091708381436 xtb: 6.2.2 (9d81278992624c895f80dd42a50cac0aa55982e2)
C        -1.68094613713879   -0.72344587903662   -0.24866672491793
C        -0.77004409439711    0.11761273999488    0.19710566347987
C         0.76658431528437    0.10516374642200    0.21665713679597
N         0.00961448739112    1.25130704828658    0.04086131969093
C         1.67479142886040   -0.75063765566684   -0.20595739504884
5
 energy: -11.058981722179 gnorm: 0.083217145965 xtb: 6.2.2 (9d81278992624c895f80dd42a50cac0aa55982e2)
C        -1.78296865410788   -0.65906768432076   -0.21981114963408
C        -0.77626671079702    0.09735580888039    0.16657890585634
C         0.77325622217255    0.08480277938729    0.18629598564814
N         0.00890662690538    1.16482171057574    0.04143624497670
C         1.77707251582696   -0.68791261452266   -0.17449998684710
5
 energy: -11.066131520940 gnorm: 0.021259242260 xtb: 6.2.2 (9d81278992624c895f80dd42a50cac0aa55982e2)
C        -1.80986583795551   -0.64650979413287   -0.18002426378053
C        -0.78962691573870    0.08723929806133    0.09838144632967
C         0.78817650647390    0.07445338840482    0.11845921255088
N         0.00816441140586    1.16059994082150    0.09722613096913
C         1.80315183581444   -0.67578283315478   -0.13404252606916
5
 energy: -11.068100391149 gnorm: 0.045140452669 xtb: 6.2.2 (9d81278992624c895f80dd42a50cac0aa55982e2)
C        -1.89906186000814   -0.60734699586347   -0.13412745728982
C        -0.79658836147870    0.06219548573368    0.03330508198823
C         0.79638648850731    0.04928777511390    0.05358002489504
N         0.00749459939904    1.13391958043433    0.13312558761160
C         1.89176913358048   -0.63805584541844   -0.08588323720505
5
 energy: -11.070043594484 gnorm: 0.014536121517 xtb: 6.2.2 (9d81278992624c895f80dd42a50cac0aa55982e2)
C        -1.89957110179124   -0.58153823566472   -0.11426221860629
C        -0.79833406899875    0.05417495836277    0.00589744093564
C         0.79869783010577    0.04123546510867    0.02621953120045
N         0.00701233857908    1.09838838879930    0.14815020773399
C         1.89219500210513   -0.61226057660602   -0.06600496126380
5
 energy: -11.070441380007 gnorm: 0.014057527991 xtb: 6.2.2 (9d81278992624c895f80dd42a50cac0aa55982e2)
C        -1.92589971518374   -0.56160728918379   -0.09400810646409
C        -0.79828532470863    0.04126894843627   -0.02052403695685
C         0.79911354076833    0.02832760003987   -0.00019274974004
N         0.00675704295087    1.08476016341618    0.15980920581409
C         1.91831445617316   -0.59274942270854   -0.04508431265312
5
 energy: -11.070636426942 gnorm: 0.008575132609 xtb: 6.2.2 (9d81278992624c895f80dd42a50cac0aa55982e2)
C        -1.93068583412300   -0.55134216083200   -0.08559538283035
C        -0.79567232691801    0.03345035655241   -0.02907151778944
C         0.79658861688421    0.02054877262090   -0.00881603722568
N         0.00670780017192    1.07991654863279    0.16003160084320
C         1.92306174398487   -0.58257351697411   -0.03654866299773
5
 energy: -11.070857521436 gnorm: 0.006943265608 xtb: 6.2.2 (9d81278992624c895f80dd42a50cac0aa55982e2)
C        -1.93818836972663   -0.53289942298205   -0.07737629177151
C        -0.78922933175196    0.01918931077660   -0.03082180226882
C         0.78999450480412    0.00641187506948   -0.01065837161408
N         0.00685462546462    1.07146751939152    0.14700344816630
C         1.93056857120985   -0.56416928225555   -0.02814698251190
5
 energy: -11.070935081018 gnorm: 0.003690882090 xtb: 6.2.2 (9d81278992624c895f80dd42a50cac0aa55982e2)
C        -1.93838821182142   -0.52733483869843   -0.07745226906374
C        -0.78603489565113    0.01288464931177   -0.02462774547705
C         0.78633613004674    0.00002730885206   -0.00494423793338
N         0.00676767748826    1.07346650331350    0.13521157200106
C         1.93131929993753   -0.55904362277889   -0.02818731952689
5
 energy: -11.070972354259 gnorm: 0.005965486633 xtb: 6.2.2 (9d81278992624c895f80dd42a50cac0aa55982e2)
C        -1.94595953273056   -0.52092833361993   -0.07829124791537
C        -0.78375904914845    0.00565509085271   -0.01756533523943
C         0.78500161701666   -0.00630407960550    0.00404186822158
N         0.00815367568236    1.07219780298576    0.12066380108672
C         1.93656328917999   -0.55062048061303   -0.02884908615350
5
 energy: -11.070956573023 gnorm: 0.009722246493 xtb: 6.2.2 (9d81278992624c895f80dd42a50cac0aa55982e2)
C        -1.94619143458051   -0.51583401808456   -0.08139007581852
C        -0.78623003840795    0.00437539333866   -0.00633635030222
C         0.78366190952468   -0.01023493043675    0.01056125031044
N         0.00551765668417    1.07225713908553    0.10940763012148
C         1.94324190677959   -0.55056358390288   -0.03224245431119
5
 energy: -11.071004434138 gnorm: 0.001456436181 xtb: 6.2.2 (9d81278992624c895f80dd42a50cac0aa55982e2)
C        -1.94397231270018   -0.52241613198076   -0.08321977238833
C        -0.78694042997384    0.00771731315022   -0.00892911613294
C         0.78701507449238   -0.00490886735809    0.01078017991023
N         0.00698235018175    1.07384001020007    0.11501472866410
C         1.93691531799988   -0.55423232401144   -0.03364602005307
5
 energy: -11.071012693828 gnorm: 0.003453944387 xtb: 6.2.2 (9d81278992624c895f80dd42a50cac0aa55982e2)
C        -1.94958710838880   -0.51863361303591   -0.08032043625571
C        -0.78836593828499    0.00586773736049   -0.01265451444560
C         0.78861478991412   -0.00674319769266    0.00779654331884
N         0.00748575660403    1.06920075279758    0.11599529889938
C         1.94185250015563   -0.54969167942950   -0.03081689151691
5
 energy: -11.071019228962 gnorm: 0.001958157424 xtb: 6.2.2 (9d81278992624c895f80dd42a50cac0aa55982e2)
C        -1.95147606722575   -0.51669821244220   -0.08035388287799
C        -0.78967697446468    0.00476551447159   -0.01133363332181
C         0.78977715095949   -0.00794633325806    0.00902109155113
N         0.00743134037440    1.06779845123280    0.11347764908236
C         1.94394455035653   -0.54791942000414   -0.03081122443370
5
 energy: -11.071021777685 gnorm: 0.000881272132 xtb: 6.2.2 (9d81278992624c895f80dd42a50cac0aa55982e2)
C        -1.95502335981401   -0.51218764415623   -0.07974033709805
C        -0.79187307444277    0.00231548203904   -0.00975222191448
C         0.79176015988161   -0.01054209910324    0.01017366243465
N         0.00708399687994    1.06444870478140    0.10931681634254
C         1.94805227749523   -0.54403444356099   -0.02999791976466
