      -----------------------------------------------------------      
     |                   =====================                   |     
     |                           x T B                           |     
     |                   =====================                   |     
     |                         S. Grimme                         |     
     |          Mulliken Center for Theoretical Chemistry        |     
     |                    University of Bonn                     |     
      -----------------------------------------------------------      

   * xtb version 6.2.2 (9d81278992624c895f80dd42a50cac0aa55982e2) compiled by '@Darwin' on 04/03/2020

   xtb is free software: you can redistribute it and/or modify it under
   the terms of the GNU Lesser General Public License as published by
   the Free Software Foundation, either version 3 of the License, or
   (at your option) any later version.
   
   xtb is distributed in the hope that it will be useful,
   but WITHOUT ANY WARRANTY; without even the implied warranty of
   MERCHANTABILITY or FITNESS FOR A PARTICULAR PURPOSE.  See the
   GNU Lesser General Public License for more details.
   
   Cite this work as:
   * S. Grimme, C. Bannwarth, P. Shushkov, J. Chem. Theory Comput., 2017,
     13, 1989-2009. DOI: 10.1021/acs.jctc.7b00118
   * C. Bannwarth, S. Ehlert and S. Grimme., J. Chem. Theory Comput., 2019,
     15, 1652-1671. DOI: 10.1021/acs.jctc.8b01176
   * P. Pracht, E. Caldeweyher, S. Ehlert, S. Grimme, ChemRxiv, 2019, preprint.
     DOI: 10.26434/chemrxiv.8326202.v1
   
   for DFT-D4:
   * E. Caldeweyher, C. Bannwarth and S. Grimme, J. Chem. Phys., 2017,
     147, 034112. DOI: 10.1063/1.4993215
   * E. Caldeweyher, S. Ehlert, A. Hansen, H. Neugebauer, S. Spicher,
     C. Bannwarth and S. Grimme, J. Chem. Phys., 2019, 150, 154122.
     DOI: 10.1063/1.5090222
   
   for sTDA-xTB:
   * S. Grimme and C. Bannwarth, J. Chem. Phys., 2016, 145, 054103.
     DOI: 10.1063/1.4959605
   
   in the mass-spec context:
   * V. Asgeirsson, C. Bauer and S. Grimme, Chem. Sci., 2017, 8, 4879.
     DOI: 10.1039/c7sc00601b
   
   for metadynamics refer to:
   * S. Grimme, J. Chem. Theory Comput., 2019, 155, 2847-2862
     DOI: 10.1021/acs.jctc.9b00143
   
   with help from (in alphabetical order)
   C. Bannwarth, F. Bohle, G. Brandenburg, E. Caldeweyher, M. Checinski,
   S. Dohm, S. Ehlert, S. Ehrlich, F. März, H. Neugebauer, J. Pisarek,
   P. Pracht, P. Shushkov, and S. Spicher.
   
 * started run on 2020/05/12 at 11:44:23.654     

           -------------------------------------------------
          |                Calculation Setup                |
           -------------------------------------------------

          program call               : xtb --input C4N1_56_S_3.input C4N1_56_S_3.xyz --ohess --molden --namespace C4N1_56_S_3 output.out
          calculation namespace      : C4N1_56_S_3
          coordinate file            : C4N1_56_S_3.xyz
          number of atoms            :                     5
          number of electrons        :                    21
          charge                     :                     0
          spin                       :                   1.5
          first test random number   :      0.87755890999574

   ID    Z sym.   atoms
    1    6 C      1, 3-5
    2    7 N      2

           -------------------------------------------------
          |                 G F N 2 - x T B                 |
           -------------------------------------------------

        Reference                      10.1021/acs.jctc.8b01176
      * Hamiltonian:
        H0-scaling (s, p, d)           1.850000    2.230000    2.230000
        zeta-weighting                 0.500000
      * Dispersion:
        s8                             2.700000
        a1                             0.520000
        a2                             5.000000
        s9                             5.000000
      * Repulsion:
        kExp                           1.500000    1.000000
        rExp                           1.000000
      * Coulomb:
        alpha                          2.000000
        third order                    shell-resolved
        anisotropic                    true
        a3                             3.000000
        a5                             4.000000
        cn-shift                       1.200000
        cn-exp                         4.000000
        max-rad                        5.000000


          ...................................................
          :                      SETUP                      :
          :.................................................:
          :  # basis functions                  20          :
          :  # atomic orbitals                  20          :
          :  # shells                           10          :
          :  # electrons                        21          :
          :  max. iterations                   250          :
          :  Hamiltonian                  GFN2-xTB          :
          :  restarted?                      false          :
          :  GBSA solvation                  false          :
          :  PC potential                    false          :
          :  electronic temp.          300.0000000     K    :
          :  accuracy                    1.0000000          :
          :  -> integral cutoff          0.2500000E+02      :
          :  -> integral neglect         0.1000000E-07      :
          :  -> SCF convergence          0.1000000E-05 Eh   :
          :  -> wf. convergence          0.1000000E-03 e    :
          :  Broyden damping             0.4000000          :
          ...................................................

 iter      E             dE          RMSdq      gap      omega  full diag
   1    -10.9859110 -0.109859E+02  0.691E+00    0.07       0.0  T
   2    -10.9941425 -0.823148E-02  0.453E+00    0.12       1.0  T
   3    -10.9922286  0.191388E-02  0.148E+00    0.03       1.0  T
   4    -10.9959414 -0.371280E-02  0.378E-01    0.07       1.0  T
   5    -10.9959673 -0.258154E-04  0.252E-01    0.07       1.0  T
   6    -10.9960235 -0.562440E-04  0.712E-02    0.07       1.0  T
   7    -10.9959809  0.426365E-04  0.946E-02    0.07       1.0  T
   8    -10.9960405 -0.596149E-04  0.163E-02    0.07       2.7  T
   9    -10.9960396  0.935195E-06  0.169E-02    0.07       2.6  T
  10    -10.9960417 -0.213317E-05  0.387E-03    0.07      11.6  T
  11    -10.9960417 -0.385274E-08  0.110E-03    0.07      40.5  T
  12    -10.9960417 -0.273169E-08  0.136E-04    0.07     328.9  T
  13    -10.9960417 -0.646594E-12  0.463E-05    0.07     965.2  T

   *** convergence criteria satisfied after 13 iterations ***

         #    Occupation            Energy/Eh            Energy/eV
      -------------------------------------------------------------
         1        2.0000           -0.7925374             -21.5660
       ...           ...                  ...                  ...
         6        2.0000           -0.5183007             -14.1037
         7        2.0000           -0.4973797             -13.5344
         8        2.0000           -0.4924759             -13.4010
         9        2.0000           -0.4828952             -13.1402
        10        1.0000           -0.4615615             -12.5597
        11        1.0000           -0.4353857             -11.8474
        12        0.8011           -0.2775000              -7.5512 (HOMO)
        13        0.1989           -0.2748526              -7.4791 (LUMO)
        14                         -0.1603934              -4.3645
        15                         -0.0516046              -1.4042
        16                         -0.0230820              -0.6281
        17                          0.0333478               0.9074
       ...                                ...                  ...
        20                          0.3219272               8.7601
      -------------------------------------------------------------
                  HL-Gap            0.0026473 Eh            0.0720 eV
             Fermi-level           -0.3742023 Eh          -10.1826 eV

 SCC (total)                   0 d,  0 h,  0 min,  0.004 sec
 SCC setup                      ...        0 min,  0.000 sec (  1.641%)
 Dispersion                     ...        0 min,  0.000 sec (  0.407%)
 integral evaluation            ...        0 min,  0.001 sec ( 29.844%)
 zeroth order Hamiltonian       ...        0 min,  0.000 sec (  0.440%)
 iterations                     ...        0 min,  0.001 sec ( 33.924%)
 molecular gradient             ...        0 min,  0.001 sec ( 32.337%)
 printout                       ...        0 min,  0.000 sec (  1.190%)

         :::::::::::::::::::::::::::::::::::::::::::::::::::::
         ::                     SUMMARY                     ::
         :::::::::::::::::::::::::::::::::::::::::::::::::::::
         :: total energy             -10.857569095229 Eh    ::
         :: gradient norm              0.194071895714 Eh/a0 ::
         :: HOMO-LUMO gap              0.072038019020 eV    ::
         ::.................................................::
         :: SCC energy               -10.996041690847 Eh    ::
         :: -> isotropic ES            0.001006537353 Eh    ::
         :: -> anisotropic ES          0.004910784561 Eh    ::
         :: -> anisotropic XC          0.008117838458 Eh    ::
         :: -> dispersion             -0.002478341108 Eh    ::
         :: repulsion energy           0.138472585643 Eh    ::
         :: add. restraining           0.000000000000 Eh    ::
         :::::::::::::::::::::::::::::::::::::::::::::::::::::

      ----------------------------------------------------------- 
     |                   =====================                   |
     |                        A N C O P T                        |
     |                   =====================                   |
     |               Approximate Normal Coordinate               |
     |                Rational Function Optimizer                |
      ----------------------------------------------------------- 

          ...................................................
          :                      SETUP                      :
          :.................................................:
          :   optimization level            normal          :
          :   max. optcycles                   200          :
          :   ANC micro-cycles                  20          :
          :   degrees of freedom                 9          :
          :.................................................:
          :   RF solver                   davidson          :
          :   write xtbopt.log                true          :
          :   linear?                        false          :
          :   energy convergence         0.5000000E-05 Eh   :
          :   grad. convergence          0.1000000E-02 Eh/α :
          :   maximium RF displ.         1.0000000          :
          :   Hlow (freq-cutoff)         0.1000000E-01      :
          :   Hmax (freq-cutoff)         5.0000000          :
          :   S6 in model hess.         20.0000000          :
          ...................................................

generating ANC from model Hessian ...
Using Lindh-Hessian (1995)
 Shifting diagonal of input Hessian by    0.0000000000000000     
 Lowest  eigenvalues of input Hessian
   -0.000000   -0.000000   -0.000000    0.000000    0.000000    0.000000
    0.468166    0.486396    0.930949    1.028097    1.099101    1.223099
    1.241501    1.687672    1.983071
 Highest eigenvalues
    1.028097    1.099101    1.223099    1.241501    1.687672    1.983071


........................................................................
.............................. CYCLE    1 ..............................
........................................................................
   1    -10.9960417 -0.109960E+02  0.878E-06    0.07       0.0  T
   2    -10.9960417 -0.355271E-14  0.668E-06    0.07    6690.9  T
   3    -10.9960417  0.426326E-13  0.532E-06    0.07    8409.7  T
     SCC iter.                  ...        0 min,  0.000 sec
     gradient                   ...        0 min,  0.001 sec
 * total energy  :   -10.8575691 Eh     change        0.2349889E-09 Eh
   gradient norm :     0.1940721 Eh/α   predicted     0.0000000E+00 (-100.00%)
   displ. norm   :     0.1028437 α      lambda       -0.1966074E-01
   maximum displ.:     0.0937013 α      in ANC's #9, #7, #3, ...

........................................................................
.............................. CYCLE    2 ..............................
........................................................................
   1    -10.9846268 -0.109846E+02  0.763E-01    0.12       0.0  T
   2    -10.9846735 -0.467182E-04  0.448E-01    0.12       1.0  T
   3    -10.9846197  0.538384E-04  0.122E-01    0.11       1.0  T
   4    -10.9846878 -0.680877E-04  0.459E-02    0.12       1.0  T
   5    -10.9846883 -0.582565E-06  0.309E-02    0.12       1.4  T
   6    -10.9846879  0.396869E-06  0.288E-02    0.12       1.6  T
   7    -10.9846918 -0.385482E-05  0.186E-03    0.12      24.1  T
   8    -10.9846918  0.444911E-07  0.220E-03    0.12      20.3  T
   9    -10.9846918 -0.480150E-07  0.546E-04    0.12      81.9  T
  10    -10.9846918 -0.155472E-08  0.105E-04    0.12     427.3  T
     SCC iter.                  ...        0 min,  0.001 sec
     gradient                   ...        0 min,  0.001 sec
 * total energy  :   -10.8724487 Eh     change       -0.1487958E-01 Eh
   gradient norm :     0.1046619 Eh/α   predicted    -0.9934350E-02 ( -33.24%)
   displ. norm   :     0.1694356 α      lambda       -0.1672958E-01
   maximum displ.:     0.1218524 α      in ANC's #9, #3, #2, ...

........................................................................
.............................. CYCLE    3 ..............................
........................................................................
   1    -10.9774184 -0.109774E+02  0.134E+00    0.36       0.0  T
   2    -10.9774528 -0.344524E-04  0.792E-01    0.37       1.0  T
   3    -10.9768092  0.643680E-03  0.320E-01    0.36       1.0  T
   4    -10.9775053 -0.696148E-03  0.837E-02    0.37       1.0  T
   5    -10.9774978  0.750474E-05  0.723E-02    0.37       1.0  T
   6    -10.9775186 -0.207786E-04  0.347E-02    0.37       1.3  T
   7    -10.9775237 -0.506942E-05  0.370E-03    0.37      12.1  T
   8    -10.9775237 -0.119332E-07  0.182E-03    0.37      24.6  T
   9    -10.9775236  0.541584E-07  0.241E-03    0.37      18.5  T
  10    -10.9775237 -0.614119E-07  0.225E-04    0.37     198.6  T
  11    -10.9775237 -0.291713E-10  0.351E-05    0.37    1274.8  T
     SCC iter.                  ...        0 min,  0.001 sec
     gradient                   ...        0 min,  0.001 sec
 * total energy  :   -10.8855823 Eh     change       -0.1313366E-01 Eh
   gradient norm :     0.0727037 Eh/α   predicted    -0.8604925E-02 ( -34.48%)
   displ. norm   :     0.4491182 α      lambda       -0.3055147E-01
   maximum displ.:     0.2677088 α      in ANC's #3, #2, #9, ...

........................................................................
.............................. CYCLE    4 ..............................
........................................................................
   1    -10.9636687 -0.109637E+02  0.368E+00    1.65       0.0  T
   2    -10.9136405  0.500283E-01  0.353E+00    1.62       1.0  T
   3    -10.9768880 -0.632476E-01  0.195E+00    1.65       1.0  T
   4    -10.9888561 -0.119680E-01  0.390E-01    1.62       1.0  T
   5    -10.9892450 -0.388901E-03  0.176E-01    1.62       1.0  T
   6    -10.9892135  0.314309E-04  0.856E-02    1.62       1.0  T
   7    -10.9892725 -0.590065E-04  0.172E-02    1.63       2.6  T
   8    -10.9892725  0.494646E-07  0.154E-02    1.62       2.9  T
   9    -10.9892734 -0.867755E-06  0.268E-03    1.62      16.7  T
  10    -10.9892734 -0.263238E-07  0.113E-03    1.62      39.5  T
  11    -10.9892734  0.607763E-10  0.886E-04    1.62      50.5  T
  12    -10.9892734 -0.428234E-08  0.205E-04    1.62     218.6  T
     SCC iter.                  ...        0 min,  0.001 sec
     gradient                   ...        0 min,  0.001 sec
 * total energy  :   -10.9176719 Eh     change       -0.3208956E-01 Eh
   gradient norm :     0.1496149 Eh/α   predicted    -0.1835697E-01 ( -42.79%)
   displ. norm   :     0.8271707 α      lambda       -0.5483846E-01
   maximum displ.:     0.5140961 α      in ANC's #3, #2, #9, ...

........................................................................
.............................. CYCLE    5 ..............................
........................................................................
   1    -10.9291974 -0.109292E+02  0.329E+00    1.39       0.0  T
   2    -10.9086626  0.205348E-01  0.240E+00    1.83       1.0  T
   3    -10.8956300  0.130326E-01  0.274E+00    1.26       1.0  T
   4    -10.9325644 -0.369344E-01  0.114E+00    1.50       1.0  T
   5    -10.9363703 -0.380586E-02  0.472E-01    1.59       1.0  T
   6    -10.9361853  0.184946E-03  0.547E-01    1.58       1.0  T
   7    -10.9359495  0.235829E-03  0.279E-01    1.62       1.0  T
   8    -10.9366898 -0.740322E-03  0.329E-02    1.63       1.4  T
   9    -10.9366910 -0.114983E-05  0.168E-02    1.63       2.7  T
  10    -10.9366921 -0.115955E-05  0.482E-03    1.63       9.3  T
  11    -10.9366922 -0.889013E-07  0.644E-04    1.63      69.4  T
  12    -10.9366922 -0.172431E-10  0.229E-04    1.63     195.6  T
     SCC iter.                  ...        0 min,  0.001 sec
     gradient                   ...        0 min,  0.001 sec
 * total energy  :   -10.8910675 Eh     change        0.2660436E-01 Eh
   gradient norm :     0.2232212 Eh/α   predicted    -0.4617976E-01 (-273.58%)
   displ. norm   :     0.4203810 α      lambda       -0.6267890E-01
   maximum displ.:     0.2418865 α      in ANC's #2, #3, #9, ...

........................................................................
.............................. CYCLE    6 ..............................
........................................................................
   1    -10.9984190 -0.109984E+02  0.167E+00    2.47       0.0  T
   2    -10.9987246 -0.305540E-03  0.109E+00    2.32       1.0  T
   3    -10.9959519  0.277271E-02  0.939E-01    2.45       1.0  T
   4    -10.9953164  0.635497E-03  0.944E-01    2.39       1.0  T
   5    -11.0003011 -0.498475E-02  0.142E-01    2.38       1.0  T
   6    -11.0002908  0.102717E-04  0.651E-02    2.38       1.0  T
   7    -11.0002955 -0.471694E-05  0.358E-02    2.38       1.2  T
   8    -11.0003060 -0.104410E-04  0.756E-03    2.38       5.9  T
   9    -11.0003060 -0.315735E-07  0.151E-03    2.38      29.7  T
  10    -11.0003060 -0.719651E-08  0.457E-04    2.38      97.8  T
  11    -11.0003060 -0.182125E-09  0.170E-04    2.38     263.3  T
     SCC iter.                  ...        0 min,  0.001 sec
     gradient                   ...        0 min,  0.003 sec
 * total energy  :   -10.9335673 Eh     change       -0.4249979E-01 Eh
   gradient norm :     0.1475417 Eh/α   predicted    -0.3687778E-01 ( -13.23%)
   displ. norm   :     0.1784889 α      lambda       -0.1529539E-01
   maximum displ.:     0.1359162 α      in ANC's #9, #2, #3, ...

........................................................................
.............................. CYCLE    7 ..............................
........................................................................
   1    -11.0267688 -0.110268E+02  0.918E-01    2.42       0.0  T
   2    -11.0271667 -0.397900E-03  0.548E-01    2.33       1.0  T
   3    -11.0272969 -0.130168E-03  0.366E-01    2.39       1.0  T
   4    -11.0270019  0.295039E-03  0.273E-01    2.38       1.0  T
   5    -11.0274566 -0.454741E-03  0.936E-02    2.37       1.0  T
   6    -11.0274705 -0.138803E-04  0.252E-02    2.36       1.8  T
   7    -11.0274750 -0.449195E-05  0.983E-03    2.37       4.5  T
   8    -11.0274753 -0.368153E-06  0.362E-03    2.37      12.4  T
   9    -11.0274754 -0.151752E-07  0.531E-04    2.37      84.2  T
  10    -11.0274754 -0.346587E-09  0.120E-04    2.37     373.3  T
     SCC iter.                  ...        0 min,  0.001 sec
     gradient                   ...        0 min,  0.001 sec
 * total energy  :   -10.9429975 Eh     change       -0.9430156E-02 Eh
   gradient norm :     0.0952019 Eh/α   predicted    -0.7891330E-02 ( -16.32%)
   displ. norm   :     0.0725985 α      lambda       -0.6748310E-02
   maximum displ.:     0.0608135 α      in ANC's #9, #2, #7, ...

........................................................................
.............................. CYCLE    8 ..............................
........................................................................
   1    -11.0440683 -0.110441E+02  0.489E-01    2.71       0.0  T
   2    -11.0438511  0.217225E-03  0.391E-01    2.67       1.0  T
   3    -11.0436982  0.152906E-03  0.365E-01    2.70       1.0  T
   4    -11.0442728 -0.574610E-03  0.184E-01    2.70       1.0  T
   5    -11.0443946 -0.121827E-03  0.230E-02    2.69       1.9  T
   6    -11.0443946 -0.309505E-09  0.569E-03    2.69       7.9  T
   7    -11.0443946 -0.166821E-07  0.345E-03    2.70      13.0  T
   8    -11.0443947 -0.705873E-07  0.150E-03    2.69      29.9  T
   9    -11.0443947 -0.191216E-08  0.309E-04    2.69     145.0  T
  10    -11.0443947 -0.175913E-09  0.850E-05    2.69     526.0  T
     SCC iter.                  ...        0 min,  0.001 sec
     gradient                   ...        0 min,  0.001 sec
 * total energy  :   -10.9485527 Eh     change       -0.5555198E-02 Eh
   gradient norm :     0.0657573 Eh/α   predicted    -0.3391936E-02 ( -38.94%)
   displ. norm   :     0.2159117 α      lambda       -0.1406030E-01
   maximum displ.:     0.1651605 α      in ANC's #2, #9, #7, ...

........................................................................
.............................. CYCLE    9 ..............................
........................................................................
   1    -11.0705912 -0.110706E+02  0.119E+00    3.62       0.0  T
   2    -11.0700144  0.576860E-03  0.860E-01    3.59       1.0  T
   3    -11.0692295  0.784885E-03  0.801E-01    3.64       1.0  T
   4    -11.0713054 -0.207590E-02  0.482E-01    3.61       1.0  T
   5    -11.0721975 -0.892136E-03  0.394E-02    3.63       1.1  T
   6    -11.0721982 -0.677124E-06  0.199E-02    3.63       2.3  T
   7    -11.0721983 -0.817196E-07  0.106E-02    3.63       4.2  T
   8    -11.0721989 -0.642310E-06  0.455E-03    3.63       9.8  T
   9    -11.0721990 -0.564667E-07  0.349E-04    3.63     128.2  T
  10    -11.0721990 -0.188161E-09  0.145E-04    3.63     308.0  T
     SCC iter.                  ...        0 min,  0.001 sec
     gradient                   ...        0 min,  0.001 sec
 * total energy  :   -10.9572953 Eh     change       -0.8742653E-02 Eh
   gradient norm :     0.0485804 Eh/α   predicted    -0.7357884E-02 ( -15.84%)
   displ. norm   :     0.1412510 α      lambda       -0.4671534E-02
   maximum displ.:     0.1331889 α      in ANC's #2, #7, #9, ...

........................................................................
.............................. CYCLE   10 ..............................
........................................................................
   1    -11.0744750 -0.110745E+02  0.756E-01    4.05       0.0  T
   2    -11.0745078 -0.328581E-04  0.439E-01    4.05       1.0  T
   3    -11.0742950  0.212862E-03  0.359E-01    4.06       1.0  T
   4    -11.0746055 -0.310584E-03  0.950E-02    4.06       1.0  T
   5    -11.0746498 -0.442911E-04  0.242E-02    4.06       1.8  T
   6    -11.0746507 -0.898410E-06  0.104E-02    4.06       4.3  T
   7    -11.0746511 -0.321646E-06  0.322E-03    4.06      13.9  T
   8    -11.0746511 -0.617752E-07  0.139E-03    4.06      32.3  T
   9    -11.0746511 -0.531604E-08  0.127E-04    4.06     351.2  T
  10    -11.0746511 -0.413269E-10  0.396E-05    4.06    1128.3  T
     SCC iter.                  ...        0 min,  0.001 sec
     gradient                   ...        0 min,  0.001 sec
 * total energy  :   -10.9608589 Eh     change       -0.3563538E-02 Eh
   gradient norm :     0.0394089 Eh/α   predicted    -0.2382368E-02 ( -33.15%)
   displ. norm   :     0.1784957 α      lambda       -0.4453111E-02
   maximum displ.:     0.1637754 α      in ANC's #2, #3, #9, ...

........................................................................
.............................. CYCLE   11 ..............................
........................................................................
   1    -11.0706155 -0.110706E+02  0.112E+00    4.22       0.0  T
   2    -11.0702831  0.332329E-03  0.681E-01    4.19       1.0  T
   3    -11.0688173  0.146584E-02  0.761E-01    4.26       1.0  T
   4    -11.0706986 -0.188133E-02  0.237E-01    4.19       1.0  T
   5    -11.0710323 -0.333696E-03  0.344E-02    4.21       1.3  T
   6    -11.0710341 -0.179923E-05  0.161E-02    4.21       2.8  T
   7    -11.0710343 -0.161905E-06  0.345E-03    4.21      13.0  T
   8    -11.0710343 -0.144976E-08  0.201E-03    4.21      22.2  T
   9    -11.0710343 -0.222728E-07  0.425E-04    4.21     105.3  T
  10    -11.0710343 -0.191305E-09  0.246E-04    4.21     181.9  T
     SCC iter.                  ...        0 min,  0.001 sec
     gradient                   ...        0 min,  0.001 sec
 * total energy  :   -10.9634806 Eh     change       -0.2621763E-02 Eh
   gradient norm :     0.0194518 Eh/α   predicted    -0.2297494E-02 ( -12.37%)
   displ. norm   :     0.0416109 α      lambda       -0.5951611E-03
   maximum displ.:     0.0257994 α      in ANC's #3, #2, #7, ...

........................................................................
.............................. CYCLE   12 ..............................
........................................................................
   1    -11.0694704 -0.110695E+02  0.283E-01    4.26       0.0  T
   2    -11.0694422  0.281788E-04  0.195E-01    4.25       1.0  T
   3    -11.0693914  0.508850E-04  0.178E-01    4.27       1.0  T
   4    -11.0694667 -0.753703E-04  0.874E-02    4.25       1.0  T
   5    -11.0695123 -0.455272E-04  0.120E-02    4.26       3.7  T
   6    -11.0695124 -0.122885E-06  0.340E-03    4.26      13.2  T
   7    -11.0695124 -0.291049E-07  0.141E-03    4.26      31.8  T
   8    -11.0695124 -0.143235E-09  0.943E-04    4.26      47.4  T
   9    -11.0695124 -0.469656E-08  0.819E-05    4.26     546.3  T
     SCC iter.                  ...        0 min,  0.001 sec
     gradient                   ...        0 min,  0.001 sec
 * total energy  :   -10.9638893 Eh     change       -0.4087057E-03 Eh
   gradient norm :     0.0114397 Eh/α   predicted    -0.2980964E-03 ( -27.06%)
   displ. norm   :     0.0252625 α      lambda       -0.2396095E-03
   maximum displ.:     0.0215862 α      in ANC's #7, #3, #2, ...

........................................................................
.............................. CYCLE   13 ..............................
........................................................................
   1    -11.0692488 -0.110692E+02  0.217E-01    4.27       0.0  T
   2    -11.0692232  0.255958E-04  0.182E-01    4.28       1.0  T
   3    -11.0693365 -0.113271E-03  0.891E-02    4.27       1.0  T
   4    -11.0693095  0.270619E-04  0.785E-02    4.28       1.0  T
   5    -11.0693486 -0.391104E-04  0.117E-02    4.28       3.8  T
   6    -11.0693488 -0.253868E-06  0.386E-03    4.28      11.6  T
   7    -11.0693489 -0.358093E-07  0.970E-04    4.28      46.1  T
   8    -11.0693489 -0.130152E-08  0.215E-04    4.28     207.9  T
     SCC iter.                  ...        0 min,  0.001 sec
     gradient                   ...        0 min,  0.001 sec
 * total energy  :   -10.9640384 Eh     change       -0.1491036E-03 Eh
   gradient norm :     0.0069139 Eh/α   predicted    -0.1198815E-03 ( -19.60%)
   displ. norm   :     0.0116622 α      lambda       -0.5952447E-04
   maximum displ.:     0.0095825 α      in ANC's #7, #2, #9, ...

........................................................................
.............................. CYCLE   14 ..............................
........................................................................
   1    -11.0699310 -0.110699E+02  0.114E-01    4.29       0.0  T
   2    -11.0699280  0.296941E-05  0.918E-02    4.29       1.0  T
   3    -11.0699583 -0.302990E-04  0.414E-02    4.29       1.1  T
   4    -11.0699535  0.484266E-05  0.335E-02    4.29       1.3  T
   5    -11.0699604 -0.694749E-05  0.429E-03    4.29      10.4  T
   6    -11.0699604 -0.198043E-07  0.130E-03    4.29      34.5  T
   7    -11.0699604 -0.384286E-08  0.383E-04    4.29     116.9  T
   8    -11.0699604  0.747491E-11  0.264E-04    4.29     169.4  T
     SCC iter.                  ...        0 min,  0.001 sec
     gradient                   ...        0 min,  0.001 sec
 * total energy  :   -10.9640812 Eh     change       -0.4277130E-04 Eh
   gradient norm :     0.0043167 Eh/α   predicted    -0.2976610E-04 ( -30.41%)
   displ. norm   :     0.0109135 α      lambda       -0.3700071E-04
   maximum displ.:     0.0068641 α      in ANC's #2, #3, #7, ...

........................................................................
.............................. CYCLE   15 ..............................
........................................................................
   1    -11.0707779 -0.110708E+02  0.909E-02    4.32       0.0  T
   2    -11.0707779 -0.138300E-07  0.692E-02    4.32       1.0  T
   3    -11.0707945 -0.165384E-04  0.325E-02    4.32       1.4  T
   4    -11.0707954 -0.937400E-06  0.574E-03    4.32       7.8  T
   5    -11.0707954  0.335305E-07  0.609E-03    4.32       7.3  T
   6    -11.0707955 -0.162946E-06  0.102E-03    4.32      43.9  T
   7    -11.0707955 -0.221130E-08  0.379E-04    4.32     117.9  T
   8    -11.0707955 -0.343666E-09  0.213E-04    4.32     209.7  T
     SCC iter.                  ...        0 min,  0.001 sec
     gradient                   ...        0 min,  0.001 sec
 * total energy  :   -10.9641028 Eh     change       -0.2159360E-04 Eh
   gradient norm :     0.0012545 Eh/α   predicted    -0.1850187E-04 ( -14.32%)
   displ. norm   :     0.0044042 α      lambda       -0.3207719E-05
   maximum displ.:     0.0036247 α      in ANC's #3, #2, #7, ...

........................................................................
.............................. CYCLE   16 ..............................
........................................................................
   1    -11.0711314 -0.110711E+02  0.184E-02    4.32       0.0  T
   2    -11.0711310  0.400727E-06  0.132E-02    4.33       3.4  T
   3    -11.0711307  0.351967E-06  0.153E-02    4.32       2.9  T
   4    -11.0711316 -0.905913E-06  0.398E-03    4.33      11.2  T
   5    -11.0711316 -0.494159E-07  0.192E-03    4.33      23.2  T
   6    -11.0711316 -0.799050E-08  0.195E-04    4.33     229.4  T
   7    -11.0711316 -0.145697E-10  0.105E-04    4.33     426.9  T
     SCC iter.                  ...        0 min,  0.001 sec
     gradient                   ...        0 min,  0.001 sec
 * total energy  :   -10.9641046 Eh     change       -0.1760626E-05 Eh
   gradient norm :     0.0003738 Eh/α   predicted    -0.1602655E-05 (  -8.97%)
   displ. norm   :     0.0013154 α      lambda       -0.2565213E-06
   maximum displ.:     0.0009348 α      in ANC's #2, #3, #7, ...

   *** GEOMETRY OPTIMIZATION CONVERGED AFTER 16 ITERATIONS ***

------------------------------------------------------------------------
 total energy gain   :        -0.1065355 Eh      -66.8520 kcal/mol
 total RMSD          :         0.5444685 a0        0.2881 Å
 total power (kW/mol):       -17.4818041 (step)-4364.8649 (real)
------------------------------------------------------------------------

 ANCopt (total)                0 d,  0 h,  0 min,  0.064 sec
 optimizer setup                ...        0 min,  0.000 sec (  0.097%)
 model hessian                  ...        0 min,  0.000 sec (  0.148%)
 ANC generation                 ...        0 min,  0.000 sec (  0.074%)
 coordinate transformation      ...        0 min,  0.000 sec (  0.055%)
 single point calculation       ...        0 min,  0.063 sec ( 97.540%)
 optimization log               ...        0 min,  0.000 sec (  0.623%)
 hessian update                 ...        0 min,  0.000 sec (  0.058%)
 rational function              ...        0 min,  0.000 sec (  0.671%)

================
 final structure:
================
5
 xtb: 6.2.2 (9d81278992624c895f80dd42a50cac0aa55982e2)
C        -1.04654043204035   -0.15297638783729    0.08707145220759
N         0.04213081890200    0.78944877066774   -0.42703086667468
C         1.02545455570066   -0.24214197361457    0.12665545775590
C        -0.00672076858154    0.29628896297118    1.01921744721552
C        -0.01432317398077   -0.69061937218706   -0.80591249050433

 Bond Distances (Angstroems)
 ---------------------------
C1-N2=1.5289         C1-C4=1.4670         C1-C5=1.4670         N2-C1=1.5289         N2-C3=1.5289         N2-C4=1.5288         
N2-C5=1.5288         C3-N2=1.5289         C3-C4=1.4670         C3-C5=1.4670         C4-C1=1.4670         C4-N2=1.5288         
C4-C3=1.4670         C5-C1=1.4670         C5-N2=1.5288         C5-C3=1.4670         
 C  C  Rav=1.4670 sigma=0.0000  Rmin=1.4670  Rmax=1.4670     4
 N  C  Rav=1.5289 sigma=0.0001  Rmin=1.5288  Rmax=1.5289     4

 selected bond angles (degree)
 --------------------
C4-C1-N2= 61.33                C5-C1-N2= 61.33                C5-C1-C4= 90.02                C3-N2-C1= 85.43                
C4-N2-C1= 57.34                C4-N2-C3= 57.34                C5-N2-C1= 57.34                C5-N2-C3= 57.34                
C5-N2-C4= 85.47                C4-C3-N2= 61.33                C5-C3-N2= 61.33                C5-C3-C4= 90.02                
N2-C4-C1= 61.34                C3-C4-C1= 89.98                C3-C4-N2= 61.34                N2-C5-C1= 61.33                
C3-C5-C1= 89.98                C3-C5-N2= 61.34                

 selected dihedral angles (degree)
 ---------------------------------
C3-N2-C1-C4= 53.71            C3-N2-C1-C5=306.29            C4-N2-C1-C5=252.58            C5-N2-C1-C4=107.42            
C4-C3-N2-C1=306.29            C4-C3-N2-C5=252.58            C5-C3-N2-C1= 53.71            C5-C3-N2-C4=107.42            
N2-C4-C1-C5= 56.84            C3-C4-C1-N2=303.13            C3-C4-C1-C5=359.97            C1-C4-N2-C3=252.63            
C1-C4-N2-C5=306.32            C3-C4-N2-C1=107.37            C3-C4-N2-C5= 53.68            C1-C4-C3-N2= 56.87            
C1-C4-C3-C5=  0.03            N2-C4-C3-C5=303.16            N2-C5-C1-C4=303.16            C3-C5-C1-N2= 56.87            
C3-C5-C1-C4=  0.03            C1-C5-N2-C3=107.37            C1-C5-N2-C4= 53.68            C3-C5-N2-C1=252.63            
C3-C5-N2-C4=306.32            C1-C5-C3-N2=303.13            C1-C5-C3-C4=359.97            N2-C5-C3-C4= 56.84            
           -------------------------------------------------
          |                Final Singlepoint                |
           -------------------------------------------------

          ...................................................
          :                      SETUP                      :
          :.................................................:
          :  # basis functions                  20          :
          :  # atomic orbitals                  20          :
          :  # shells                           10          :
          :  # electrons                        21          :
          :  max. iterations                   250          :
          :  Hamiltonian                  GFN2-xTB          :
          :  restarted?                      false          :
          :  GBSA solvation                  false          :
          :  PC potential                    false          :
          :  electronic temp.          300.0000000     K    :
          :  accuracy                    1.0000000          :
          :  -> integral cutoff          0.2500000E+02      :
          :  -> integral neglect         0.1000000E-07      :
          :  -> SCF convergence          0.1000000E-05 Eh   :
          :  -> wf. convergence          0.1000000E-03 e    :
          :  Broyden damping             0.4000000          :
          ...................................................

 iter      E             dE          RMSdq      gap      omega  full diag
   1    -11.0711316 -0.110711E+02  0.350E-05    4.33       0.0  T
   2    -11.0711316 -0.888178E-14  0.184E-05    4.33    2434.4  T
   3    -11.0711316  0.929035E-12  0.175E-05    4.33    2551.9  T

   *** convergence criteria satisfied after 3 iterations ***

         #    Occupation            Energy/Eh            Energy/eV
      -------------------------------------------------------------
         1        2.0000           -0.7834280             -21.3182
       ...           ...                  ...                  ...
         6        2.0000           -0.5144561             -13.9991
         7        2.0000           -0.5144071             -13.9977
         8        2.0000           -0.4968838             -13.5209
         9        1.9998           -0.4923175             -13.3966
        10        1.0003           -0.4765632             -12.9679
        11        1.0000           -0.3929202             -10.6919
        12        1.0000           -0.3927982             -10.6886 (HOMO)
        13                         -0.2338479              -6.3633 (LUMO)
        14                         -0.1811460              -4.9292
        15                         -0.1809194              -4.9231
        16                         -0.0606039              -1.6491
        17                          0.0940594               2.5595
       ...                                ...                  ...
        20                          0.3869538              10.5295
      -------------------------------------------------------------
                  HL-Gap            0.1589503 Eh            4.3253 eV
             Fermi-level           -0.3988798 Eh          -10.8541 eV

 SCC (total)                   0 d,  0 h,  0 min,  0.003 sec
 SCC setup                      ...        0 min,  0.000 sec (  1.338%)
 Dispersion                     ...        0 min,  0.000 sec (  0.290%)
 integral evaluation            ...        0 min,  0.001 sec ( 40.178%)
 zeroth order Hamiltonian       ...        0 min,  0.000 sec (  0.498%)
 iterations                     ...        0 min,  0.000 sec ( 11.877%)
 molecular gradient             ...        0 min,  0.001 sec ( 43.449%)
 printout                       ...        0 min,  0.000 sec (  2.088%)

         :::::::::::::::::::::::::::::::::::::::::::::::::::::
         ::                     SUMMARY                     ::
         :::::::::::::::::::::::::::::::::::::::::::::::::::::
         :: total energy             -10.964104575649 Eh    ::
         :: gradient norm              0.000374074012 Eh/a0 ::
         :: HOMO-LUMO gap              4.325258276099 eV    ::
         ::.................................................::
         :: SCC energy               -11.071131616641 Eh    ::
         :: -> isotropic ES           -0.003697982776 Eh    ::
         :: -> anisotropic ES          0.004387802397 Eh    ::
         :: -> anisotropic XC          0.005669883765 Eh    ::
         :: -> dispersion             -0.002746748261 Eh    ::
         :: repulsion energy           0.107027022126 Eh    ::
         :: add. restraining           0.000000000000 Eh    ::
         :::::::::::::::::::::::::::::::::::::::::::::::::::::

           ------------------------------------------------- 
          |                Numerical Hessian                |
           ------------------------------------------------- 
step length          :   0.00500
SCC accuracy         :   0.30000
Hessian scale factor :   1.00000
frozen atoms in %    :   0.00000    0
RMS gradient         :   0.00037
estimated CPU  time      0.00 min
estimated wall time      0.00 min

writing file <hessian>.

 projected vibrational frequencies (cm-1)
eigval :       -0.00    -0.00    -0.00    -0.00     0.00     0.00
eigval :      451.35   548.78   549.07   803.89   844.03  1019.77
eigval :     1167.10  1167.46  1368.85
           -------------------------------------------------
          |                Property Printout                |
           -------------------------------------------------

    * Orbital Energies and Occupations

         #    Occupation            Energy/Eh            Energy/eV
      -------------------------------------------------------------
         1        2.0000           -0.7834280             -21.3182
         2        2.0000           -0.6696324             -18.2216
         3        2.0000           -0.6696012             -18.2208
         4        2.0000           -0.6283630             -17.0986
         5        2.0000           -0.5501212             -14.9696
         6        2.0000           -0.5144561             -13.9991
         7        2.0000           -0.5144072             -13.9977
         8        2.0000           -0.4968838             -13.5209
         9        1.9998           -0.4923176             -13.3966
        10        1.0003           -0.4765632             -12.9679
        11        1.0000           -0.3929202             -10.6919
        12        1.0000           -0.3927983             -10.6886 (HOMO)
        13                         -0.2338479              -6.3633 (LUMO)
        14                         -0.1811461              -4.9292
        15                         -0.1809194              -4.9231
        16                         -0.0606039              -1.6491
        17                          0.0940594               2.5595
        18                          0.1002427               2.7277
        19                          0.1004961               2.7346
        20                          0.3869538              10.5295
      -------------------------------------------------------------
                  HL-Gap            0.1589504 Eh            4.3253 eV
             Fermi-level           -0.3988798 Eh          -10.8541 eV

     #   Z        covCN         q      C6AA      α(0)
     1   6 C      3.197     0.018    27.063     8.480
     2   7 N      3.600    -0.074    22.660     7.070
     3   6 C      3.197     0.018    27.063     8.480
     4   6 C      3.196     0.018    27.072     8.482
     5   6 C      3.196     0.018    27.072     8.482

 Mol. C6AA /au·bohr⁶  :        653.077066
 Mol. C8AA /au·bohr⁸  :      18009.945111
 Mol. α(0) /au        :         40.993835


Wiberg/Mayer (AO) data.
largest (>0.10) Wiberg bond orders for each atom
          total WBO             WBO to atom ...
     1  C   2.739        C    5 0.970    C    4 0.970    N    2 0.753
     2  N   3.012        C    4 0.753    C    5 0.753    C    1 0.753    C    3 0.753
     3  C   2.739        C    5 0.970    C    4 0.970    N    2 0.753
     4  C   2.739        C    3 0.970    C    1 0.970    N    2 0.753
     5  C   2.739        C    3 0.970    C    1 0.970    N    2 0.753

MOs/occ written to file <molden.input>


molecular dipole:
                 x           y           z       tot (Debye)
 q only:       -0.007      -0.137       0.074
   full:        0.014       0.258      -0.140       0.747
molecular quadrupole (traceless):
                xx          xy          yy          xz          yz          zz
 q only:        0.169      -0.021      -0.224       0.011       0.213       0.055
  q+dip:        0.403      -0.050      -0.534       0.027       0.509       0.131
   full:       -0.025       0.003       0.034      -0.002      -0.034      -0.009

           -------------------------------------------------
          |                Geometry Summary                 |
           -------------------------------------------------

      molecular mass/u    :       62.0496468
   center of mass at/Å    :        0.0013555       0.0253944      -0.0137363
  moments of inertia/u·Å² :        0.3952004E+02   0.3953484E+02   0.5169316E+02
rotational constants/cm⁻¹ :        0.4265591E+00   0.4263994E+00   0.3261095E+00

 * 4 selected distances

     #   Z        #   Z                                     value/Å
     1   6 C      4   6 C                                 1.4669562
     3   6 C      4   6 C                                 1.4669563 (max)
     1   6 C      5   6 C                                 1.4669536
     3   6 C      5   6 C                                 1.4669535 (min)

 * 1 distinct bonds (by element types)

   Z      Z             #   av. dist./Å        max./Å        min./Å
   6 C    6 C           4     1.4669549     1.4669563     1.4669535

           -------------------------------------------------
          |               Frequency Printout                |
           -------------------------------------------------
 projected vibrational frequencies (cm-1)
eigval :       -0.00    -0.00    -0.00    -0.00     0.00     0.00
eigval :      451.35   548.78   549.07   803.89   844.03  1019.77
eigval :     1167.10  1167.46  1368.85
 reduced masses (amu)
   1: 12.14   2: 12.42   3: 12.57   4: 12.30   5: 12.46   6: 12.60   7: 12.01   8: 12.96
Molecule has the following symmetry elements: (C4) (C2) 4*(sigma) 
It seems to be the C4v point group
   9: 12.96  10: 12.01  11: 13.29  12: 12.01  13: 12.07  14: 12.07  15: 12.28
 IR intensities (amu)
   1:  0.12   2:  0.07   3:  0.05   4:  0.09   5:  0.08   6:  0.07   7:  0.03   8:  0.22
   9:  0.22  10:  0.05  11:  2.05  12:  0.01  13:  1.27  14:  1.23  15:  0.27
 Raman intensities (amu)
   1:  0.00   2:  0.00   3:  0.00   4:  0.00   5:  0.00   6:  0.00   7:  0.00   8:  0.00
   9:  0.00  10:  0.00  11:  0.00  12:  0.00  13:  0.00  14:  0.00  15:  0.00
 output can be read by thermo (or use thermo option).
 writing <g98.out> molden fake output.
 recommended (thermochemical) frequency scaling factor: 1.0
           -------------------------------------------------
          |             Thermodynamic Functions             |
           -------------------------------------------------

c4v symmetry found (for desy threshold:  0.10E+00) used in thermo

          ...................................................
          :                      SETUP                      :
          :.................................................:
          :  # frequencies                           9      :
          :  # imaginary freq.                       0      :
          :  linear?                             false      :
          :  only rotor calc.                    false      :
          :  symmetry                              c4v      :
          :  rotational number                       4      :
          :  scaling factor                  1.0000000      :
          :  rotor cutoff                   50.0000000 cm⁻¹ :
          :  imag. cutoff                  -20.0000000 cm⁻¹ :
          :.................................................:

    mode    ω/cm⁻¹     T·S(HO)/kcal·mol⁻¹    T·S(FR)/kcal·mol⁻¹   T·S(vib)
   ------------------------------------------------------------------------
   ------------------------------------------------------------------------

   temp. (K)  partition function   enthalpy   heat capacity  entropy
                                   cal/mol     cal/K/mol   cal/K/mol   J/K/mol
 298.15  VIB   1.38                  544.723      5.796      2.465
         ROT  0.543E+04              888.752      2.981     20.070
         INT  0.748E+04             1433.475      8.776     22.534
         TR   0.473E+27             1481.254      4.968     38.278
         TOT                        2914.7293    13.7446    60.8126   254.4399

   temp. (K)  partition function   enthalpy   heat capacity  entropy
                                   cal/mol     cal/K/mol   cal/K/mol   J/K/mol
 120.00  VIB   1.01                   10.410      0.524      0.101
         ROT  0.139E+04              357.707      2.981     17.357
         INT  0.140E+04              368.117      3.505     17.458
         TR   0.121E+27              596.178      4.968     33.759
         TOT                         964.2950     8.4728    51.2171   214.2923

   temp. (K)  partition function   enthalpy   heat capacity  entropy
                                   cal/mol     cal/K/mol   cal/K/mol   J/K/mol
 100.00  VIB   1.00                    3.158      0.224      0.036
         ROT  0.105E+04              298.089      2.981     16.813
         INT  0.106E+04              301.247      3.205     16.850
         TR   0.919E+26              496.815      4.968     32.853
         TOT                         798.0619     8.1727    49.7029   207.9570

   temp. (K)  partition function   enthalpy   heat capacity  entropy
                                   cal/mol     cal/K/mol   cal/K/mol   J/K/mol
  80.00  VIB   1.00                    0.549      0.059      0.008
         ROT   754.                  238.471      2.981     16.148
         INT   755.                  239.020      3.040     16.156
         TR   0.657E+26              397.452      4.968     31.745
         TOT                         636.4721     8.0085    47.9012   200.4185

   temp. (K)  partition function   enthalpy   heat capacity  entropy
                                   cal/mol     cal/K/mol   cal/K/mol   J/K/mol
  60.00  VIB   1.00                    0.032      0.006      0.000
         ROT   490.                  178.853      2.981     15.291
         INT   490.                  178.885      2.987     15.291
         TR   0.427E+26              298.089      4.968     30.317
         TOT                         476.9742     7.9550    45.6079   190.8235

   temp. (K)  partition function   enthalpy   heat capacity  entropy
                                   cal/mol     cal/K/mol   cal/K/mol   J/K/mol
  40.00  VIB   1.00                    0.000      0.000     -0.000
         ROT   267.                  119.236      2.981     14.082
         INT   267.                  119.236      2.981     14.082
         TR   0.232E+26              198.726      4.968     28.303
         TOT                         317.9617     7.9491    42.3851   177.3393

   temp. (K)  partition function   enthalpy   heat capacity  entropy
                                   cal/mol     cal/K/mol   cal/K/mol   J/K/mol
  20.00  VIB   1.00                    0.000      0.000     -0.000
         ROT   94.3                   59.618      2.981     12.016
         INT   94.3                   59.618      2.981     12.015
         TR   0.822E+25               99.363      4.968     24.861
         TOT                         158.9808     7.9490    36.8767   154.2922

   temp. (K)  partition function   enthalpy   heat capacity  entropy
                                   cal/mol     cal/K/mol   cal/K/mol   J/K/mol
  10.00  VIB   1.00                    0.000      0.000     -0.001
         ROT   33.3                   29.809      2.981      9.950
         INT   33.3                   29.809      2.981      9.949
         TR   0.290E+25               49.681      4.968     21.419
         TOT                          79.4904     7.9490    31.3683   131.2450

       T/K    H(0)-H(T)+PV         H(T)/Eh          T*S/Eh         G(T)/Eh
   ------------------------------------------------------------------------
    298.15    0.464492E-02    0.226887E-01    0.288940E-01   -0.620534E-02
    120.00    0.153670E-02    0.195805E-01    0.979436E-02    0.978612E-02
    100.00    0.127179E-02    0.193156E-01    0.792066E-02    0.113949E-01
     80.00    0.101428E-02    0.190581E-01    0.610683E-02    0.129512E-01
     60.00    0.760107E-03    0.188039E-01    0.436085E-02    0.144430E-01
     40.00    0.506704E-03    0.185505E-01    0.270180E-02    0.158487E-01
     20.00    0.253352E-03    0.182971E-01    0.117534E-02    0.171218E-01
     10.00    0.126676E-03    0.181704E-01    0.499886E-03    0.176706E-01 (used)
   ------------------------------------------------------------------------

         :::::::::::::::::::::::::::::::::::::::::::::::::::::
         ::                  THERMODYNAMIC                  ::
         :::::::::::::::::::::::::::::::::::::::::::::::::::::
         :: total free energy         -10.946434012650 Eh   ::
         ::.................................................::
         :: total energy              -10.964104575619 Eh   ::
         :: zero point energy           0.018043772912 Eh   ::
         :: G(RRHO) w/o ZPVE           -0.000373209943 Eh   ::
         :: G(RRHO) contrib.            0.017670562969 Eh   ::
         :::::::::::::::::::::::::::::::::::::::::::::::::::::

optimized geometry written to: xtbopt.xyz


           -------------------------------------------------
          | TOTAL ENERGY              -10.964104575619 Eh   |
          | TOTAL ENTHALPY            -10.945934126691 Eh   |
          | TOTAL FREE ENERGY         -10.946434012650 Eh   |
          | GRADIENT NORM               0.000374109301 Eh/α |
          | HOMO-LUMO GAP               4.325260573605 eV   |
           -------------------------------------------------

------------------------------------------------------------------------
 * finished run on 2020/05/12 at 11:44:23.847     
------------------------------------------------------------------------
 total:
 * wall-time:     0 d,  0 h,  0 min,  0.192 sec
 *  cpu-time:     0 d,  0 h,  0 min,  0.192 sec
 * ratio c/w:     0.999 speedup
 SCF:
 * wall-time:     0 d,  0 h,  0 min,  0.005 sec
 *  cpu-time:     0 d,  0 h,  0 min,  0.005 sec
 * ratio c/w:     1.000 speedup
 ANC optimizer:
 * wall-time:     0 d,  0 h,  0 min,  0.068 sec
 *  cpu-time:     0 d,  0 h,  0 min,  0.068 sec
 * ratio c/w:     0.998 speedup
 numerical hessian:
 * wall-time:     0 d,  0 h,  0 min,  0.104 sec
 *  cpu-time:     0 d,  0 h,  0 min,  0.104 sec
 * ratio c/w:     0.999 speedup

