[Molden Format]
[Title]
[Atoms] AU
N      1     7 -0.26005692386793E-02 -0.55864116144067E-03  0.10052725443595E-07
O      2     8 -0.22486894621092E+01 -0.31905760957426E-01  0.79051130175137E-05
C      3     6  0.22512900313380E+01  0.32462512392917E-01 -0.79151624453774E-05
[GTO]
           1 0
 s           4   1.0000000000000000     
   63.594024466941008      -0.19234388414721629     
   10.951417231523665      -0.23478107924953728     
  0.87999310257376984       0.37593753901700888     
  0.33538715296521110       0.14982889271862770     
 p           4   1.0000000000000000     
   7.2965040481495080       0.97658666315667420     
   1.8918745450712575       0.90372226730345739     
  0.66694432110824120       0.47404958461536373     
  0.26552202674130870        7.1516067715011844E-002

           2 0
 s           4   1.0000000000000000     
   69.137961906196551      -0.20478756370077797     
   11.906129132707308      -0.24997023136827334     
  0.95670827744340703       0.40025880240639616     
  0.36462520496073686       0.15952206667693555     
 p           4   1.0000000000000000     
   8.2124193257781641        1.1321556799186829     
   2.1293576997098116        1.0476840782254817     
  0.75066448202360914       0.54956508217158984     
  0.29885246543283073        8.2908486592766617E-002

           3 0
 s           4   1.0000000000000000     
   51.049363095579913      -0.16312063210127389     
   8.7911227406887544      -0.19911024581000730     
  0.70640422258929825       0.31882047753655751     
  0.26922813413411617       0.12706504184240380     
 p           4   1.0000000000000000     
   5.8263656140800002       0.73716451545209605     
   1.5106896018720002       0.68216371614850257     
  0.53256483288000001       0.35783053929253711     
  0.21202323690600003        5.3983030275847881E-002

[MO]
Sym=     1a
Ene=  -0.80493127074715964     
Spin= Alpha
Occup=     2.00000000
           1 -0.39472771846624721     
           2  0.26484439779236962     
           3   3.6740088438868934E-003
           4  -9.1814009864227123E-007
           5 -0.56910170755596579     
           6 -0.28682349498997339     
           7  -4.0071393508615836E-003
           8   1.0390756700410599E-006
           9  -2.3824096838507437E-002
          10   3.8428673176564516E-002
          11   5.4472593056104090E-004
          12  -1.3366053999524075E-007
Sym=     2a
Ene=  -0.72307011411409461     
Spin= Alpha
Occup=     2.00000000
           1  0.45888156155577331     
           2  0.30237503155031759     
           3   4.4392397050632432E-003
           4  -1.0210681021566727E-006
           5 -0.35154545196527143     
           6  0.15044030533234493     
           7   2.2166947910504352E-003
           8  -4.9112203735130093E-007
           9  0.42985647304033309     
          10 -0.17715785982023610     
          11  -2.5813855149953440E-003
          12   6.3794621944804243E-007
Sym=     3a
Ene=  -0.64329145847965064     
Spin= Alpha
Occup=     2.00000000
           1  0.10472757677340233     
           2 -0.29198978926305613     
           3  -4.4484943971043404E-002
           4   6.0937250310421353E-006
           5 -0.65293329215407336     
           6  0.57714732173416339     
           7  -3.0893201228260645E-002
           8   2.9079842011073035E-006
           9 -0.33499451837227878     
          10   2.6191102902797019E-002
          11  -1.1141942872663796E-002
          12   1.3556168385835418E-006
Sym=     4a
Ene=  -0.64306773349045565     
Spin= Alpha
Occup=     2.00000000
           1  -1.2425807546563737E-005
           2   5.4284713255818391E-005
           3  -1.1164148597425148E-003
           4  0.62619533803676131     
           5   8.0597953993574907E-005
           6  -5.3997194003957909E-005
           7  -1.0813356053462700E-003
           8  0.60568408613555369     
           9   4.1364668786388193E-005
          10   2.0650379303374637E-006
          11  -3.2072977698501947E-004
          12  0.17978220155410390     
Sym=     5a
Ene=  -0.64306681040122549     
Spin= Alpha
Occup=     2.00000000
           1   6.4676428827319223E-003
           2  -2.7818007308695436E-002
           3  0.62456299143520577     
           4   1.1197805735290319E-003
           5  -4.2088582798228802E-002
           6   2.8766944065316647E-002
           7  0.60489100916476279     
           8   1.0829223155689931E-003
           9  -2.1632245079041008E-002
          10  -9.1535808451895055E-004
          11  0.17941833346548050     
          12   3.2146237692109016E-004
Sym=     6a
Ene=  -0.48900427218321219     
Spin= Alpha
Occup=     2.00000000
           1 -0.22853863285592346     
           2 -0.20230670496344327     
           3  -2.5000746768228314E-003
           4   6.9715788384817229E-007
           5  -2.9061421089311704E-002
           6  0.23372403391685181     
           7   2.4999891787612157E-003
           8  -7.8858973094222343E-007
           9  0.70928750894267878     
          10  0.61024303107430411     
          11   9.3865620793067133E-003
          12  -2.1619996579170188E-006
Sym=     7a
Ene=  -0.46297471724734401     
Spin= Alpha
Occup=     1.50000257
           1   4.3662752647273583E-006
           2  -3.5450844771103395E-004
           3   2.5841039544186747E-002
           4  0.41773852994381427     
           5  -1.9685281662071573E-006
           6   6.0092168640402523E-004
           7  -4.4220432079283466E-002
           8 -0.71485324756223867     
           9  -3.8457951322342097E-005
          10  -5.5652443225437268E-004
          11   3.5208513896680123E-002
          12  0.56918746761880945     
Sym=     8a
Ene=  -0.46297469774472838     
Spin= Alpha
Occup=     1.49999743
           1  -7.0747964019305157E-005
           2   5.7539895093108688E-003
           3 -0.41769870021066324     
           4   2.5843475567245287E-002
           5   3.1424482188225142E-005
           6  -9.7538294260255745E-003
           7  0.71478642045875429     
           8  -4.4224552881444917E-002
           9   6.2185171024206967E-004
          10   9.0286685111993364E-003
          11 -0.56911605570456203     
          12   3.5212890049691900E-002
Sym=     9a
Ene=  -0.25037584073137747     
Spin= Alpha
Occup=     0.00000000
           1  -4.7982648923925022E-004
           2  -1.0401564527370708E-002
           3  0.73480666375846126     
           4  -3.3370789364226348E-002
           5   9.1518260258613258E-005
           6   5.9402782767193959E-003
           7 -0.40328046191294908     
           8   1.8314870573931254E-002
           9  -1.6400705243552741E-005
          10   1.1997596811506261E-002
          11 -0.83993635837128289     
          12   3.8145249807626083E-002
Sym=    10a
Ene=  -0.25037576175791615     
Spin= Alpha
Occup=     0.00000000
           1   2.1787506217172479E-005
           2   4.6974865412796238E-004
           3  -3.3367476567856706E-002
           4 -0.73488053584965640     
           5  -4.1481310919535282E-006
           6  -2.6832663689694717E-004
           7   1.8312918244742731E-002
           8  0.40332415662273863     
           9   7.4236167321202925E-007
          10  -5.4185250365665686E-004
          11   3.8141397816099647E-002
          12  0.84002203536858222     
Sym=    11a
Ene=   0.10008507486601774     
Spin= Alpha
Occup=     0.00000000
           1  -1.0960820925534065     
           2  0.28771515415129184     
           3   3.4383261803299439E-003
           4  -1.0063059458282763E-006
           5  0.47512679662429763     
           6  0.77961579411544835     
           7   1.1073528198452108E-002
           8  -2.7401450008765605E-006
           9  0.28741111557297738     
          10 -0.61895565983715084     
          11  -8.7227557177409661E-003
          12   2.1751639298883769E-006
Sym=    12a
Ene=   0.95654310914697283     
Spin= Alpha
Occup=     0.00000000
           1 -0.33948578833150184     
           2  -1.3524112822261514     
           3  -1.9440059789359029E-002
           4   4.7549889399994320E-006
           5 -0.54284186995213479     
           6 -0.57270998928012107     
           7  -7.8790185581768465E-003
           8   2.0122218146305611E-006
           9  0.81528575089651378     
          10 -0.91829100209182146     
          11  -1.3548203921604787E-002
          12   3.2317184977966743E-006
