$hessian                                                                        
        1.5387841661   0.0218879627  -0.0000053381  -0.6752985307  -0.0092635747
        0.0000010478  -0.8636829235  -0.0126553100   0.0000025793
        0.0218879627   0.0238524706  -0.0000000477  -0.0092707110  -0.0119316614
        0.0000000063  -0.0126200776  -0.0119352003   0.0000000292
       -0.0000053381  -0.0000000477   0.0235336877   0.0000023445   0.0000000186
       -0.0118720404   0.0000029943   0.0000000298  -0.0116870232
       -0.6752985307  -0.0092707110   0.0000023445   0.7611585200   0.0105067352
       -0.0000010784  -0.0857123964  -0.0012057178  -0.0000012028
       -0.0092635747  -0.0119316614   0.0000000186   0.0105067352   0.0060798410
       -0.0000000093  -0.0012412148   0.0058644869  -0.0000000149
        0.0000010478   0.0000000063  -0.0118720404  -0.0000010784  -0.0000000093
        0.0060295975   0.0000000301   0.0000000024   0.0058855408
       -0.8636829235  -0.0126200776   0.0000029943  -0.0857123964  -0.0012412148
        0.0000000301   0.9494450150   0.0138619080  -0.0000013768
       -0.0126553100  -0.0119352003   0.0000000298  -0.0012057178   0.0058644869
        0.0000000024   0.0138619080   0.0060724379  -0.0000000144
        0.0000025793   0.0000000292  -0.0116870232  -0.0000012028  -0.0000000149
        0.0058855408  -0.0000013768  -0.0000000144   0.0057837604
