 Entering Gaussian System
 *********************************************
 Gaussian 98:
 frequency output generated by the xtb code
 *********************************************
                         Standard orientation:
 --------------------------------------------------------------------
  Center     Atomic     Atomic              Coordinates (Angstroms)
  Number     Number      Type              X           Y           Z
 --------------------------------------------------------------------
    1          7             0       -0.001376   -0.000296    0.000000
    2          8             0       -1.189955   -0.016884    0.000004
    3          6             0        1.191331    0.017178   -0.000004
 --------------------------------------------------------------------
     1 basis functions        1 primitive gaussians
     1 alpha electrons        1 beta electrons

 Harmonic frequencies (cm**-1), IR intensities (KM/Mole),
 Raman scattering activities (A**4/amu), Raman depolarization ratios,
 reduced masses (AMU), force constants (mDyne/A) and normal coordinates:
                      1                      2                      3
                        a                      a                      a 
 Frequencies --   258.9468               258.9926              1312.4034
 Red. masses --    13.9217                13.9133                14.2913
 Frc consts  --     0.0000                 0.0000                 0.0000
 IR Inten    --     0.7096                 0.7100                 1.0212
 Raman Activ --     0.0000                 0.0000                 0.0000
 Depolar     --     0.0000                 0.0000                 0.0000
 Atom AN      X      Y      Z        X      Y      Z        X      Y      Z
   1   7    -0.00   0.00  -0.81     0.01  -0.81  -0.00     0.20   0.00  -0.00
   2   8     0.00  -0.00   0.38    -0.01   0.38   0.00    -0.74  -0.01   0.00
   3   6     0.00  -0.00   0.44    -0.01   0.44   0.00     0.64   0.01   0.00
                      4
                        a 
 Frequencies --  2127.8844
 Red. masses --    13.5308
 Frc consts  --     0.0000
 IR Inten    --     1.2627
 Raman Activ --     0.0000
 Depolar     --     0.0000
 Atom AN      X      Y      Z        X      Y      Z        X      Y      Z
   1   7     0.79   0.01  -0.00
   2   8    -0.26  -0.00   0.00
   3   6    -0.55  -0.01   0.00
