3
 energy: -8.804611155904 gnorm: 0.277917646857 xtb: 6.2.2 (9d81278992624c895f80dd42a50cac0aa55982e2)
N        -0.04883400000000    0.55646600000000    0.00000000000000
O        -1.10079300000000   -0.29482600000000    0.00000000000000
C         1.14962700000000   -0.26164100000000    0.00000000000000
3
 energy: -8.871768379859 gnorm: 0.195353284810 xtb: 6.2.2 (9d81278992624c895f80dd42a50cac0aa55982e2)
N        -0.01468292401459    0.44783022429519    0.00000000000000
O        -1.08817094971366   -0.24920101941659   -0.00000000000000
C         1.10285387372825   -0.19863020487860    0.00000000000000
3
 energy: -8.881915165207 gnorm: 0.557979020149 xtb: 6.2.2 (9d81278992624c895f80dd42a50cac0aa55982e2)
N         0.05992360390248    0.16200152106994    0.00000000000000
O        -1.15409367562237   -0.12507717360020   -0.00000000000000
C         1.09417007171989   -0.03692534746973    0.00000000000000
3
 energy: -8.922480668874 gnorm: 0.075139424581 xtb: 6.2.2 (9d81278992624c895f80dd42a50cac0aa55982e2)
N         0.00165742606113    0.10237571608146    0.00000000000000
O        -1.21485860115884   -0.07303769395924   -0.00000000000000
C         1.21320117509771   -0.02933902212222    0.00000000000000
3
 energy: -8.924569698840 gnorm: 0.060522123907 xtb: 6.2.2 (9d81278992624c895f80dd42a50cac0aa55982e2)
N        -0.01245496675999    0.13105308853735    0.00000000000000
O        -1.16426922919949   -0.08243347643926   -0.00000000000000
C         1.17672419595948   -0.04862061209809    0.00000000000000
3
 energy: -8.925748527352 gnorm: 0.014321849447 xtb: 6.2.2 (9d81278992624c895f80dd42a50cac0aa55982e2)
N        -0.00252889291111    0.10713544277880    0.00000000000000
O        -1.18154982725463   -0.07355943581187   -0.00000000000000
C         1.18407872016574   -0.03357700696693    0.00000000000000
3
 energy: -8.926044021436 gnorm: 0.010736902697 xtb: 6.2.2 (9d81278992624c895f80dd42a50cac0aa55982e2)
N        -0.00011505498130    0.08741676917170    0.00000000000000
O        -1.18513079132491   -0.06398857824309   -0.00000000000000
C         1.18524584630621   -0.02342919092861    0.00000000000000
3
 energy: -8.926446094703 gnorm: 0.015246216089 xtb: 6.2.2 (9d81278992624c895f80dd42a50cac0aa55982e2)
N         0.00107358503224    0.04436095607226    0.00000000000000
O        -1.19173283173001   -0.04158867538204   -0.00000000000000
C         1.19065924669777   -0.00277328069022    0.00000000000000
3
 energy: -8.926616507771 gnorm: 0.011392503969 xtb: 6.2.2 (9d81278992624c895f80dd42a50cac0aa55982e2)
N        -0.00010291477753   -0.00374120942596    0.00000000000000
O        -1.19500512039265   -0.01559242526172   -0.00000000000000
C         1.19510803517018    0.01933263468768    0.00000000000000
3
 energy: -8.926681166965 gnorm: 0.002731141135 xtb: 6.2.2 (9d81278992624c895f80dd42a50cac0aa55982e2)
N        -0.00139512980821    0.00468223089944    0.00000000000000
O        -1.18886406727425   -0.01951800524500   -0.00000000000000
C         1.19025919708247    0.01483477434556    0.00000000000000
3
 energy: -8.926686902216 gnorm: 0.000172121155 xtb: 6.2.2 (9d81278992624c895f80dd42a50cac0aa55982e2)
N        -0.00133772819528    0.00059102260630    0.00000000000000
O        -1.18994506839505   -0.01737604067898   -0.00000000000000
C         1.19128279659033    0.01678401807269    0.00000000000000
3
 energy: -8.926686931825 gnorm: 0.000138766745 xtb: 6.2.2 (9d81278992624c895f80dd42a50cac0aa55982e2)
N        -0.00137616055629   -0.00029562740470    0.00000000000000
O        -1.18995523973749   -0.01689003375299   -0.00000000000000
C         1.19133140029379    0.01718466115769    0.00000000000000
