5
 energy: -9.056348736315 gnorm: 0.136215336241 xtb: 6.2.2 (9d81278992624c895f80dd42a50cac0aa55982e2)
C        -0.32857100000000    0.02106100000000   -0.29290100000000
C        -1.41877300000000   -0.90611700000000    0.20164000000000
O         0.83360400000000   -0.19128400000000    0.44805700000000
H        -0.65920800000000    1.07424900000000   -0.17426500000000
H         1.57294700000000    0.00209100000000   -0.18253100000000
5
 energy: -9.078884010117 gnorm: 0.078165336088 xtb: 6.2.2 (9d81278992624c895f80dd42a50cac0aa55982e2)
C        -0.36292016587981    0.00515609568697   -0.15360458910570
C        -1.42578116943152   -0.89711099518025    0.15606904957119
O         0.87030148382693   -0.23358953598199    0.43342778691679
H        -0.64450186039260    1.08329591557227   -0.23791848213112
H         1.56290071187700    0.04224851990301   -0.19797376525116
5
 energy: -9.090259199652 gnorm: 0.046174012393 xtb: 6.2.2 (9d81278992624c895f80dd42a50cac0aa55982e2)
C        -0.40421611680257   -0.05100617328182   -0.08890565636627
C        -1.41209266497239   -0.82405316809541    0.15852409073142
O         0.85705314540231   -0.33474598283018    0.37015543138454
H        -0.58189894446478    1.04142946484167   -0.27625399234026
H         1.54115358083743    0.16837585936574   -0.16351987340943
5
 energy: -9.092141743852 gnorm: 0.027911912914 xtb: 6.2.2 (9d81278992624c895f80dd42a50cac0aa55982e2)
C        -0.40872477302937   -0.03304487002188   -0.05550791243119
C        -1.39561032799879   -0.83890768831286    0.13377132383674
O         0.86651223573671   -0.29053036516086    0.37355078726070
H        -0.59087336136932    1.04326732123512   -0.27835226000905
H         1.52869522666078    0.11921560226048   -0.17346193865720
5
 energy: -9.094791667630 gnorm: 0.071385849313 xtb: 6.2.2 (9d81278992624c895f80dd42a50cac0aa55982e2)
C        -0.42338187511890   -0.00862673551249    0.04698516430238
C        -1.39815951106165   -0.86959338066263    0.09087364162581
O         0.89570271496725   -0.27569852218747    0.38226280329246
H        -0.57673712867497    1.05350717853209   -0.31963888333798
H         1.50257479988826    0.10041145983050   -0.20048272588266
5
 energy: -9.097132246882 gnorm: 0.048932343537 xtb: 6.2.2 (9d81278992624c895f80dd42a50cac0aa55982e2)
C        -0.42276068508695    0.00444810396633    0.10937247172139
C        -1.41025383819958   -0.87313795470090    0.07157193485201
O         0.90524562041248   -0.29558873294258    0.38996119561439
H        -0.55588682193973    1.03959354173342   -0.35012609328246
H         1.48365472481378    0.12468504194373   -0.22077950890534
5
 energy: -9.098632751838 gnorm: 0.021996093404 xtb: 6.2.2 (9d81278992624c895f80dd42a50cac0aa55982e2)
C        -0.41325288913709    0.01070678107707    0.10997701759967
C        -1.40157391987572   -0.84616106188338    0.07866966890781
O         0.88542808151099   -0.32787982016896    0.38749649455611
H        -0.54520239619421    1.00540285676275   -0.35480253422409
H         1.47460012369603    0.15793124421253   -0.22134064683951
5
 energy: -9.099125977200 gnorm: 0.007124418971 xtb: 6.2.2 (9d81278992624c895f80dd42a50cac0aa55982e2)
C        -0.41716401848113    0.02568055842249    0.13115824911393
C        -1.39238064971295   -0.86009375706945    0.06710362070313
O         0.87952769686537   -0.30551084782480    0.38922688595858
H        -0.54448838601279    1.00683131921030   -0.35802906527366
H         1.47450435734151    0.13309272726146   -0.22945969050198
5
 energy: -9.099206446891 gnorm: 0.005017875608 xtb: 6.2.2 (9d81278992624c895f80dd42a50cac0aa55982e2)
C        -0.41776096217932    0.02513152165624    0.12564910741520
C        -1.39964449106652   -0.86345698890723    0.07096684407988
O         0.87720937811632   -0.30336007977119    0.38511407982533
H        -0.54395925443412    1.00768893151456   -0.35527790032707
H         1.48415432956363    0.13399661550761   -0.22645213099334
5
 energy: -9.099269080435 gnorm: 0.003706833583 xtb: 6.2.2 (9d81278992624c895f80dd42a50cac0aa55982e2)
C        -0.42063082347116    0.02519007684129    0.12621608394880
C        -1.40234082328975   -0.86344095584907    0.07440661234553
O         0.87424011914835   -0.30722769766259    0.37620044522585
H        -0.54500003066778    1.00806860628656   -0.35625391591203
H         1.49373055828033    0.13740997038382   -0.22056922560815
5
 energy: -9.099305385330 gnorm: 0.004581703771 xtb: 6.2.2 (9d81278992624c895f80dd42a50cac0aa55982e2)
C        -0.42048042586916    0.02552910314842    0.12675782937160
C        -1.40496913874838   -0.86158062926628    0.07830913812846
O         0.87278194300082   -0.31444947942637    0.36742689179989
H        -0.54813018245662    1.00798494956262   -0.35815657662376
H         1.50079680407334    0.14251605598162   -0.21433728267619
5
 energy: -9.099331078993 gnorm: 0.004560418505 xtb: 6.2.2 (9d81278992624c895f80dd42a50cac0aa55982e2)
C        -0.41881380330778    0.02491850630043    0.12687294938263
C        -1.40738596842417   -0.85931812570964    0.08159064045792
O         0.87230634305635   -0.32077926527066    0.36003682543164
H        -0.54991593178791    1.00738830776503   -0.35956568820251
H         1.50380836046350    0.14779057691485   -0.20893472706967
5
 energy: -9.099359758309 gnorm: 0.003843281795 xtb: 6.2.2 (9d81278992624c895f80dd42a50cac0aa55982e2)
C        -0.41601384387216    0.02325517530424    0.12687041081157
C        -1.41138541398414   -0.85660847775123    0.08585973042915
O         0.87241047642272   -0.32904855582132    0.35063752476119
H        -0.54918888003553    1.00592128001652   -0.36137737246837
H         1.50417666146912    0.15648057825179   -0.20199029353354
5
 energy: -9.099377793172 gnorm: 0.002458035611 xtb: 6.2.2 (9d81278992624c895f80dd42a50cac0aa55982e2)
C        -0.41427484803301    0.02154399278420    0.12586956549289
C        -1.41484562690681   -0.85489722606922    0.08930515183684
O         0.87284772940984   -0.33478170197097    0.34368182944405
H        -0.54616124138266    1.00414536613025   -0.36229194722708
H         1.50243298691264    0.16398956912573   -0.19656459954670
5
 energy: -9.099385370417 gnorm: 0.001094168017 xtb: 6.2.2 (9d81278992624c895f80dd42a50cac0aa55982e2)
C        -0.41410746896225    0.02050794593651    0.12523062533603
C        -1.41753923959748   -0.85437022111066    0.09162558565939
O         0.87328927202006   -0.33852484464017    0.33920117467161
H        -0.54226305152450    1.00262990186830   -0.36304089330154
H         1.50061948806416    0.16975721794602   -0.19301649236549
5
 energy: -9.099386287059 gnorm: 0.000556327304 xtb: 6.2.2 (9d81278992624c895f80dd42a50cac0aa55982e2)
C        -0.41478579499363    0.02049947746562    0.12430722315156
C        -1.41800607759645   -0.85441995844460    0.09244838753921
O         0.87334575596043   -0.33910677302998    0.33794996734491
H        -0.54063879635275    1.00193707097306   -0.36291779297820
H         1.50008391298240    0.17109018303591   -0.19178778505748
