 Entering Gaussian System
 *********************************************
 Gaussian 98:
 frequency output generated by the xtb code
 *********************************************
                         Standard orientation:
 --------------------------------------------------------------------
  Center     Atomic     Atomic              Coordinates (Angstroms)
  Number     Number      Type              X           Y           Z
 --------------------------------------------------------------------
    1          6             0       -0.414785    0.020502    0.124309
    2          6             0       -1.418010   -0.854412    0.092455
    3          8             0        0.873345   -0.339111    0.337948
    4          1             0       -0.540635    1.001939   -0.362918
    5          1             0        1.500084    0.171082   -0.191793
 --------------------------------------------------------------------
     1 basis functions        1 primitive gaussians
     1 alpha electrons        1 beta electrons

 Harmonic frequencies (cm**-1), IR intensities (KM/Mole),
 Raman scattering activities (A**4/amu), Raman depolarization ratios,
 reduced masses (AMU), force constants (mDyne/A) and normal coordinates:
                      1                      2                      3
                        a                      a                      a 
 Frequencies --   372.6214               506.5458               777.2302
 Red. masses --     2.5185                12.5443                 5.7400
 Frc consts  --     0.0000                 0.0000                 0.0000
 IR Inten    --     0.8791                 0.3487                 0.6370
 Raman Activ --     0.0000                 0.0000                 0.0000
 Depolar     --     0.0000                 0.0000                 0.0000
 Atom AN      X      Y      Z        X      Y      Z        X      Y      Z
   1   6     0.11  -0.01  -0.14    -0.08   0.55  -0.05    -0.02  -0.18  -0.57
   2   6    -0.15  -0.00   0.16     0.56  -0.20   0.11     0.06   0.07   0.20
   3   8    -0.00  -0.13  -0.16    -0.43  -0.30  -0.06    -0.03   0.02   0.13
   4   1     0.05  -0.05  -0.13    -0.00   0.13  -0.05    -0.11   0.34   0.66
   5   1     0.10   0.61   0.69     0.05  -0.12   0.13     0.06  -0.04   0.06
                      4                      5                      6
                        a                      a                      a 
 Frequencies --  1033.4690              1088.6367              1213.1650
 Red. masses --     6.2039                13.1760                 3.1397
 Frc consts  --     0.0000                 0.0000                 0.0000
 IR Inten    --     2.5165                 1.6258                 1.1794
 Raman Activ --     0.0000                 0.0000                 0.0000
 Depolar     --     0.0000                 0.0000                 0.0000
 Atom AN      X      Y      Z        X      Y      Z        X      Y      Z
   1   6     0.34   0.13   0.08    -0.55   0.38  -0.11     0.12   0.17  -0.06
   2   6    -0.36  -0.29  -0.01    -0.20  -0.20   0.00    -0.22  -0.30   0.04
   3   8    -0.13   0.23  -0.13     0.62  -0.17   0.09    -0.04   0.03   0.04
   4   1     0.02   0.06   0.08    -0.04   0.09  -0.02     0.78   0.21   0.11
   5   1     0.57  -0.42   0.21     0.17  -0.06   0.04    -0.29   0.15  -0.19
                      7                      8                      9
                        a                      a                      a 
 Frequencies --  1320.6732              2740.8962              3466.9062
 Red. masses --     7.2137                 1.6803                 1.8758
 Frc consts  --     0.0000                 0.0000                 0.0000
 IR Inten    --     1.9528                 0.2803                 0.2761
 Raman Activ --     0.0000                 0.0000                 0.0000
 Depolar     --     0.0000                 0.0000                 0.0000
 Atom AN      X      Y      Z        X      Y      Z        X      Y      Z
   1   6    -0.48  -0.35   0.10     0.02  -0.22   0.11     0.01   0.00  -0.00
   2   6     0.29   0.22   0.02    -0.01  -0.02   0.00    -0.00  -0.00   0.00
   3   8    -0.05   0.16  -0.15     0.02  -0.01   0.01     0.15   0.13  -0.13
   4   1     0.53  -0.01  -0.02    -0.12   0.86  -0.42    -0.00  -0.00   0.00
   5   1     0.34  -0.16   0.19    -0.00  -0.00   0.00    -0.63  -0.51   0.53
