[Molden Format]
[Title]
[Atoms] AU
C      1     6 -0.78383045736948E+00  0.38742908630295E-01  0.23490925374957E+00
C      2     6 -0.26796507253335E+01 -0.16146052315588E+01  0.17471428866316E+00
O      3     8  0.16503830116534E+01 -0.64082639534570E+00  0.63862818036346E+00
H      4     1 -0.10216516428603E+01  0.18933906349859E+01 -0.68581490916693E+00
H      5     1  0.28347479241839E+01  0.32329808329817E+00 -0.36243681360266E+00
[GTO]
           1 0
 s           4   1.0000000000000000     
   51.049363095579913      -0.16312063210127389     
   8.7911227406887544      -0.19911024581000730     
  0.70640422258929825       0.31882047753655751     
  0.26922813413411617       0.12706504184240380     
 p           4   1.0000000000000000     
   5.8263656140800002       0.73716451545209605     
   1.5106896018720002       0.68216371614850257     
  0.53256483288000001       0.35783053929253711     
  0.21202323690600003        5.3983030275847881E-002

           2 0
 s           4   1.0000000000000000     
   51.049363095579913      -0.16312063210127389     
   8.7911227406887544      -0.19911024581000730     
  0.70640422258929825       0.31882047753655751     
  0.26922813413411617       0.12706504184240380     
 p           4   1.0000000000000000     
   5.8263656140800002       0.73716451545209605     
   1.5106896018720002       0.68216371614850257     
  0.53256483288000001       0.35783053929253711     
  0.21202323690600003        5.3983030275847881E-002

           3 0
 s           4   1.0000000000000000     
   69.137961906196551      -0.20478756370077797     
   11.906129132707308      -0.24997023136827334     
  0.95670827744340703       0.40025880240639616     
  0.36462520496073686       0.15952206667693555     
 p           4   1.0000000000000000     
   8.2124193257781641        1.1321556799186829     
   2.1293576997098116        1.0476840782254817     
  0.75066448202360914       0.54956508217158984     
  0.29885246543283073        8.2908486592766617E-002

           4 0
 s           3   1.0000000000000000     
   3.3702276975336001       0.27359110588908298     
  0.61389118221497996       0.26460540653860526     
  0.16614291148415999        8.2465947534082318E-002

           5 0
 s           3   1.0000000000000000     
   3.3702276975336001       0.27359110588908298     
  0.61389118221497996       0.26460540653860526     
  0.16614291148415999        8.2465947534082318E-002

[MO]
Sym=     1a
Ene=  -0.73947671244167967     
Spin= Alpha
Occup=     2.00000000
           1 -0.21134559898710042     
           2 -0.17158623556847688     
           3   4.2456476693405021E-002
           4  -2.1392647082804406E-002
           5  -2.5164292154882400E-002
           6  -2.4567136640697755E-002
           7  -9.3104399379460526E-003
           8  -1.1113279982095025E-003
           9 -0.75874064266732710     
          10   6.8398004520454123E-002
          11  -6.9328433372561615E-002
          12   4.8419256055326029E-002
          13  -2.4325342106341116E-002
          14 -0.15438623056646805     
Sym=     2a
Ene=  -0.66278163185271044     
Spin= Alpha
Occup=     2.00000000
           1  0.43819402539411711     
           2   1.2316251840665164E-003
           3 -0.11073928379272922     
           4   3.7036128131959944E-002
           5  0.24805908745564550     
           6  0.10260817938113373     
           7   6.7152001454913623E-002
           8   4.9011990604658747E-003
           9 -0.17935122730219577     
          10 -0.50288984805983006     
          11  -6.6772136287725714E-002
          12   7.3992203111251931E-002
          13   9.2928911490024038E-002
          14 -0.25010048556521652     
Sym=     3a
Ene=  -0.60947032768215725     
Spin= Alpha
Occup=     2.00000000
           1 -0.24860166908299339     
           2  0.21464038900140994     
           3 -0.13520297188308653     
           4  0.19486075771403130     
           5 -0.25039524230267152     
           6  -2.4563224241677912E-002
           7  -9.8824862171801031E-002
           8   4.3403425638301449E-002
           9  0.25023082600113089     
          10 -0.24534412138563522     
          11 -0.29446218431219751     
          12  0.35815166547722638     
          13 -0.23378639745073201     
          14 -0.27156629974946722     
Sym=     4a
Ene=  -0.59193871688503652     
Spin= Alpha
Occup=     2.00000000
           1  -4.9313058624784994E-002
           2 -0.32614653149443684     
           3 -0.28558320946730004     
           4   5.4536510601610267E-003
           5  0.44474912221031054     
           6   5.6760129197982824E-002
           7   4.4406848312899691E-002
           8  -2.0220800390668677E-004
           9  0.23709587384721531     
          10  0.31002288436093867     
          11 -0.41757644426217566     
          12   9.6047784675343931E-002
          13 -0.15117795870321865     
          14   2.6142354644875132E-002
Sym=     5a
Ene=  -0.54679029970855197     
Spin= Alpha
Occup=     2.00000000
           1   9.8819922809530225E-002
           2 -0.18407991487622652     
           3  0.25897019088615242     
           4  0.27521539544162926     
           5   5.7762022172419297E-002
           6  -5.9240933557217636E-002
           7   9.0125089168251696E-002
           8   7.7354952347123584E-002
           9  0.12032795803174884     
          10  0.19922400283148137     
          11  0.27095628946355182     
          12  0.70035183107967169     
          13  0.15423415887651196     
          14  -3.0957135334468838E-002
Sym=     6a
Ene=  -0.49973253770674048     
Spin= Alpha
Occup=     2.00000000
           1   8.0751924932004254E-002
           2  -6.8595853295964612E-002
           3  0.26592779466322686     
           4 -0.24521127328132264     
           5 -0.32451568836800426     
           6  -4.8053640257963810E-003
           7  0.10572708519755404     
           8  -9.7406410277111583E-002
           9  0.20169683613374037     
          10   9.6674605795959240E-002
          11 -0.63418221819439535     
          12   3.6618827114780289E-002
          13  0.39104437723455637     
          14 -0.16384438624930994     
Sym=     7a
Ene=  -0.41320180931642270     
Spin= Alpha
Occup=     1.99998943
           1  0.18058289173827044     
           2 -0.18342504381564678     
           3  -1.8783196191312346E-002
           4  0.42531184058665333     
           5 -0.45083447403606897     
           6  0.27769810080056406     
           7  0.35301073347787754     
           8  0.41205589509235890     
           9  -9.8551204912363674E-002
          10   6.0774832439965489E-002
          11 -0.12239806095998992     
          12 -0.28392441555746228     
          13 -0.12085484023344879     
          14  0.12307000470663078     
Sym=     8a
Ene=  -0.39143075754470119     
Spin= Alpha
Occup=     1.00001057
           1   6.9683202332561797E-002
           2  -6.1099277837730392E-002
           3 -0.27597478310400225     
           4 -0.32575977954883839     
           5 -0.38819456844284472     
           6  0.50199023222064820     
           7  0.19558605022864056     
           8 -0.39357549963911737     
           9  -3.2030965801311678E-002
          10  0.10142259281825770     
          11  0.25565714336223183     
          12  0.31340862688835330     
          13 -0.14804752401135254     
          14   1.7836959029117999E-002
Sym=     9a
Ene=  -0.31737699231259731     
Spin= Alpha
Occup=     1.00000000
           1   3.6717133641167000E-002
           2   5.8426290828963147E-002
           3   1.7037540385035209E-002
           4   1.7832394167344220E-002
           5   1.5153802220722542E-002
           6  0.55431244376428324     
           7 -0.71974716701940455     
           8  0.28929804581819324     
           9 -0.13112954505883440     
          10  0.17514133203752089     
          11  -7.7461978699908576E-002
          12   8.2273831392097999E-002
          13  0.27271307239156162     
          14   6.1553463186493539E-002
Sym=    10a
Ene=  -0.21537703040410436     
Spin= Alpha
Occup=     0.00000000
           1  0.13097295351538477     
           2  -8.8734281085777536E-002
           3  0.24151213291229870     
           4  0.69556054923022170     
           5   1.2210954428011346E-002
           6  0.12156574561222246     
           7 -0.21188393437320119     
           8 -0.77992446459060505     
           9  -7.5938788440844132E-002
          10   1.0340449099415087E-002
          11 -0.15732459893238840     
          12 -0.20985534379835669     
          13  -7.0197047546945751E-002
          14   9.9666718510343658E-002
Sym=    11a
Ene=    6.0481039405286131E-002
Spin= Alpha
Occup=     0.00000000
           1  -8.5875262029127375E-002
           2 -0.34072765057236509     
           3  0.38536599639786973     
           4  -8.9858917293168611E-002
           5   6.8210890516176736E-002
           6  0.23851434171192459     
           7  -9.0565047413834782E-002
           8   3.8586052903909311E-002
           9  0.75729770451600686     
          10  0.14968776254331148     
          11  0.41606746492787378     
          12 -0.44675730544097586     
          13 -0.26324994210940172     
          14 -0.98763060508363743     
Sym=    12a
Ene=   0.12491180868877637     
Spin= Alpha
Occup=     0.00000000
           1   1.0271223276029247     
           2  0.32443811017332180     
           3  0.34816787912198927     
           4 -0.25579891904866320     
           5  -4.4862059751798702E-002
           6 -0.19733162759507292     
           7 -0.15079393791622117     
           8   6.9740658876336736E-002
           9 -0.24900150950802241     
          10  0.48215707034233563     
          11 -0.17372027795034298     
          12  0.10272153657315955     
          13 -0.86151825374796842     
          14  -8.6238472725994275E-002
Sym=    13a
Ene=   0.28415656839911729     
Spin= Alpha
Occup=     0.00000000
           1   7.8794321390369793E-002
           2  0.68625956330495519     
           3 -0.64689304601586961     
           4  0.36034661151340958     
           5   1.5638405501185487E-002
           6 -0.14422457848380871     
           7  0.20072886731496350     
           8  -9.1091614401911089E-002
           9 -0.10826016737658893     
          10  0.79663153864986946     
          11  0.13116462408111518     
          12 -0.17065685158585756     
          13  0.61625222347271924     
          14 -0.62641979825348792     
Sym=    14a
Ene=   0.52734585309240556     
Spin= Alpha
Occup=     0.00000000
           1 -0.55823649897928707     
           2  0.81655730757204459     
           3  0.71223172454298445     
           4  -1.9392357426624075E-002
           5  0.78040152978850985     
           6  0.70793315342018259     
           7  0.63376167911358039     
           8   3.1823647656064748E-002
           9 -0.16344601322237645     
          10   5.5707611008899087E-002
          11 -0.19399131218941157     
          12   5.4462137975072787E-002
          13 -0.20065916565467626     
          14   5.2824921245751340E-002
