$hessian                                                                        
        0.4133093627   0.0379539092   0.0107437462  -0.1328520497  -0.0964108334
       -0.0061087009  -0.2012894055   0.0397907252   0.0052813474  -0.0378481809
        0.0188501808   0.0005941005  -0.0413197265  -0.0001839819  -0.0105104932
        0.0379539092   0.4113662631  -0.1100527508  -0.1344084198  -0.1608681910
       -0.0063629616   0.1054015606  -0.0784882655   0.0425029765   0.0093884807
       -0.1740748260   0.0855802416  -0.0183355306   0.0020650194  -0.0116675057
        0.0107437462  -0.1100527508   0.1520861634   0.0150360988   0.0139648888
       -0.0333966165  -0.0343377264   0.0280760108  -0.0451786830  -0.0042614038
        0.0761733694  -0.0762793207   0.0128192852  -0.0081615183   0.0027684568
       -0.1328520497  -0.1344084198   0.0150360988   0.2218581360   0.1552821784
        0.0088435381  -0.0935364081  -0.0099888495  -0.0271994863   0.0019008535
       -0.0153301976  -0.0042848138   0.0026294683   0.0044452885   0.0076046632
       -0.0964108334  -0.1608681910   0.0139648888   0.1552821784   0.1693041816
       -0.0021899241  -0.0493926038   0.0152768908  -0.0193325868  -0.0179317277
       -0.0299679800   0.0005878605   0.0084529864   0.0062550986   0.0069697616
       -0.0061087009  -0.0063629616  -0.0333966165   0.0088435381  -0.0021899241
        0.0156133741  -0.0072515231  -0.0027936096   0.0052553003   0.0054190072
        0.0099340300   0.0094482011  -0.0009023214   0.0014124654   0.0030797410
       -0.2012894055   0.1054015606  -0.0343377264  -0.0935364081  -0.0493926038
       -0.0072515231   0.4843945426   0.0604235950  -0.0900392611  -0.0212180628
        0.0210537349  -0.0130713561  -0.1683506660  -0.1374862867   0.1446998667
        0.0397907252  -0.0784882655   0.0280760108  -0.0099888495   0.0152768908
       -0.0027936096   0.0604235950   0.2214396358  -0.1754876616   0.0307088062
       -0.0156847930   0.0136631480  -0.1209342768  -0.1425434681   0.1365421124
        0.0052813474   0.0425029765  -0.0451786830  -0.0271994863  -0.0193325868
        0.0052553003  -0.0900392611  -0.1754876616   0.1807078062  -0.0168524871
        0.0127301218   0.0043096335   0.1288098872   0.1395871501  -0.1450940570
       -0.0378481809   0.0093884807  -0.0042614038   0.0019008535  -0.0179317277
        0.0054190072  -0.0212180628   0.0307088062  -0.0168524871   0.0578213315
       -0.0232830158   0.0173797812  -0.0006559413   0.0011174566  -0.0016848975
        0.0188501808  -0.1740748260   0.0761733694  -0.0153301976  -0.0299679800
        0.0099340300   0.0210537349  -0.0156847930   0.0127301218  -0.0232830158
        0.2194393192  -0.0977926264  -0.0012907023   0.0002882798  -0.0010448948
        0.0005941005   0.0855802416  -0.0762793207  -0.0042848138   0.0005878605
        0.0094482011  -0.0130713561   0.0136631480   0.0043096335   0.0173797812
       -0.0977926264   0.0620966777  -0.0006177118  -0.0020386236   0.0004248084
       -0.0413197265  -0.0183355306   0.0128192852   0.0026294683   0.0084529864
       -0.0009023214  -0.1683506660  -0.1209342768   0.1288098872  -0.0006559413
       -0.0012907023  -0.0006177118   0.2076968655   0.1321075234  -0.1401091392
       -0.0001839819   0.0020650194  -0.0081615183   0.0044452885   0.0062550986
        0.0014124654  -0.1374862867  -0.1425434681   0.1395871501   0.0011174566
        0.0002882798  -0.0020386236   0.1321075234   0.1339350704  -0.1307994735
       -0.0105104932  -0.0116675057   0.0027684568   0.0076046632   0.0069697616
        0.0030797410   0.1446998667   0.1365421124  -0.1450940570  -0.0016848975
       -0.0010448948   0.0004248084  -0.1401091392  -0.1307994735   0.1388210508
