      -----------------------------------------------------------      
     |                   =====================                   |     
     |                           x T B                           |     
     |                   =====================                   |     
     |                         S. Grimme                         |     
     |          Mulliken Center for Theoretical Chemistry        |     
     |                    University of Bonn                     |     
      -----------------------------------------------------------      

   * xtb version 6.2.2 (9d81278992624c895f80dd42a50cac0aa55982e2) compiled by '@Darwin' on 04/03/2020

   xtb is free software: you can redistribute it and/or modify it under
   the terms of the GNU Lesser General Public License as published by
   the Free Software Foundation, either version 3 of the License, or
   (at your option) any later version.
   
   xtb is distributed in the hope that it will be useful,
   but WITHOUT ANY WARRANTY; without even the implied warranty of
   MERCHANTABILITY or FITNESS FOR A PARTICULAR PURPOSE.  See the
   GNU Lesser General Public License for more details.
   
   Cite this work as:
   * S. Grimme, C. Bannwarth, P. Shushkov, J. Chem. Theory Comput., 2017,
     13, 1989-2009. DOI: 10.1021/acs.jctc.7b00118
   * C. Bannwarth, S. Ehlert and S. Grimme., J. Chem. Theory Comput., 2019,
     15, 1652-1671. DOI: 10.1021/acs.jctc.8b01176
   * P. Pracht, E. Caldeweyher, S. Ehlert, S. Grimme, ChemRxiv, 2019, preprint.
     DOI: 10.26434/chemrxiv.8326202.v1
   
   for DFT-D4:
   * E. Caldeweyher, C. Bannwarth and S. Grimme, J. Chem. Phys., 2017,
     147, 034112. DOI: 10.1063/1.4993215
   * E. Caldeweyher, S. Ehlert, A. Hansen, H. Neugebauer, S. Spicher,
     C. Bannwarth and S. Grimme, J. Chem. Phys., 2019, 150, 154122.
     DOI: 10.1063/1.5090222
   
   for sTDA-xTB:
   * S. Grimme and C. Bannwarth, J. Chem. Phys., 2016, 145, 054103.
     DOI: 10.1063/1.4959605
   
   in the mass-spec context:
   * V. Asgeirsson, C. Bauer and S. Grimme, Chem. Sci., 2017, 8, 4879.
     DOI: 10.1039/c7sc00601b
   
   for metadynamics refer to:
   * S. Grimme, J. Chem. Theory Comput., 2019, 155, 2847-2862
     DOI: 10.1021/acs.jctc.9b00143
   
   with help from (in alphabetical order)
   C. Bannwarth, F. Bohle, G. Brandenburg, E. Caldeweyher, M. Checinski,
   S. Dohm, S. Ehlert, S. Ehrlich, F. März, H. Neugebauer, J. Pisarek,
   P. Pracht, P. Shushkov, and S. Spicher.
   
 * started run on 2020/05/12 at 11:45:13.777     

           -------------------------------------------------
          |                Calculation Setup                |
           -------------------------------------------------

          program call               : xtb --input H2C2O1_2_S_2.input H2C2O1_2_S_2.xyz --ohess --molden --namespace H2C2O1_2_S_2 output.out
          calculation namespace      : H2C2O1_2_S_2
          coordinate file            : H2C2O1_2_S_2.xyz
          number of atoms            :                     5
          number of electrons        :                    16
          charge                     :                     0
          spin                       :                   1.0
          first test random number   :      0.43961333472017

   ID    Z sym.   atoms
    1    6 C      1, 2
    2    8 O      3
    3    1 H      4, 5

           -------------------------------------------------
          |                 G F N 2 - x T B                 |
           -------------------------------------------------

        Reference                      10.1021/acs.jctc.8b01176
      * Hamiltonian:
        H0-scaling (s, p, d)           1.850000    2.230000    2.230000
        zeta-weighting                 0.500000
      * Dispersion:
        s8                             2.700000
        a1                             0.520000
        a2                             5.000000
        s9                             5.000000
      * Repulsion:
        kExp                           1.500000    1.000000
        rExp                           1.000000
      * Coulomb:
        alpha                          2.000000
        third order                    shell-resolved
        anisotropic                    true
        a3                             3.000000
        a5                             4.000000
        cn-shift                       1.200000
        cn-exp                         4.000000
        max-rad                        5.000000


          ...................................................
          :                      SETUP                      :
          :.................................................:
          :  # basis functions                  14          :
          :  # atomic orbitals                  14          :
          :  # shells                            8          :
          :  # electrons                        16          :
          :  max. iterations                   250          :
          :  Hamiltonian                  GFN2-xTB          :
          :  restarted?                      false          :
          :  GBSA solvation                  false          :
          :  PC potential                    false          :
          :  electronic temp.          300.0000000     K    :
          :  accuracy                    1.0000000          :
          :  -> integral cutoff          0.2500000E+02      :
          :  -> integral neglect         0.1000000E-07      :
          :  -> SCF convergence          0.1000000E-05 Eh   :
          :  -> wf. convergence          0.1000000E-03 e    :
          :  Broyden damping             0.4000000          :
          ...................................................

 iter      E             dE          RMSdq      gap      omega  full diag
   1     -9.0980802 -0.909808E+01  0.721E+00    1.35       0.0  T
   2     -9.0776462  0.204340E-01  0.438E+00    1.03       1.0  T
   3     -8.9067790  0.170867E+00  0.555E+00    2.27       1.0  T
   4     -9.1013175 -0.194538E+00  0.142E+00    1.23       1.0  T
   5     -9.1033173 -0.199979E-02  0.112E+00    1.19       1.0  T
   6     -9.1061446 -0.282738E-02  0.392E-01    1.10       1.0  T
   7     -9.1062730 -0.128358E-03  0.488E-02    1.07       1.0  T
   8     -9.1062799 -0.689500E-05  0.181E-02    1.07       2.5  T
   9     -9.1062788  0.105840E-05  0.158E-02    1.07       2.8  T
  10     -9.1062800 -0.112874E-05  0.385E-03    1.07      11.6  T
  11     -9.1062800 -0.601499E-07  0.146E-03    1.07      30.6  T
  12     -9.1062800 -0.947611E-08  0.845E-05    1.07     529.3  T
  13     -9.1062800 -0.250040E-10  0.336E-05    1.07    1331.1  T

   *** convergence criteria satisfied after 13 iterations ***

         #    Occupation            Energy/Eh            Energy/eV
      -------------------------------------------------------------
         1        2.0000           -0.7320233             -19.9194
       ...           ...                  ...                  ...
         3        2.0000           -0.5918043             -16.1038
         4        2.0000           -0.5911671             -16.0865
         5        2.0000           -0.5584947             -15.1974
         6        2.0000           -0.4930964             -13.4178
         7        2.0000           -0.4266424             -11.6095
         8        1.0000           -0.4057957             -11.0423
         9        1.0000           -0.3371921              -9.1755 (HOMO)
        10                         -0.2977594              -8.1024 (LUMO)
        11                          0.0403688               1.0985
        12                          0.1117257               3.0402
        13                          0.1268432               3.4516
        14                          0.1501353               4.0854
      -------------------------------------------------------------
                  HL-Gap            0.0394326 Eh            1.0730 eV
             Fermi-level           -0.3668474 Eh           -9.9824 eV

 transition dipole moment (au) for excitation:           8           9
     X       Y       Z   
  -0.1439   0.0322   0.0026  total (au/Debye):    0.147   0.375
 dE (eV)             :    1.867
 oscillator strength :  0.14063E-02

 SCC (total)                   0 d,  0 h,  0 min,  0.004 sec
 SCC setup                      ...        0 min,  0.000 sec (  2.674%)
 Dispersion                     ...        0 min,  0.000 sec (  0.422%)
 integral evaluation            ...        0 min,  0.001 sec ( 22.234%)
 zeroth order Hamiltonian       ...        0 min,  0.000 sec (  0.757%)
 iterations                     ...        0 min,  0.001 sec ( 33.365%)
 molecular gradient             ...        0 min,  0.001 sec ( 21.778%)
 printout                       ...        0 min,  0.001 sec ( 18.441%)

         :::::::::::::::::::::::::::::::::::::::::::::::::::::
         ::                     SUMMARY                     ::
         :::::::::::::::::::::::::::::::::::::::::::::::::::::
         :: total energy              -9.056348735958 Eh    ::
         :: gradient norm              0.136215567536 Eh/a0 ::
         :: HOMO-LUMO gap              1.073016459581 eV    ::
         ::.................................................::
         :: SCC energy                -9.106280040409 Eh    ::
         :: -> isotropic ES            0.007807744438 Eh    ::
         :: -> anisotropic ES          0.001572967392 Eh    ::
         :: -> anisotropic XC          0.003908908519 Eh    ::
         :: -> dispersion             -0.001388449008 Eh    ::
         :: repulsion energy           0.049931270780 Eh    ::
         :: add. restraining           0.000000000000 Eh    ::
         :::::::::::::::::::::::::::::::::::::::::::::::::::::

      ----------------------------------------------------------- 
     |                   =====================                   |
     |                        A N C O P T                        |
     |                   =====================                   |
     |               Approximate Normal Coordinate               |
     |                Rational Function Optimizer                |
      ----------------------------------------------------------- 

          ...................................................
          :                      SETUP                      :
          :.................................................:
          :   optimization level            normal          :
          :   max. optcycles                   200          :
          :   ANC micro-cycles                  20          :
          :   degrees of freedom                 9          :
          :.................................................:
          :   RF solver                   davidson          :
          :   write xtbopt.log                true          :
          :   linear?                        false          :
          :   energy convergence         0.5000000E-05 Eh   :
          :   grad. convergence          0.1000000E-02 Eh/α :
          :   maximium RF displ.         1.0000000          :
          :   Hlow (freq-cutoff)         0.1000000E-01      :
          :   Hmax (freq-cutoff)         5.0000000          :
          :   S6 in model hess.         20.0000000          :
          ...................................................

generating ANC from model Hessian ...
Using Lindh-Hessian (1995)
 Shifting diagonal of input Hessian by    0.0000000000000000     
 Lowest  eigenvalues of input Hessian
   -0.000000   -0.000000    0.000000    0.000000    0.000000    0.000000
    0.023842    0.072228    0.087425    0.117053    0.192556    0.668925
    1.002483    1.146507    1.376890
 Highest eigenvalues
    0.117053    0.192556    0.668925    1.002483    1.146507    1.376890


........................................................................
.............................. CYCLE    1 ..............................
........................................................................
   1     -9.1062800 -0.910628E+01  0.285E-05    1.07       0.0  T
   2     -9.1062800  0.685318E-11  0.368E-05    1.07    1214.6  T
   3     -9.1062800 -0.928324E-11  0.119E-05    1.07    3771.6  T
     SCC iter.                  ...        0 min,  0.001 sec
     gradient                   ...        0 min,  0.001 sec
 * total energy  :    -9.0563487 Eh     change       -0.3575451E-09 Eh
   gradient norm :     0.1362153 Eh/α   predicted     0.0000000E+00 (-100.00%)
   displ. norm   :     0.3416991 α      lambda       -0.3114839E-01
   maximum displ.:     0.1996471 α      in ANC's #2, #4, #6, ...

........................................................................
.............................. CYCLE    2 ..............................
........................................................................
   1     -9.1330986 -0.913310E+01  0.197E+00    1.90       0.0  T
   2     -9.1021941  0.309045E-01  0.293E+00    1.53       1.0  T
   3     -9.1400445 -0.378504E-01  0.858E-01    1.82       1.0  T
   4     -9.1416528 -0.160836E-02  0.291E-01    1.77       1.0  T
   5     -9.1416738 -0.209266E-04  0.123E-01    1.78       1.0  T
   6     -9.1416910 -0.172482E-04  0.615E-02    1.77       1.0  T
   7     -9.1416949 -0.386443E-05  0.213E-02    1.78       2.1  T
   8     -9.1416950 -0.143465E-06  0.596E-03    1.78       7.5  T
   9     -9.1416950 -0.351481E-08  0.239E-03    1.78      18.7  T
  10     -9.1416950 -0.345175E-08  0.989E-04    1.78      45.2  T
  11     -9.1416950 -0.166493E-08  0.119E-04    1.78     376.5  T
     SCC iter.                  ...        0 min,  0.001 sec
     gradient                   ...        0 min,  0.001 sec
 * total energy  :    -9.0788840 Eh     change       -0.2253527E-01 Eh
   gradient norm :     0.0780843 Eh/α   predicted    -0.1739260E-01 ( -22.82%)
   displ. norm   :     0.4379011 α      lambda       -0.2136640E-01
   maximum displ.:     0.3602714 α      in ANC's #1, #6, #7, ...

........................................................................
.............................. CYCLE    3 ..............................
........................................................................
   1     -9.1853501 -0.918535E+01  0.274E+00    2.99       0.0  T
   2     -9.1855827 -0.232563E-03  0.163E+00    3.07       1.0  T
   3     -9.1794740  0.610866E-02  0.149E+00    2.97       1.0  T
   4     -9.1862646 -0.679057E-02  0.369E-01    3.14       1.0  T
   5     -9.1862980 -0.334390E-04  0.196E-01    3.15       1.0  T
   6     -9.1862998 -0.173495E-05  0.580E-02    3.15       1.0  T
   7     -9.1863041 -0.430535E-05  0.246E-02    3.15       1.8  T
   8     -9.1863047 -0.634529E-06  0.818E-03    3.15       5.5  T
   9     -9.1863048 -0.886534E-07  0.558E-03    3.15       8.0  T
  10     -9.1863048 -0.427306E-07  0.194E-03    3.15      23.1  T
  11     -9.1863048 -0.618609E-08  0.239E-04    3.15     186.9  T
  12     -9.1863048 -0.107105E-09  0.732E-05    3.15     610.9  T
     SCC iter.                  ...        0 min,  0.001 sec
     gradient                   ...        0 min,  0.001 sec
 * total energy  :    -9.0902592 Eh     change       -0.1137519E-01 Eh
   gradient norm :     0.0461093 Eh/α   predicted    -0.1273179E-01 (  11.93%)
   displ. norm   :     0.1623240 α      lambda       -0.3229315E-02
   maximum displ.:     0.1411939 α      in ANC's #1, #2, #6, ...

........................................................................
.............................. CYCLE    4 ..............................
........................................................................
   1     -9.1984441 -0.919844E+01  0.157E+00    3.29       0.0  T
   2     -9.1985018 -0.577090E-04  0.918E-01    3.32       1.0  T
   3     -9.1977648  0.737069E-03  0.368E-01    3.27       1.0  T
   4     -9.1985605 -0.795723E-03  0.739E-02    3.33       1.0  T
   5     -9.1985656 -0.514570E-05  0.243E-02    3.32       1.8  T
   6     -9.1985657 -0.795989E-07  0.840E-03    3.32       5.3  T
   7     -9.1985658 -0.284356E-07  0.258E-03    3.32      17.4  T
   8     -9.1985658 -0.297883E-09  0.136E-03    3.32      32.9  T
   9     -9.1985658 -0.343996E-08  0.193E-04    3.32     231.8  T
  10     -9.1985658 -0.208686E-10  0.257E-05    3.32    1737.4  T
     SCC iter.                  ...        0 min,  0.001 sec
     gradient                   ...        0 min,  0.001 sec
 * total energy  :    -9.0921417 Eh     change       -0.1882544E-02 Eh
   gradient norm :     0.0274503 Eh/α   predicted    -0.1657204E-02 ( -11.97%)
   displ. norm   :     0.2606689 α      lambda       -0.4103377E-02
   maximum displ.:     0.1953937 α      in ANC's #2, #3, #1, ...

........................................................................
.............................. CYCLE    5 ..............................
........................................................................
   1     -9.1969260 -0.919693E+01  0.216E+00    3.30       0.0  T
   2     -9.1945707  0.235532E-02  0.112E+00    3.16       1.0  T
   3     -9.1875176  0.705309E-02  0.188E+00    3.42       1.0  T
   4     -9.1986032 -0.110856E-01  0.150E-01    3.22       1.0  T
   5     -9.1986144 -0.111574E-04  0.734E-02    3.23       1.0  T
   6     -9.1986189 -0.445888E-05  0.110E-02    3.23       4.0  T
   7     -9.1986189 -0.456270E-07  0.584E-03    3.23       7.7  T
   8     -9.1986189 -0.138085E-07  0.279E-03    3.23      16.0  T
   9     -9.1986189 -0.184550E-08  0.800E-04    3.23      55.9  T
  10     -9.1986189 -0.133920E-08  0.276E-04    3.23     161.8  T
     SCC iter.                  ...        0 min,  0.001 sec
     gradient                   ...        0 min,  0.001 sec
 * total energy  :    -9.0947917 Eh     change       -0.2649924E-02 Eh
   gradient norm :     0.0706987 Eh/α   predicted    -0.2191096E-02 ( -17.31%)
   displ. norm   :     0.1696316 α      lambda       -0.3639024E-02
   maximum displ.:     0.1158930 α      in ANC's #2, #3, #6, ...

........................................................................
.............................. CYCLE    6 ..............................
........................................................................
   1     -9.1885082 -0.918851E+01  0.977E-01    2.99       0.0  T
   2     -9.1876932  0.815022E-03  0.620E-01    2.89       1.0  T
   3     -9.1874510  0.242124E-03  0.745E-01    3.02       1.0  T
   4     -9.1891814 -0.173035E-02  0.109E-01    2.93       1.0  T
   5     -9.1891901 -0.868505E-05  0.362E-02    2.93       1.2  T
   6     -9.1891905 -0.432968E-06  0.134E-02    2.93       3.3  T
   7     -9.1891905 -0.122111E-07  0.474E-03    2.93       9.4  T
   8     -9.1891905 -0.298335E-07  0.110E-03    2.93      40.6  T
   9     -9.1891905 -0.118215E-08  0.109E-04    2.93     411.5  T
  10     -9.1891905 -0.862066E-11  0.724E-05    2.93     617.8  T
     SCC iter.                  ...        0 min,  0.001 sec
     gradient                   ...        0 min,  0.001 sec
 * total energy  :    -9.0971322 Eh     change       -0.2340579E-02 Eh
   gradient norm :     0.0484687 Eh/α   predicted    -0.1871871E-02 ( -20.03%)
   displ. norm   :     0.1325178 α      lambda       -0.3913676E-02
   maximum displ.:     0.0903689 α      in ANC's #1, #5, #6, ...

........................................................................
.............................. CYCLE    7 ..............................
........................................................................
   1     -9.1937478 -0.919375E+01  0.472E-01    3.04       0.0  T
   2     -9.1931729  0.574882E-03  0.578E-01    2.96       1.0  T
   3     -9.1943774 -0.120447E-02  0.206E-01    3.02       1.0  T
   4     -9.1943660  0.113546E-04  0.118E-01    3.01       1.0  T
   5     -9.1943922 -0.262305E-04  0.248E-02    3.02       1.8  T
   6     -9.1943922 -0.515086E-08  0.106E-02    3.02       4.2  T
   7     -9.1943924 -0.178272E-06  0.327E-03    3.02      13.7  T
   8     -9.1943924 -0.332529E-08  0.104E-03    3.02      43.0  T
   9     -9.1943924 -0.219771E-08  0.168E-04    3.02     266.8  T
  10     -9.1943924 -0.314628E-10  0.527E-05    3.02     849.4  T
     SCC iter.                  ...        0 min,  0.001 sec
     gradient                   ...        0 min,  0.001 sec
 * total energy  :    -9.0986328 Eh     change       -0.1500505E-02 Eh
   gradient norm :     0.0219081 Eh/α   predicted    -0.1991203E-02 (  32.70%)
   displ. norm   :     0.0913069 α      lambda       -0.9490349E-03
   maximum displ.:     0.0751139 α      in ANC's #1, #2, #6, ...

........................................................................
.............................. CYCLE    8 ..............................
........................................................................
   1     -9.1938753 -0.919388E+01  0.359E-01    2.89       0.0  T
   2     -9.1938383  0.369730E-04  0.238E-01    2.86       1.0  T
   3     -9.1936701  0.168183E-03  0.259E-01    2.91       1.0  T
   4     -9.1939201 -0.250027E-03  0.294E-02    2.87       1.5  T
   5     -9.1939205 -0.366290E-06  0.149E-02    2.87       3.0  T
   6     -9.1939206 -0.948189E-07  0.251E-03    2.87      17.8  T
   7     -9.1939206 -0.464900E-08  0.862E-04    2.87      51.9  T
   8     -9.1939206 -0.482016E-09  0.247E-04    2.87     181.1  T
     SCC iter.                  ...        0 min,  0.001 sec
     gradient                   ...        0 min,  0.001 sec
 * total energy  :    -9.0991260 Eh     change       -0.4932254E-03 Eh
   gradient norm :     0.0070760 Eh/α   predicted    -0.4784744E-03 (  -2.99%)
   displ. norm   :     0.0297889 α      lambda       -0.1414345E-03
   maximum displ.:     0.0247299 α      in ANC's #5, #2, #6, ...

........................................................................
.............................. CYCLE    9 ..............................
........................................................................
   1     -9.1919917 -0.919199E+01  0.134E-01    2.84       0.0  T
   2     -9.1919735  0.182614E-04  0.903E-02    2.82       1.0  T
   3     -9.1919858 -0.123014E-04  0.915E-02    2.84       1.0  T
   4     -9.1920091 -0.233579E-04  0.124E-02    2.83       3.6  T
   5     -9.1920092 -0.768389E-07  0.529E-03    2.83       8.4  T
   6     -9.1920092 -0.996947E-08  0.609E-04    2.83      73.5  T
   7     -9.1920092 -0.258495E-09  0.158E-04    2.83     283.4  T
     SCC iter.                  ...        0 min,  0.001 sec
     gradient                   ...        0 min,  0.001 sec
 * total energy  :    -9.0992064 Eh     change       -0.8046969E-04 Eh
   gradient norm :     0.0049074 Eh/α   predicted    -0.7078135E-04 ( -12.04%)
   displ. norm   :     0.0311108 α      lambda       -0.9093567E-04
   maximum displ.:     0.0197750 α      in ANC's #5, #4, #1, ...

........................................................................
.............................. CYCLE   10 ..............................
........................................................................
   1     -9.1918272 -0.919183E+01  0.109E-01    2.84       0.0  T
   2     -9.1918216  0.556466E-05  0.716E-02    2.82       1.0  T
   3     -9.1918136  0.803441E-05  0.766E-02    2.84       1.0  T
   4     -9.1918331 -0.195241E-04  0.460E-03    2.83       9.7  T
   5     -9.1918331 -0.304810E-07  0.285E-03    2.83      15.7  T
   6     -9.1918331 -0.194145E-08  0.105E-03    2.83      42.6  T
   7     -9.1918331 -0.108102E-08  0.260E-04    2.83     171.9  T
   8     -9.1918331 -0.466098E-10  0.877E-05    2.83     509.8  T
     SCC iter.                  ...        0 min,  0.001 sec
     gradient                   ...        0 min,  0.001 sec
 * total energy  :    -9.0992691 Eh     change       -0.6263354E-04 Eh
   gradient norm :     0.0036113 Eh/α   predicted    -0.4551049E-04 ( -27.34%)
   displ. norm   :     0.0319331 α      lambda       -0.5333927E-04
   maximum displ.:     0.0177394 α      in ANC's #4, #1, #2, ...

........................................................................
.............................. CYCLE   11 ..............................
........................................................................
   1     -9.1912502 -0.919125E+01  0.128E-01    2.83       0.0  T
   2     -9.1912336  0.166051E-04  0.954E-02    2.81       1.0  T
   3     -9.1912480 -0.143803E-04  0.806E-02    2.83       1.0  T
   4     -9.1912655 -0.175039E-04  0.590E-03    2.82       7.6  T
   5     -9.1912655 -0.318693E-07  0.306E-03    2.82      14.6  T
   6     -9.1912655 -0.176175E-08  0.123E-03    2.82      36.4  T
   7     -9.1912655 -0.120385E-08  0.310E-04    2.82     144.5  T
   8     -9.1912655 -0.728910E-10  0.113E-04    2.82     395.6  T
     SCC iter.                  ...        0 min,  0.001 sec
     gradient                   ...        0 min,  0.001 sec
 * total energy  :    -9.0993054 Eh     change       -0.3630489E-04 Eh
   gradient norm :     0.0045243 Eh/α   predicted    -0.2669917E-04 ( -26.46%)
   displ. norm   :     0.0261442 α      lambda       -0.3411210E-04
   maximum displ.:     0.0179226 α      in ANC's #1, #4, #2, ...

........................................................................
.............................. CYCLE   12 ..............................
........................................................................
   1     -9.1909676 -0.919097E+01  0.115E-01    2.82       0.0  T
   2     -9.1909486  0.190251E-04  0.942E-02    2.80       1.0  T
   3     -9.1909753 -0.267333E-04  0.648E-02    2.81       1.0  T
   4     -9.1909850 -0.972604E-05  0.665E-03    2.81       6.7  T
   5     -9.1909851 -0.508531E-07  0.251E-03    2.81      17.8  T
   6     -9.1909851 -0.121202E-08  0.974E-04    2.81      45.9  T
   7     -9.1909851 -0.702235E-09  0.309E-04    2.81     144.7  T
     SCC iter.                  ...        0 min,  0.000 sec
     gradient                   ...        0 min,  0.001 sec
 * total energy  :    -9.0993311 Eh     change       -0.2569366E-04 Eh
   gradient norm :     0.0045424 Eh/α   predicted    -0.1706664E-04 ( -33.58%)
   displ. norm   :     0.0347806 α      lambda       -0.4109678E-04
   maximum displ.:     0.0284844 α      in ANC's #1, #8, #4, ...

........................................................................
.............................. CYCLE   13 ..............................
........................................................................
   1     -9.1905585 -0.919056E+01  0.157E-01    2.80       0.0  T
   2     -9.1905269  0.315957E-04  0.124E-01    2.78       1.0  T
   3     -9.1905683 -0.413857E-04  0.910E-02    2.80       1.0  T
   4     -9.1905886 -0.202381E-04  0.103E-02    2.79       4.3  T
   5     -9.1905887 -0.114030E-06  0.373E-03    2.79      12.0  T
   6     -9.1905887 -0.291243E-08  0.130E-03    2.79      34.3  T
   7     -9.1905887 -0.116675E-08  0.439E-04    2.79     101.8  T
   8     -9.1905887 -0.184864E-09  0.118E-04    2.79     378.7  T
     SCC iter.                  ...        0 min,  0.001 sec
     gradient                   ...        0 min,  0.001 sec
 * total energy  :    -9.0993598 Eh     change       -0.2867932E-04 Eh
   gradient norm :     0.0038349 Eh/α   predicted    -0.2057413E-04 ( -28.26%)
   displ. norm   :     0.0278495 α      lambda       -0.2611461E-04
   maximum displ.:     0.0245236 α      in ANC's #1, #8, #7, ...

........................................................................
.............................. CYCLE   14 ..............................
........................................................................
   1     -9.1905037 -0.919050E+01  0.110E-01    2.79       0.0  T
   2     -9.1904939  0.982290E-05  0.780E-02    2.77       1.0  T
   3     -9.1904992 -0.529885E-05  0.708E-02    2.79       1.0  T
   4     -9.1905135 -0.143488E-04  0.646E-03    2.78       6.9  T
   5     -9.1905136 -0.430007E-07  0.280E-03    2.78      16.0  T
   6     -9.1905136 -0.218456E-08  0.743E-04    2.78      60.2  T
   7     -9.1905136 -0.301121E-09  0.285E-04    2.78     157.0  T
     SCC iter.                  ...        0 min,  0.000 sec
     gradient                   ...        0 min,  0.001 sec
 * total energy  :    -9.0993778 Eh     change       -0.1803486E-04 Eh
   gradient norm :     0.0024278 Eh/α   predicted    -0.1306684E-04 ( -27.55%)
   displ. norm   :     0.0203448 α      lambda       -0.1226366E-04
   maximum displ.:     0.0183759 α      in ANC's #1, #8, #7, ...

........................................................................
.............................. CYCLE   15 ..............................
........................................................................
   1     -9.1903965 -0.919040E+01  0.670E-02    2.77       0.0  T
   2     -9.1903963  0.172561E-06  0.401E-02    2.77       1.1  T
   3     -9.1903890  0.734472E-05  0.436E-02    2.78       1.0  T
   4     -9.1903972 -0.819418E-05  0.311E-03    2.77      14.4  T
   5     -9.1903972 -0.514065E-08  0.190E-03    2.77      23.6  T
   6     -9.1903972 -0.119769E-08  0.445E-04    2.77     100.6  T
   7     -9.1903972 -0.830624E-10  0.146E-04    2.77     306.4  T
     SCC iter.                  ...        0 min,  0.000 sec
     gradient                   ...        0 min,  0.001 sec
 * total energy  :    -9.0993854 Eh     change       -0.7577245E-05 Eh
   gradient norm :     0.0010701 Eh/α   predicted    -0.6134145E-05 ( -19.05%)
   displ. norm   :     0.0062173 α      lambda       -0.2027081E-05
   maximum displ.:     0.0046589 α      in ANC's #1, #3, #4, ...

........................................................................
.............................. CYCLE   16 ..............................
........................................................................
   1     -9.1906410 -0.919064E+01  0.201E-02    2.77       0.0  T
   2     -9.1906400  0.100187E-05  0.222E-02    2.78       2.0  T
   3     -9.1906419 -0.194165E-05  0.830E-03    2.78       5.4  T
   4     -9.1906419 -0.411059E-07  0.257E-03    2.78      17.4  T
   5     -9.1906420 -0.144557E-07  0.640E-04    2.78      69.9  T
   6     -9.1906420 -0.487821E-09  0.200E-04    2.78     223.5  T
     SCC iter.                  ...        0 min,  0.000 sec
     gradient                   ...        0 min,  0.001 sec
 * total energy  :    -9.0993863 Eh     change       -0.9166420E-06 Eh
   gradient norm :     0.0005554 Eh/α   predicted    -0.1015263E-05 (  10.76%)
   displ. norm   :     0.0016877 α      lambda       -0.4584258E-06
   maximum displ.:     0.0010259 α      in ANC's #2, #4, #8, ...

   *** GEOMETRY OPTIMIZATION CONVERGED AFTER 16 ITERATIONS ***

------------------------------------------------------------------------
 total energy gain   :        -0.0430376 Eh      -27.0065 kcal/mol
 total RMSD          :         0.4784251 a0        0.2532 Å
 total power (kW/mol):        -7.0621922 (step)-3160.6881 (real)
------------------------------------------------------------------------

 ANCopt (total)                0 d,  0 h,  0 min,  0.036 sec
 optimizer setup                ...        0 min,  0.000 sec (  0.195%)
 model hessian                  ...        0 min,  0.000 sec (  0.274%)
 ANC generation                 ...        0 min,  0.000 sec (  0.165%)
 coordinate transformation      ...        0 min,  0.000 sec (  0.111%)
 single point calculation       ...        0 min,  0.034 sec ( 95.335%)
 optimization log               ...        0 min,  0.000 sec (  1.209%)
 hessian update                 ...        0 min,  0.000 sec (  0.119%)
 rational function              ...        0 min,  0.000 sec (  1.049%)

================
 final structure:
================
5
 xtb: 6.2.2 (9d81278992624c895f80dd42a50cac0aa55982e2)
C        -0.41478579499363    0.02049947746562    0.12430722315156
C        -1.41800607759645   -0.85441995844460    0.09244838753921
O         0.87334575596043   -0.33910677302998    0.33794996734491
H        -0.54063879635275    1.00193707097306   -0.36291779297820
H         1.50008391298240    0.17109018303591   -0.19178778505748

 Bond Distances (Angstroems)
 ---------------------------
C1-C2=1.3315         C1-O3=1.3543         C1-H4=1.1029         C2-C1=1.3315         O3-C1=1.3543         O3-H5=0.9663         
H4-C1=1.1029         H5-O3=0.9663         
 C  H  Rav=1.1029 sigma=0.0000  Rmin=1.1029  Rmax=1.1029     1
 C  C  Rav=1.3315 sigma=0.0000  Rmin=1.3315  Rmax=1.3315     1
 O  H  Rav=0.9663 sigma=0.0000  Rmin=0.9663  Rmax=0.9663     1
 O  C  Rav=1.3543 sigma=0.0000  Rmin=1.3543  Rmax=1.3543     1

 selected bond angles (degree)
 --------------------
O3-C1-C2=123.09                H4-C1-C2=119.22                H4-C1-O3=114.49                H5-O3-C1=112.97                

 selected dihedral angles (degree)
 ---------------------------------
H5-O3-C1-C2=142.19            H5-O3-C1-H4=342.64            
           -------------------------------------------------
          |                Final Singlepoint                |
           -------------------------------------------------

          ...................................................
          :                      SETUP                      :
          :.................................................:
          :  # basis functions                  14          :
          :  # atomic orbitals                  14          :
          :  # shells                            8          :
          :  # electrons                        16          :
          :  max. iterations                   250          :
          :  Hamiltonian                  GFN2-xTB          :
          :  restarted?                      false          :
          :  GBSA solvation                  false          :
          :  PC potential                    false          :
          :  electronic temp.          300.0000000     K    :
          :  accuracy                    1.0000000          :
          :  -> integral cutoff          0.2500000E+02      :
          :  -> integral neglect         0.1000000E-07      :
          :  -> SCF convergence          0.1000000E-05 Eh   :
          :  -> wf. convergence          0.1000000E-03 e    :
          :  Broyden damping             0.4000000          :
          ...................................................

 iter      E             dE          RMSdq      gap      omega  full diag
   1     -9.1906420 -0.919064E+01  0.393E-05    2.78       0.0  T
   2     -9.1906420  0.116884E-11  0.292E-05    2.78    1528.9  T
   3     -9.1906420 -0.108180E-11  0.274E-05    2.78    1633.1  T

   *** convergence criteria satisfied after 3 iterations ***

         #    Occupation            Energy/Eh            Energy/eV
      -------------------------------------------------------------
         1        2.0000           -0.7394766             -20.1222
       ...           ...                  ...                  ...
         3        2.0000           -0.6094702             -16.5845
         4        2.0000           -0.5919386             -16.1075
         5        2.0000           -0.5467902             -14.8789
         6        2.0000           -0.4997324             -13.5984
         7        2.0000           -0.4132018             -11.2438
         8        1.0000           -0.3914307             -10.6514
         9        1.0000           -0.3173770              -8.6363 (HOMO)
        10                         -0.2153770              -5.8607 (LUMO)
        11                          0.0604811               1.6458
        12                          0.1249119               3.3990
        13                          0.2841567               7.7323
        14                          0.5273459              14.3498
      -------------------------------------------------------------
                  HL-Gap            0.1020000 Eh            2.7756 eV
             Fermi-level           -0.3343466 Eh           -9.0980 eV

 transition dipole moment (au) for excitation:           8           9
     X       Y       Z   
   0.1109  -0.0229   0.0579  total (au/Debye):    0.127   0.323
 dE (eV)             :    2.015
 oscillator strength :  0.11300E-02

 SCC (total)                   0 d,  0 h,  0 min,  0.002 sec
 SCC setup                      ...        0 min,  0.000 sec (  2.188%)
 Dispersion                     ...        0 min,  0.000 sec (  0.337%)
 integral evaluation            ...        0 min,  0.001 sec ( 31.188%)
 zeroth order Hamiltonian       ...        0 min,  0.000 sec (  0.455%)
 iterations                     ...        0 min,  0.000 sec ( 10.495%)
 molecular gradient             ...        0 min,  0.001 sec ( 29.941%)
 printout                       ...        0 min,  0.001 sec ( 24.960%)

         :::::::::::::::::::::::::::::::::::::::::::::::::::::
         ::                     SUMMARY                     ::
         :::::::::::::::::::::::::::::::::::::::::::::::::::::
         :: total energy              -9.099386285965 Eh    ::
         :: gradient norm              0.000555533299 Eh/a0 ::
         :: HOMO-LUMO gap              2.775562572005 eV    ::
         ::.................................................::
         :: SCC energy                -9.190641955781 Eh    ::
         :: -> isotropic ES            0.012760667802 Eh    ::
         :: -> anisotropic ES          0.002598561227 Eh    ::
         :: -> anisotropic XC          0.002142577789 Eh    ::
         :: -> dispersion             -0.001412648574 Eh    ::
         :: repulsion energy           0.091255648601 Eh    ::
         :: add. restraining           0.000000000000 Eh    ::
         :::::::::::::::::::::::::::::::::::::::::::::::::::::

           ------------------------------------------------- 
          |                Numerical Hessian                |
           ------------------------------------------------- 
step length          :   0.00500
SCC accuracy         :   0.30000
Hessian scale factor :   1.00000
frozen atoms in %    :   0.00000    0
RMS gradient         :   0.00056
estimated CPU  time      0.00 min
estimated wall time      0.00 min

writing file <hessian>.

 projected vibrational frequencies (cm-1)
eigval :       -0.00    -0.00     0.00     0.00     0.00     0.00
eigval :      372.62   506.55   777.23  1033.47  1088.64  1213.16
eigval :     1320.67  2740.90  3466.91
           -------------------------------------------------
          |                Property Printout                |
           -------------------------------------------------

    * Orbital Energies and Occupations

         #    Occupation            Energy/Eh            Energy/eV
      -------------------------------------------------------------
         1        2.0000           -0.7394767             -20.1222
         2        2.0000           -0.6627816             -18.0352
         3        2.0000           -0.6094703             -16.5845
         4        2.0000           -0.5919387             -16.1075
         5        2.0000           -0.5467903             -14.8789
         6        2.0000           -0.4997325             -13.5984
         7        2.0000           -0.4132018             -11.2438
         8        1.0000           -0.3914308             -10.6514
         9        1.0000           -0.3173770              -8.6363 (HOMO)
        10                         -0.2153770              -5.8607 (LUMO)
        11                          0.0604810               1.6458
        12                          0.1249118               3.3990
        13                          0.2841566               7.7323
        14                          0.5273459              14.3498
      -------------------------------------------------------------
                  HL-Gap            0.1020000 Eh            2.7756 eV
             Fermi-level           -0.3343466 Eh           -9.0980 eV

     #   Z        covCN         q      C6AA      α(0)
     1   6 C      2.757     0.145    24.830     8.160
     2   6 C      0.982    -0.175    41.737    10.851
     3   8 O      1.659    -0.327    19.480     5.958
     4   1 H      0.923     0.045     2.388     2.417
     5   1 H      0.805     0.312     0.685     1.300

 Mol. C6AA /au·bohr⁶  :        330.050948
 Mol. C8AA /au·bohr⁸  :       7979.863335
 Mol. α(0) /au        :         28.686129


Wiberg/Mayer (AO) data.
largest (>0.10) Wiberg bond orders for each atom
          total WBO             WBO to atom ...
     1  C   3.678        C    2 1.665    O    3 1.112    H    4 0.900
     2  C   1.776        C    1 1.665
     3  O   2.086        C    1 1.112    H    5 0.879
     4  H   0.920        C    1 0.900
     5  H   0.899        O    3 0.879

MOs/occ written to file <molden.input>


molecular dipole:
                 x           y           z       tot (Debye)
 q only:        0.657       0.684      -0.349
   full:        0.949       1.080      -0.395       3.790
molecular quadrupole (traceless):
                xx          xy          yy          xz          yz          zz
 q only:        0.731      -0.327      -0.613      -0.868       0.135      -0.118
  q+dip:        0.097      -0.259      -0.238      -1.940      -0.401       0.142
   full:        0.041      -0.891      -0.812      -2.213      -0.264       0.771
Molecule has no symmetry elements
It seems to be the C1 point group

           -------------------------------------------------
          |                Geometry Summary                 |
           -------------------------------------------------

      molecular mass/u    :       42.0367582
   center of mass at/Å    :       -0.1682611      -0.3392058       0.1772575
  moments of inertia/u·Å² :        0.6047324E+01   0.4183585E+02   0.4726687E+02
rotational constants/cm⁻¹ :        0.2787618E+01   0.4029471E+00   0.3566479E+00

 * 2 selected distances

     #   Z        #   Z                                     value/Å
     1   6 C      3   8 O                                 1.3543422 (max)
     3   8 O      5   1 H                                 0.9662938 (min)

 * 2 distinct bonds (by element types)

   Z      Z             #   av. dist./Å        max./Å        min./Å
   1 H    8 O           1     0.9662938     0.9662938     0.9662938
   6 C    8 O           1     1.3543422     1.3543422     1.3543422

           -------------------------------------------------
          |               Frequency Printout                |
           -------------------------------------------------
 projected vibrational frequencies (cm-1)
eigval :       -0.00    -0.00     0.00     0.00     0.00     0.00
eigval :      372.62   506.55   777.23  1033.47  1088.64  1213.16
eigval :     1320.67  2740.90  3466.91
 reduced masses (amu)
   1: 13.47   2: 12.07   3: 11.45   4: 10.74   5: 11.64   6: 12.65   7:  2.52   8: 12.54
   9:  5.74  10:  6.20  11: 13.18  12:  3.14  13:  7.21  14:  1.68  15:  1.88
 IR intensities (amu)
   1:  0.11   2:  0.25   3:  0.18   4:  0.36   5:  0.34   6:  0.12   7:  0.88   8:  0.35
   9:  0.64  10:  2.52  11:  1.63  12:  1.18  13:  1.95  14:  0.28  15:  0.28
 Raman intensities (amu)
   1:  0.00   2:  0.00   3:  0.00   4:  0.00   5:  0.00   6:  0.00   7:  0.00   8:  0.00
   9:  0.00  10:  0.00  11:  0.00  12:  0.00  13:  0.00  14:  0.00  15:  0.00
 output can be read by thermo (or use thermo option).
 writing <g98.out> molden fake output.
 recommended (thermochemical) frequency scaling factor: 1.0
           -------------------------------------------------
          |             Thermodynamic Functions             |
           -------------------------------------------------

c1  symmetry found (for desy threshold:  0.10E+00) used in thermo

          ...................................................
          :                      SETUP                      :
          :.................................................:
          :  # frequencies                           9      :
          :  # imaginary freq.                       0      :
          :  linear?                             false      :
          :  only rotor calc.                    false      :
          :  symmetry                               c1      :
          :  rotational number                       1      :
          :  scaling factor                  1.0000000      :
          :  rotor cutoff                   50.0000000 cm⁻¹ :
          :  imag. cutoff                  -20.0000000 cm⁻¹ :
          :.................................................:

    mode    ω/cm⁻¹     T·S(HO)/kcal·mol⁻¹    T·S(FR)/kcal·mol⁻¹   T·S(vib)
   ------------------------------------------------------------------------
   ------------------------------------------------------------------------

   temp. (K)  partition function   enthalpy   heat capacity  entropy
                                   cal/mol     cal/K/mol   cal/K/mol   J/K/mol
 298.15  VIB   1.37                  455.675      4.420      2.149
         ROT  0.835E+04              888.752      2.981     20.927
         INT  0.114E+05             1344.427      7.401     23.076
         TR   0.264E+27             1481.254      4.968     37.118
         TOT                        2825.6812    12.3691    60.1938   251.8509

   temp. (K)  partition function   enthalpy   heat capacity  entropy
                                   cal/mol     cal/K/mol   cal/K/mol   J/K/mol
 120.00  VIB   1.01                   15.931      0.653      0.161
         ROT  0.213E+04              357.707      2.981     18.214
         INT  0.216E+04              373.638      3.634     18.374
         TR   0.673E+26              596.178      4.968     32.599
         TOT                         969.8155     8.6022    50.9731   213.2714

   temp. (K)  partition function   enthalpy   heat capacity  entropy
                                   cal/mol     cal/K/mol   cal/K/mol   J/K/mol
 100.00  VIB   1.01                    6.049      0.347      0.071
         ROT  0.162E+04              298.089      2.981     17.670
         INT  0.163E+04              304.138      3.328     17.742
         TR   0.512E+26              496.815      4.968     31.693
         TOT                         800.9534     8.2957    49.4350   206.8358

   temp. (K)  partition function   enthalpy   heat capacity  entropy
                                   cal/mol     cal/K/mol   cal/K/mol   J/K/mol
  80.00  VIB   1.00                    1.473      0.129      0.021
         ROT  0.116E+04              238.471      2.981     17.005
         INT  0.116E+04              239.944      3.109     17.026
         TR   0.367E+26              397.452      4.968     30.585
         TOT                         637.3963     8.0776    47.6115   199.2064

   temp. (K)  partition function   enthalpy   heat capacity  entropy
                                   cal/mol     cal/K/mol   cal/K/mol   J/K/mol
  60.00  VIB   1.00                    0.148      0.022      0.003
         ROT   754.                  178.853      2.981     16.148
         INT   754.                  179.001      3.003     16.150
         TR   0.238E+26              298.089      4.968     29.157
         TOT                         477.0904     7.9715    45.3069   189.5641

   temp. (K)  partition function   enthalpy   heat capacity  entropy
                                   cal/mol     cal/K/mol   cal/K/mol   J/K/mol
  40.00  VIB   1.00                    0.002      0.001     -0.000
         ROT   410.                  119.236      2.981     14.939
         INT   411.                  119.237      2.981     14.939
         TR   0.130E+26              198.726      4.968     27.143
         TOT                         317.9632     7.9496    42.0820   176.0709

   temp. (K)  partition function   enthalpy   heat capacity  entropy
                                   cal/mol     cal/K/mol   cal/K/mol   J/K/mol
  20.00  VIB   1.00                    0.000      0.000     -0.001
         ROT   145.                   59.618      2.981     12.873
         INT   145.                   59.618      2.981     12.872
         TR   0.458E+25               99.363      4.968     23.701
         TOT                         158.9808     7.9490    36.5734   153.0233

   temp. (K)  partition function   enthalpy   heat capacity  entropy
                                   cal/mol     cal/K/mol   cal/K/mol   J/K/mol
  10.00  VIB   1.00                    0.000      0.000     -0.001
         ROT   51.3                   29.809      2.981     10.807
         INT   51.3                   29.809      2.981     10.806
         TR   0.162E+25               49.681      4.968     20.259
         TOT                          79.4904     7.9490    31.0650   129.9758

       T/K    H(0)-H(T)+PV         H(T)/Eh          T*S/Eh         G(T)/Eh
   ------------------------------------------------------------------------
    298.15    0.450301E-02    0.330260E-01    0.286000E-01    0.442597E-02
    120.00    0.154550E-02    0.300685E-01    0.974769E-02    0.203208E-01
    100.00    0.127640E-02    0.297994E-01    0.787796E-02    0.219214E-01
     80.00    0.101576E-02    0.295387E-01    0.606990E-02    0.234688E-01
     60.00    0.760292E-03    0.292833E-01    0.433207E-02    0.249512E-01
     40.00    0.506707E-03    0.290297E-01    0.268247E-02    0.263472E-01
     20.00    0.253352E-03    0.287763E-01    0.116567E-02    0.276107E-01
     10.00    0.126676E-03    0.286497E-01    0.495052E-03    0.281546E-01 (used)
   ------------------------------------------------------------------------

         :::::::::::::::::::::::::::::::::::::::::::::::::::::
         ::                  THERMODYNAMIC                  ::
         :::::::::::::::::::::::::::::::::::::::::::::::::::::
         :: total free energy          -9.071231675239 Eh   ::
         ::.................................................::
         :: total energy               -9.099386286164 Eh   ::
         :: zero point energy           0.028522986426 Eh   ::
         :: G(RRHO) w/o ZPVE           -0.000368375501 Eh   ::
         :: G(RRHO) contrib.            0.028154610924 Eh   ::
         :::::::::::::::::::::::::::::::::::::::::::::::::::::

optimized geometry written to: xtbopt.xyz


           -------------------------------------------------
          | TOTAL ENERGY               -9.099386286164 Eh   |
          | TOTAL ENTHALPY             -9.070736623722 Eh   |
          | TOTAL FREE ENERGY          -9.071231675239 Eh   |
          | GRADIENT NORM               0.000555420497 Eh/α |
          | HOMO-LUMO GAP               2.775560238577 eV   |
           -------------------------------------------------

------------------------------------------------------------------------
 * finished run on 2020/05/12 at 11:45:13.900     
------------------------------------------------------------------------
 total:
 * wall-time:     0 d,  0 h,  0 min,  0.122 sec
 *  cpu-time:     0 d,  0 h,  0 min,  0.122 sec
 * ratio c/w:     0.999 speedup
 SCF:
 * wall-time:     0 d,  0 h,  0 min,  0.004 sec
 *  cpu-time:     0 d,  0 h,  0 min,  0.004 sec
 * ratio c/w:     0.999 speedup
 ANC optimizer:
 * wall-time:     0 d,  0 h,  0 min,  0.039 sec
 *  cpu-time:     0 d,  0 h,  0 min,  0.039 sec
 * ratio c/w:     1.000 speedup
 numerical hessian:
 * wall-time:     0 d,  0 h,  0 min,  0.060 sec
 *  cpu-time:     0 d,  0 h,  0 min,  0.059 sec
 * ratio c/w:     0.999 speedup

