[Molden Format]
[Title]
[Atoms] AU
C      1     6 -0.91346434050187E+00  0.14675479550707E+01 -0.18382949824081E+01
C      2     6  0.36275037805760E+00 -0.57160192057025E+00  0.92404861979537E+00
C      3     6  0.15396297963028E+01  0.73558718778813E+00 -0.10572772727276E+01
C      4     6 -0.14458588249275E+01 -0.10021240631549E+01 -0.96633975070793E+00
H      5     1  0.45694299105907E+00 -0.62941104885967E+00  0.29378633860516E+01
[GTO]
           1 0
 s           4   1.0000000000000000     
   51.049363095579913      -0.16312063210127389     
   8.7911227406887544      -0.19911024581000730     
  0.70640422258929825       0.31882047753655751     
  0.26922813413411617       0.12706504184240380     
 p           4   1.0000000000000000     
   5.8263656140800002       0.73716451545209605     
   1.5106896018720002       0.68216371614850257     
  0.53256483288000001       0.35783053929253711     
  0.21202323690600003        5.3983030275847881E-002

           2 0
 s           4   1.0000000000000000     
   51.049363095579913      -0.16312063210127389     
   8.7911227406887544      -0.19911024581000730     
  0.70640422258929825       0.31882047753655751     
  0.26922813413411617       0.12706504184240380     
 p           4   1.0000000000000000     
   5.8263656140800002       0.73716451545209605     
   1.5106896018720002       0.68216371614850257     
  0.53256483288000001       0.35783053929253711     
  0.21202323690600003        5.3983030275847881E-002

           3 0
 s           4   1.0000000000000000     
   51.049363095579913      -0.16312063210127389     
   8.7911227406887544      -0.19911024581000730     
  0.70640422258929825       0.31882047753655751     
  0.26922813413411617       0.12706504184240380     
 p           4   1.0000000000000000     
   5.8263656140800002       0.73716451545209605     
   1.5106896018720002       0.68216371614850257     
  0.53256483288000001       0.35783053929253711     
  0.21202323690600003        5.3983030275847881E-002

           4 0
 s           4   1.0000000000000000     
   51.049363095579913      -0.16312063210127389     
   8.7911227406887544      -0.19911024581000730     
  0.70640422258929825       0.31882047753655751     
  0.26922813413411617       0.12706504184240380     
 p           4   1.0000000000000000     
   5.8263656140800002       0.73716451545209605     
   1.5106896018720002       0.68216371614850257     
  0.53256483288000001       0.35783053929253711     
  0.21202323690600003        5.3983030275847881E-002

           5 0
 s           3   1.0000000000000000     
   3.3702276975336001       0.27359110588908298     
  0.61389118221497996       0.26460540653860526     
  0.16614291148415999        8.2465947534082318E-002

[MO]
Sym=     1a
Ene=  -0.71808490485474363     
Spin= Alpha
Occup=     2.00000000
           1  0.28821650437562030     
           2   5.7981628317439485E-002
           3  -9.5504221564620753E-002
           4   7.6378105420583597E-002
           5  0.32711259552915256     
           6  -3.7404517579556332E-002
           7   5.6103541312637534E-002
           8 -0.15352033275419533     
           9  0.31063546925860319     
          10 -0.13429414964025072     
          11  -4.4726870648375376E-002
          12   4.1173624111396426E-002
          13  0.31068871930716424     
          14  0.10689213258917368     
          15   9.5878917762055454E-002
          16   3.3698978243042896E-002
          17   4.4010873096173263E-002
Sym=     2a
Ene=  -0.62329352115615833     
Spin= Alpha
Occup=     2.00000000
           1 -0.39345747775346412     
           2  -2.1048486165194162E-002
           3   4.1052023884615860E-002
           4   4.3199697924486816E-002
           5  0.48777435618300741     
           6   4.7445926500440716E-002
           7  -7.1678842392587303E-002
           8  0.12688756920242744     
           9  -4.6316254891682326E-002
          10   9.5717635830153483E-002
          11 -0.11981859342785699     
          12  0.19758695329602532     
          13  -5.1062859126528443E-002
          14   6.6740574480349341E-002
          15 -0.13745544508702651     
          16  0.19804448213742196     
          17  0.27889411776527817     
Sym=     3a
Ene=  -0.60344433899576588     
Spin= Alpha
Occup=     2.00000000
           1   9.5677971554708886E-004
           2  0.23590580257380189     
           3  0.13728825544900641     
           4  -7.6985301464359644E-003
           5  -2.3732603259781094E-003
           6  0.33025818766661102     
           7  0.19272912541362230     
           8  -1.1857338636131335E-002
           9  0.48549316231813078     
          10   4.5099982165153263E-002
          11   6.7106815639284847E-002
          12   6.7205097690391971E-002
          13 -0.48434982540533128     
          14   7.7416390814281630E-002
          15   5.0204416778254777E-003
          16  -7.2816197083382037E-002
          17  -2.2512555264935412E-003
Sym=     4a
Ene=  -0.56284705219626174     
Spin= Alpha
Occup=     2.00000000
           1 -0.38998954842903027     
           2   6.0516613403371639E-002
           3 -0.10639257953281316     
           4  -3.2388272873609923E-002
           5  -7.9186927304425517E-002
           6   8.2044100701910386E-002
           7 -0.16522421771829543     
           8 -0.41557105605252459     
           9  0.13437648053276674     
          10  0.10530352759326245     
          11 -0.25395934806685910     
          12   1.1967721845986051E-002
          13  0.13644794794139051     
          14  0.16917229519925606     
          15 -0.21731430827303364     
          16   1.0922231322478567E-002
          17 -0.34341872032904436     
Sym=     5a
Ene=  -0.51003440012234158     
Spin= Alpha
Occup=     2.00000000
           1 -0.14917939133258715     
           2  -6.4068364092988744E-002
           3  0.14871048074803542     
           4  0.37585246344836887     
           5  -4.7169973505778527E-002
           6 -0.21468405176693542     
           7  0.34028342635185982     
           8 -0.18379988050353430     
           9 -0.10164647204212596     
          10  -6.8986086518427206E-002
          11  0.16157556604802181     
          12  0.31662616582901121     
          13 -0.10444457580032854     
          14  -8.4953825303872466E-002
          15  0.13872332055320474     
          16  0.33164821991511301     
          17 -0.26256723518080327     
Sym=     6a
Ene=  -0.50727395050821933     
Spin= Alpha
Occup=     2.00000000
           1  -3.5736291062970172E-003
           2 -0.38205656188471282     
           3 -0.21823136712348548     
           4   1.9918986729376253E-002
           5  -7.8808941334202582E-004
           6  0.35796841356124320     
           7  0.21815088528436308     
           8  -1.5528720401432290E-002
           9  -7.3326109361162684E-002
          10  0.11933614282738260     
          11 -0.23692380267255123     
          12  0.32221459434635430     
          13   7.0210922114849764E-002
          14 -0.16744355561285976     
          15  0.21701268968993528     
          16 -0.30558970462717933     
          17  -6.2864951905861541E-003
Sym=     7a
Ene=  -0.44619397658498161     
Spin= Alpha
Occup=     2.00000000
           1  0.22965180394236154     
           2  -7.3922748834357066E-002
           3  0.12203313455160168     
           4  -8.5623841451571675E-002
           5  0.11730045388647969     
           6   7.9434278630455893E-002
           7 -0.14137608801751336     
           8 -0.11451363220171762     
           9 -0.45965720942992194     
          10 -0.37871265828993733     
          11 -0.28254778873988834     
          12   4.6532949344774602E-002
          13 -0.45891818708194249     
          14  0.43305273666822314     
          15  0.19186068212284066     
          16   1.9927917681025219E-002
          17  -6.8060637836015694E-002
Sym=     8a
Ene=  -0.42044812447990054     
Spin= Alpha
Occup=     1.99999986
           1 -0.48268359397308064     
           2  0.31436330544281538     
           3 -0.53315639452659391     
           4  0.12390802863175021     
           5 -0.10692231866213915     
           6 -0.16685049727009002     
           7  0.29756771875024557     
           8  0.16237711139090025     
           9 -0.10312443861619615     
          10 -0.23300909945603598     
          11  -4.7576375901685494E-002
          12 -0.15591673617383242     
          13 -0.10149350134722823     
          14  0.14918852703959468     
          15  0.17289464534006183     
          16 -0.17075601856874240     
          17  0.11440462676675781     
Sym=     9a
Ene=  -0.39051545144014616     
Spin= Alpha
Occup=     1.00000014
           1  -1.4805020317628802E-003
           2 -0.21840187025389726     
           3 -0.12915465903602971     
           4   8.7996923750594692E-003
           5  -5.5356054373304256E-004
           6 -0.19395891214140190     
           7 -0.11356074793603965     
           8   6.4033138513682015E-003
           9  0.29312348000850075     
          10  0.44938238503542566     
          11 -0.22516074604708777     
          12 -0.34306137136825610     
          13 -0.29392130654764603     
          14   4.2490127198248323E-002
          15  0.51223314595675562     
          16  0.32631036603093805     
          17   6.2679266628332369E-004
Sym=    10a
Ene=  -0.30657414186417103     
Spin= Alpha
Occup=     0.00000000
           1   4.4475532026257626E-002
           2  -3.5522748643191736E-002
           3   1.6098484120648394E-002
           4 -0.79044498576166167     
           5  0.10709447244391124     
           6 -0.34821992016959358     
           7  0.59294130921009947     
           8  -3.2473774915185542E-002
           9  -5.7354292741559041E-004
          10   8.7102268225714388E-002
          11 -0.11283374672658074     
          12  0.11190617993035887     
          13  -2.0251685667283946E-003
          14   6.3229706338132893E-002
          15 -0.12601945874234663     
          16  0.11286414076565256     
          17  -7.0187069376301661E-002
Sym=    11a
Ene=  -0.26853854460482657     
Spin= Alpha
Occup=     0.00000000
           1  -2.0054609350353865E-005
           2  0.22337321358682433     
           3  0.13141664841065359     
           4  -7.2456088979287389E-003
           5  -4.9804857773151211E-004
           6  0.21640091083712279     
           7  0.13020216900453468     
           8  -6.2073990288516586E-003
           9  -2.0479986985097169E-002
          10 -0.36362740235613900     
          11 -0.59008869796502250     
          12 -0.28637575063487031     
          13   2.1338674359116648E-002
          14 -0.67649656160919569     
          15  -1.9716003943495503E-002
          16  0.31609700713555117     
          17   7.8337208385269080E-004
Sym=    12a
Ene=  -0.24596954235446150     
Spin= Alpha
Occup=     0.00000000
           1   7.6293313678837169E-002
           2 -0.22050320521828601     
           3  0.39971120715941927     
           4  0.44596175906995600     
           5 -0.16716229264301205     
           6 -0.23702154036581116     
           7  0.41077626058684069     
           8   8.9379106565451977E-002
           9   8.2968599645372149E-002
          10  0.12978199093226978     
          11 -0.43818174172121693     
          12 -0.30259027693900259     
          13   8.3238182960749738E-002
          14  0.30782731002319041     
          15 -0.33724127086463068     
          16 -0.31093870243373256     
          17  0.18356579171221726     
Sym=    13a
Ene=   0.10308301261166702     
Spin= Alpha
Occup=     0.00000000
           1  0.18709959023543837     
           2   9.2717158798358373E-002
           3 -0.14582130171425509     
           4  -6.5379065613520318E-002
           5  -1.0744156451400175     
           6   3.8878709890384736E-002
           7  -7.7821366674788575E-002
           8 -0.26240367893808830     
           9   8.5702154676874864E-002
          10   2.2347772521136204E-005
          11 -0.17212309509151016     
          12  0.43293557813931444     
          13   9.4698714521238375E-002
          14  0.17162071477274315     
          15  -6.2929551631418751E-002
          16  0.42449970143903543     
          17  0.86513345779020412     
Sym=    14a
Ene=   0.11846451980427443     
Spin= Alpha
Occup=     0.00000000
           1  -2.3989163440260200E-003
           2 -0.65939842236815471     
           3 -0.38087793956604882     
           4   1.7966545066958453E-002
           5  -6.5797353202912100E-003
           6  0.57772411275267699     
           7  0.33522934242729557     
           8  -2.0523066935905152E-002
           9   3.2553392516877673E-002
          10 -0.28527743027404984     
          11  0.40582461632208977     
          12 -0.54191481575420486     
          13  -2.8921111959602102E-002
          14  0.24059167441862470     
          15 -0.42846213020298463     
          16  0.54585469652898733     
          17   6.6781325530180062E-003
Sym=    15a
Ene=   0.17982983605036965     
Spin= Alpha
Occup=     0.00000000
           1  -1.0439361982413629E-002
           2 -0.52524546649345971     
           3 -0.29506768794214466     
           4   1.1546706874928469E-002
           5  -8.5142200756704693E-003
           6 -0.59841645932308019     
           7 -0.34924709186098146     
           8   4.5590458996280685E-003
           9  0.65887997472077631     
          10 -0.53291242913024073     
          11  -8.5662858685179338E-002
          12  0.24474535683698015     
          13 -0.65279988181654758     
          14 -0.34941878447318403     
          15 -0.41196680150822440     
          16 -0.22315759405643740     
          17   1.6550140123461211E-002
Sym=    16a
Ene=   0.27005653256712597     
Spin= Alpha
Occup=     0.00000000
           1  0.72904165215005035     
           2  0.31951170934566803     
           3 -0.56255782449414604     
           4  0.26979359845298406     
           5   1.4456835622018596E-002
           6   1.5884287603422517E-002
           7  -7.6913381590180980E-003
           8  0.71220760136796213     
           9 -0.13677200574666470     
          10  0.35779640349880260     
          11 -0.32588818393571667     
          12  0.32860746432206178     
          13 -0.16192885111261726     
          14  0.11194636191642877     
          15 -0.48289617728919848     
          16  0.33373330893809483     
          17 -0.60322902560745373     
Sym=    17a
Ene=   0.64337289344629944     
Spin= Alpha
Occup=     0.00000000
           1  0.48125221385893513     
           2  0.24514005913838385     
           3 -0.41248735279181376     
           4  0.22587197030199915     
           5  0.40662285906024337     
           6 -0.12929558795043478     
           7  0.17253320056559943     
           8  -1.0093462167703475     
           9 -0.62739548989451011     
          10  0.52721996573988028     
          11  0.16444182119407402     
          12 -0.24776136862320866     
          13 -0.62769018843100310     
          14 -0.41246214118818303     
          15 -0.38616785783366281     
          16 -0.21572388946302667     
          17  0.52976850144911325     
