$hessian                                                                        
        0.2052343535  -0.1039618470   0.0751248247   0.0210017981   0.0405030432
       -0.0314736788  -0.2113211110   0.0512396411  -0.0301539327  -0.0178817953
        0.0233011750  -0.0127078423   0.0029667547  -0.0110820123  -0.0007893710
       -0.1039618470   0.3170392019  -0.1320670535   0.0406959618  -0.0210845535
        0.0496026925   0.1300539323  -0.0593242296   0.0306647911  -0.0559768714
       -0.2519715704   0.0504352974  -0.0108111758   0.0153411517   0.0013642725
        0.0751248247  -0.1320670535   0.1113479285  -0.0301240115   0.0477956057
       -0.0333028919  -0.0769433893   0.0091054968  -0.0370281803   0.0307059122
        0.0772660161  -0.0414750058   0.0012366638  -0.0021000651   0.0004581496
        0.0210017981   0.0406959618  -0.0301240115   0.1975526504   0.0461474478
        0.0796801544  -0.0711913808  -0.0324936976   0.0516037282  -0.1193623837
       -0.0515394460  -0.0854764029  -0.0280006841  -0.0028102659  -0.0156834683
        0.0405030432  -0.0210845535   0.0477956057   0.0461474478   0.1379544238
       -0.1073411200  -0.0675709828  -0.0637862012   0.0656069605  -0.0165914688
       -0.0287528043  -0.0171891796  -0.0024880394  -0.0243308648   0.0111277333
       -0.0314736788   0.0496026925  -0.0333028919   0.0796801544  -0.1073411200
        0.8211971102   0.1352386896   0.1199146071  -0.2348044306  -0.1749229125
       -0.0611934643  -0.2199025818  -0.0085222528  -0.0009827153  -0.3331872060
       -0.2113211110   0.1300539323  -0.0769433893  -0.0711913808  -0.0675709828
        0.1352386896   0.3778654799   0.0511437884  -0.0591179755  -0.0974216824
       -0.1163223057   0.0027861047   0.0020686942   0.0026955678  -0.0019634295
        0.0512396411  -0.0593242296   0.0091054968  -0.0324936976  -0.0637862012
        0.1199146071   0.0511437884   0.1222506990  -0.1067025335  -0.0731565436
        0.0089442818  -0.0217036584   0.0032668117  -0.0080845500  -0.0006139120
       -0.0301539327   0.0306647911  -0.0370281803   0.0516037282   0.0656069605
       -0.2348044306  -0.0591179755  -0.1067025335   0.2132268657   0.0274601730
       -0.0065951590   0.0707610764   0.0102080069   0.0170259409  -0.0121553312
       -0.0178817953  -0.0559768714   0.0307059122  -0.1193623837  -0.0165914688
       -0.1749229125  -0.0974216824  -0.0731565436   0.0274601730   0.2384672359
        0.1394397335   0.1157024306  -0.0038013746   0.0062851502   0.0010543966
        0.0233011750  -0.2519715704   0.0772660161  -0.0515394460  -0.0287528043
       -0.0611934643  -0.1163223057   0.0089442818  -0.0065951590   0.1394397335
        0.2746289330  -0.0105560956   0.0051208432  -0.0028488401   0.0010787028
       -0.0127078423   0.0504352974  -0.0414750058  -0.0854764029  -0.0171891796
       -0.2199025818   0.0027861047  -0.0217036584   0.0707610764   0.1157024306
       -0.0105560956   0.2019082043  -0.0203042902  -0.0009863638  -0.0112916932
        0.0029667547  -0.0108111758   0.0012366638  -0.0280006841  -0.0024880394
       -0.0085222528   0.0020686942   0.0032668117   0.0102080069  -0.0038013746
        0.0051208432  -0.0203042902   0.0267666097   0.0049115603   0.0173818722
       -0.0110820123   0.0153411517  -0.0021000651  -0.0028102659  -0.0243308648
       -0.0009827153   0.0026955678  -0.0080845500   0.0170259409   0.0062851502
       -0.0028488401  -0.0009863638   0.0049115603   0.0199231032  -0.0129567967
       -0.0007893710   0.0013642725   0.0004581496  -0.0156834683   0.0111277333
       -0.3331872060  -0.0019634295  -0.0006139120  -0.0121553312   0.0010543966
        0.0010787028  -0.0112916932   0.0173818722  -0.0129567967   0.3561760807
