5
 energy: -8.716495297952 gnorm: 0.000673199413 xtb: 6.2.2 (9d81278992624c895f80dd42a50cac0aa55982e2)
C        -0.48338455681449    0.77659300578293   -0.97278390186247
C         0.19195925112449   -0.30247873813810    0.48898551673009
C         0.81473707702186    0.38925601252483   -0.55948709024229
C        -0.76511561132194   -0.53030126592037   -0.51136502150871
H         0.24180383998485   -0.33307001424929    1.55465049688512
