$hessian                                                                        
        0.3869674889  -0.0011358863  -0.0000013488  -0.1952482340   0.2223211886
        0.0000002935  -0.1917192549  -0.2211853023   0.0000010553
       -0.0011358863   0.6774161893  -0.0000011783   0.2304705117  -0.3369402382
       -0.0000002164  -0.2293346254  -0.3404759511   0.0000013948
       -0.0000013488  -0.0000011783   0.0000000000   0.0000002793  -0.0000001880
       -0.0000000000   0.0000010695   0.0000013663  -0.0000000000
       -0.1952482340   0.2304705117   0.0000002793   0.3746309205  -0.2255269692
       -0.0000009141  -0.1793826865  -0.0049435425   0.0000006348
        0.2223211886  -0.3369402382  -0.0000001880  -0.2255269692   0.2946744326
        0.0000002729   0.0032057806   0.0422658056  -0.0000000850
        0.0000002935  -0.0000002164  -0.0000000000  -0.0000009141   0.0000002729
        0.0000000000   0.0000006206  -0.0000000565  -0.0000000000
       -0.1917192549  -0.2293346254   0.0000010695  -0.1793826865   0.0032057806
        0.0000006206   0.3711019414   0.2261288448  -0.0000016901
       -0.2211853023  -0.3404759511   0.0000013663  -0.0049435425   0.0422658056
       -0.0000000565   0.2261288448   0.2982101454  -0.0000013098
        0.0000010553   0.0000013948  -0.0000000000   0.0000006348  -0.0000000850
       -0.0000000000  -0.0000016901  -0.0000013098   0.0000000000
