 Entering Gaussian System
 *********************************************
 Gaussian 98:
 frequency output generated by the xtb code
 *********************************************
                         Standard orientation:
 --------------------------------------------------------------------
  Center     Atomic     Atomic              Coordinates (Angstroms)
  Number     Number      Type              X           Y           Z
 --------------------------------------------------------------------
    1          8             0       -0.002474    0.632342   -0.000001
    2          7             0        0.828797   -0.312933   -0.000002
    3          7             0       -0.826323   -0.319410    0.000003
 --------------------------------------------------------------------
     1 basis functions        1 primitive gaussians
     1 alpha electrons        1 beta electrons

 Harmonic frequencies (cm**-1), IR intensities (KM/Mole),
 Raman scattering activities (A**4/amu), Raman depolarization ratios,
 reduced masses (AMU), force constants (mDyne/A) and normal coordinates:
                      1                      2                      3
                        a                      a                      a 
 Frequencies --   772.2075              1218.0463              1484.3813
 Red. masses --    14.3583                14.8651                14.9234
 Frc consts  --     0.0000                 0.0000                 0.0000
 IR Inten    --     0.1083                 1.5879                 0.6825
 Raman Activ --     0.0000                 0.0000                 0.0000
 Depolar     --     0.0000                 0.0000                 0.0000
 Atom AN      X      Y      Z        X      Y      Z        X      Y      Z
   1   8     0.00  -0.42   0.00     0.66   0.00  -0.00    -0.00   0.68  -0.00
   2   7     0.60   0.23  -0.00    -0.35   0.40   0.00     0.37  -0.36  -0.00
   3   7    -0.60   0.22   0.00    -0.35  -0.40   0.00    -0.37  -0.36   0.00
