[Molden Format]
[Title]
[Atoms] AU
O      1     8 -0.46761051179912E-02  0.11949538065609E+01 -0.20692432643061E-05
N      2     7  0.15661998259807E+01 -0.59135722441607E+00 -0.44349808003229E-05
N      3     7 -0.15615237208627E+01 -0.60359658214485E+00  0.65042240646290E-05
[GTO]
           1 0
 s           4   1.0000000000000000     
   69.137961906196551      -0.20478756370077797     
   11.906129132707308      -0.24997023136827334     
  0.95670827744340703       0.40025880240639616     
  0.36462520496073686       0.15952206667693555     
 p           4   1.0000000000000000     
   8.2124193257781641        1.1321556799186829     
   2.1293576997098116        1.0476840782254817     
  0.75066448202360914       0.54956508217158984     
  0.29885246543283073        8.2908486592766617E-002

           2 0
 s           4   1.0000000000000000     
   63.594024466941008      -0.19234388414721629     
   10.951417231523665      -0.23478107924953728     
  0.87999310257376984       0.37593753901700888     
  0.33538715296521110       0.14982889271862770     
 p           4   1.0000000000000000     
   7.2965040481495080       0.97658666315667420     
   1.8918745450712575       0.90372226730345739     
  0.66694432110824120       0.47404958461536373     
  0.26552202674130870        7.1516067715011844E-002

           3 0
 s           4   1.0000000000000000     
   63.594024466941008      -0.19234388414721629     
   10.951417231523665      -0.23478107924953728     
  0.87999310257376984       0.37593753901700888     
  0.33538715296521110       0.14982889271862770     
 p           4   1.0000000000000000     
   7.2965040481495080       0.97658666315667420     
   1.8918745450712575       0.90372226730345739     
  0.66694432110824120       0.47404958461536373     
  0.26552202674130870        7.1516067715011844E-002

[MO]
Sym=     1a
Ene=  -0.88195098726736554     
Spin= Alpha
Occup=     2.00000000
           1  0.60468587805120888     
           2   9.0957402641117741E-004
           3 -0.23252065562090604     
           4   4.6836769397353769E-007
           5  0.19590042252604270     
           6 -0.17516784973823768     
           7  0.12307322240082187     
           8   3.9526398450910408E-007
           9  0.19590062219679805     
          10  0.17419931787574791     
          11  0.12444058417185218     
          12  -7.8633232466016619E-007
Sym=     2a
Ene=  -0.76423305136325759     
Spin= Alpha
Occup=     2.00000000
           1  -6.4208235203300919E-007
           2  0.66495170094122980     
           3   2.6011690436175657E-003
           4  -2.3829044562610671E-006
           5  0.29970696892505944     
           6  -1.0630059215392389E-002
           7  0.21987372250698273     
           8  -3.7381310905008155E-007
           9 -0.29970616841944109     
          10  -8.9082506934650158E-003
          11 -0.21995035957313258     
          12   3.6423076728589469E-007
Sym=     3a
Ene=  -0.73974234670994377     
Spin= Alpha
Occup=     2.00000000
           1 -0.62942739217094146     
           2   2.3208593535736172E-003
           3 -0.59332240915759893     
           4   8.6493909712625314E-007
           5  0.21813572739535192     
           6 -0.15656909534395358     
           7 -0.10101724775117212     
           8   6.6570697101139918E-007
           9  0.21813661933606482     
          10  0.15735480795652243     
          11  -9.9788146873138403E-002
          12  -3.9353633076559300E-007
Sym=     4a
Ene=  -0.70021239502563148     
Spin= Alpha
Occup=     2.00000000
           1   1.4844897034142898E-007
           2  -2.8187623680015737E-006
           3  -1.2844807346126525E-006
           4 -0.78357406756952763     
           5  -2.9214087641700621E-008
           6  -1.1257255493804428E-006
           7  -5.3044162465081432E-007
           8 -0.31776823605372800     
           9  -3.6572268056300041E-008
          10  -1.1496176815917415E-006
          11  -4.8791474491353492E-007
          12 -0.31776826234636601     
Sym=     5a
Ene=  -0.52735620580620535     
Spin= Alpha
Occup=     2.00000000
           1  -1.5417611294164973E-007
           2  0.26782182714221259     
           3   1.0470468389556932E-003
           4  -9.8899627493171614E-007
           5 -0.56950193315977626     
           6 -0.24555847205256767     
           7  0.31469060656493231     
           8   2.9848654647947543E-007
           9  0.56949871170712996     
          10 -0.24308671290124850     
          11 -0.31660105487382206     
          12   1.4676176092935640E-006
Sym=     6a
Ene=  -0.52218306305618156     
Spin= Alpha
Occup=     2.00000000
           1  -4.8471198724538214E-002
           2   1.1150678453298261E-003
           3 -0.28514139564407098     
           4   5.3587902465879137E-007
           5 -0.57704092939254248     
           6 -0.32405015365224987     
           7  0.21104072169804380     
           8   8.1363471309853827E-007
           9 -0.57704405604524267     
          10  0.32239009212007569     
          11  0.21357215083138667     
          12  -1.5809183864140445E-006
Sym=     7a
Ene=  -0.50741771066073271     
Spin= Alpha
Occup=     2.00000000
           1  0.18763429940667994     
           2  -1.3969607189868723E-003
           3  0.35702761883003381     
           4  -6.3883539649632287E-007
           5  -4.6041582684248870E-002
           6 -0.39811420203229825     
           7 -0.50047476100006316     
           8   2.2204180557366530E-006
           9  -4.6041029932788073E-002
          10  0.40201828445114518     
          11 -0.49734378712769733     
          12  -4.9571486859323203E-007
Sym=     8a
Ene=  -0.42799391244286183     
Spin= Alpha
Occup=     2.00000000
           1  -2.9418784063229677E-008
           2   1.1341698701439289E-009
           3  -8.7562268746765442E-009
           4   5.8163859303561286E-007
           5  -2.3080144240085919E-008
           6  -2.5525358737824536E-006
           7  -1.2387126827420393E-006
           8 -0.73446742056836911     
           9  -8.4473939244548890E-008
          10   2.5865890306674134E-006
          11   1.3499744311935308E-006
          12  0.73446627387269003     
Sym=     9a
Ene=  -0.38526644160196993     
Spin= Alpha
Occup=     0.00000000
           1   1.8930762290301616E-008
           2  -2.3497460790150087E-006
           3  -1.1560904934169250E-006
           4 -0.66552433884318019     
           5  -2.1134534867911509E-008
           6   2.3115340760780466E-006
           7   1.1587946968748968E-006
           8  0.62567744528585478     
           9  -2.8910481556008484E-008
          10   2.3250325595071125E-006
          11   1.0651346517729451E-006
          12  0.62567878165126323     
Sym=    10a
Ene=  -0.29992914750593053     
Spin= Alpha
Occup=     0.00000000
           1  -2.9551865742754892E-008
           2  0.22986932181915082     
           3   8.9946962112671589E-004
           4  -8.9232660554964335E-007
           5  0.14549775694869888     
           6 -0.66736637267341814     
           7 -0.41899979258325232     
           8   3.1748844436853635E-006
           9 -0.14549782726391952     
          10 -0.67062527534128780     
          11  0.41376429713963953     
          12   1.7363220027175288E-006
Sym=    11a
Ene=    4.8604178348982251E-002
Spin= Alpha
Occup=     0.00000000
           1  -4.5523900430650076E-007
           2 -0.86311898361884143     
           3  -3.3770842960633325E-003
           4   3.0309794279729053E-006
           5  0.46645777162548163     
           6 -0.42807625177369857     
           7  0.55370477528400608     
           8   5.4305798315708796E-007
           9 -0.46645738224507372     
          10 -0.42372916574495101     
          11 -0.55703745785052183     
          12   2.4782067260857696E-006
Sym=    12a
Ene=   0.16277486220771545     
Spin= Alpha
Occup=     0.00000000
           1  0.81270651817716155     
           2   3.3310716411827320E-003
           3 -0.85136498713805264     
           4   1.4660551282494267E-006
           5 -0.40723023203014552     
           6  0.43908182414658453     
           7 -0.50546969789681773     
           8  -6.6580064161341855E-007
           9 -0.40723085086413663     
          10 -0.43511296817797479     
          11 -0.50889122604785553     
          12   2.4178838724852903E-006
