3
 energy: -9.575445494059 gnorm: 0.156478195485 xtb: 6.2.2 (9d81278992624c895f80dd42a50cac0aa55982e2)
O        -0.00216400000000    0.55226000000000    0.00000000000000
N         1.07115600000000   -0.27193700000000    0.00000000000000
N        -1.06899200000000   -0.28032300000000    0.00000000000000
3
 energy: -9.608308337182 gnorm: 0.096239098869 xtb: 6.2.2 (9d81278992624c895f80dd42a50cac0aa55982e2)
O        -0.00228768771214    0.58381982215226    0.00000000000000
N         0.95625882705753   -0.28816737749062    0.00000000000000
N        -0.95397113934539   -0.29565244466165    0.00000000000000
3
 energy: -9.616587437113 gnorm: 0.111793804126 xtb: 6.2.2 (9d81278992624c895f80dd42a50cac0aa55982e2)
O        -0.00256482339378    0.65455553985860    0.00000000000000
N         0.75996529189434   -0.32430492512392    0.00000000000000
N        -0.75740046850057   -0.33025061473468    0.00000000000000
3
 energy: -9.623739094187 gnorm: 0.029375026921 xtb: 6.2.2 (9d81278992624c895f80dd42a50cac0aa55982e2)
O        -0.00242004930623    0.61757233252738    0.00000000000000
N         0.86019122632107   -0.30542036562570    0.00000000000000
N        -0.85777117701483   -0.31215196690167    0.00000000000000
3
 energy: -9.624954725741 gnorm: 0.009994489450 xtb: 6.2.2 (9d81278992624c895f80dd42a50cac0aa55982e2)
O        -0.00246189280387    0.62826122935341    0.00000000000000
N         0.83773452042295   -0.31085287522017    0.00000000000000
N        -0.83527262761908   -0.31740835413324    0.00000000000000
3
 energy: -9.625086416900 gnorm: 0.001710340455 xtb: 6.2.2 (9d81278992624c895f80dd42a50cac0aa55982e2)
O        -0.00248341904993    0.63376995043235    0.00000000000000
N         0.82616377731275   -0.31365259399170    0.00000000000000
N        -0.82368035826281   -0.32011735644065    0.00000000000000
3
 energy: -9.625089154042 gnorm: 0.000962129166 xtb: 6.2.2 (9d81278992624c895f80dd42a50cac0aa55982e2)
O        -0.00247779942690    0.63234236821839    0.00000000000000
N         0.82879897102902   -0.31292845612121    0.00000000000000
N        -0.82632117160212   -0.31941391209718    0.00000000000000
