      -----------------------------------------------------------      
     |                   =====================                   |     
     |                           x T B                           |     
     |                   =====================                   |     
     |                         S. Grimme                         |     
     |          Mulliken Center for Theoretical Chemistry        |     
     |                    University of Bonn                     |     
      -----------------------------------------------------------      

   * xtb version 6.2.2 (9d81278992624c895f80dd42a50cac0aa55982e2) compiled by '@Darwin' on 04/03/2020

   xtb is free software: you can redistribute it and/or modify it under
   the terms of the GNU Lesser General Public License as published by
   the Free Software Foundation, either version 3 of the License, or
   (at your option) any later version.
   
   xtb is distributed in the hope that it will be useful,
   but WITHOUT ANY WARRANTY; without even the implied warranty of
   MERCHANTABILITY or FITNESS FOR A PARTICULAR PURPOSE.  See the
   GNU Lesser General Public License for more details.
   
   Cite this work as:
   * S. Grimme, C. Bannwarth, P. Shushkov, J. Chem. Theory Comput., 2017,
     13, 1989-2009. DOI: 10.1021/acs.jctc.7b00118
   * C. Bannwarth, S. Ehlert and S. Grimme., J. Chem. Theory Comput., 2019,
     15, 1652-1671. DOI: 10.1021/acs.jctc.8b01176
   * P. Pracht, E. Caldeweyher, S. Ehlert, S. Grimme, ChemRxiv, 2019, preprint.
     DOI: 10.26434/chemrxiv.8326202.v1
   
   for DFT-D4:
   * E. Caldeweyher, C. Bannwarth and S. Grimme, J. Chem. Phys., 2017,
     147, 034112. DOI: 10.1063/1.4993215
   * E. Caldeweyher, S. Ehlert, A. Hansen, H. Neugebauer, S. Spicher,
     C. Bannwarth and S. Grimme, J. Chem. Phys., 2019, 150, 154122.
     DOI: 10.1063/1.5090222
   
   for sTDA-xTB:
   * S. Grimme and C. Bannwarth, J. Chem. Phys., 2016, 145, 054103.
     DOI: 10.1063/1.4959605
   
   in the mass-spec context:
   * V. Asgeirsson, C. Bauer and S. Grimme, Chem. Sci., 2017, 8, 4879.
     DOI: 10.1039/c7sc00601b
   
   for metadynamics refer to:
   * S. Grimme, J. Chem. Theory Comput., 2019, 155, 2847-2862
     DOI: 10.1021/acs.jctc.9b00143
   
   with help from (in alphabetical order)
   C. Bannwarth, F. Bohle, G. Brandenburg, E. Caldeweyher, M. Checinski,
   S. Dohm, S. Ehlert, S. Ehrlich, F. März, H. Neugebauer, J. Pisarek,
   P. Pracht, P. Shushkov, and S. Spicher.
   
 * started run on 2020/05/12 at 11:43:54.380     

           -------------------------------------------------
          |                Calculation Setup                |
           -------------------------------------------------

          program call               : xtb --input N2O1_0_S_0.input N2O1_0_S_0.xyz --ohess --molden --namespace N2O1_0_S_0 output.out
          calculation namespace      : N2O1_0_S_0
          coordinate file            : N2O1_0_S_0.xyz
          number of atoms            :                     3
          number of electrons        :                    16
          charge                     :                     0
          spin                       :                   0.0
          first test random number   :      0.84952855634354

   ID    Z sym.   atoms
    1    8 O      1
    2    7 N      2, 3

           -------------------------------------------------
          |                 G F N 2 - x T B                 |
           -------------------------------------------------

        Reference                      10.1021/acs.jctc.8b01176
      * Hamiltonian:
        H0-scaling (s, p, d)           1.850000    2.230000    2.230000
        zeta-weighting                 0.500000
      * Dispersion:
        s8                             2.700000
        a1                             0.520000
        a2                             5.000000
        s9                             5.000000
      * Repulsion:
        kExp                           1.500000    1.000000
        rExp                           1.000000
      * Coulomb:
        alpha                          2.000000
        third order                    shell-resolved
        anisotropic                    true
        a3                             3.000000
        a5                             4.000000
        cn-shift                       1.200000
        cn-exp                         4.000000
        max-rad                        5.000000


          ...................................................
          :                      SETUP                      :
          :.................................................:
          :  # basis functions                  12          :
          :  # atomic orbitals                  12          :
          :  # shells                            6          :
          :  # electrons                        16          :
          :  max. iterations                   250          :
          :  Hamiltonian                  GFN2-xTB          :
          :  restarted?                      false          :
          :  GBSA solvation                  false          :
          :  PC potential                    false          :
          :  electronic temp.          300.0000000     K    :
          :  accuracy                    1.0000000          :
          :  -> integral cutoff          0.2500000E+02      :
          :  -> integral neglect         0.1000000E-07      :
          :  -> SCF convergence          0.1000000E-05 Eh   :
          :  -> wf. convergence          0.1000000E-03 e    :
          :  Broyden damping             0.4000000          :
          ...................................................

 iter      E             dE          RMSdq      gap      omega  full diag
   1     -9.5796545 -0.957965E+01  0.566E+00    0.80       0.0  T
   2     -9.5844683 -0.481375E-02  0.293E+00    0.73       1.0  T
   3     -9.5850541 -0.585871E-03  0.864E-01    0.73       1.0  T
   4     -9.5851011 -0.470082E-04  0.262E-01    0.71       1.0  T
   5     -9.5851013 -0.161411E-06  0.461E-02    0.71       1.3  T
   6     -9.5850009  0.100367E-03  0.181E-01    0.71       1.0  T
   7     -9.5851048 -0.103917E-03  0.980E-03    0.71       5.9  T
   8     -9.5851049 -0.103243E-06  0.312E-03    0.71      18.5  T
   9     -9.5851050 -0.136843E-08  0.283E-04    0.71     203.9  T
  10     -9.5851050 -0.465050E-11  0.141E-04    0.71     408.4  T

   *** convergence criteria satisfied after 10 iterations ***

         #    Occupation            Energy/Eh            Energy/eV
      -------------------------------------------------------------
         1        2.0000           -0.8268025             -22.4984
         2        2.0000           -0.7486247             -20.3711
         3        2.0000           -0.6994187             -19.0322
         4        2.0000           -0.6534604             -17.7816
         5        2.0000           -0.5532817             -15.0556
         6        2.0000           -0.5423475             -14.7580
         7        2.0000           -0.4617879             -12.5659
         8        2.0000           -0.4608345             -12.5399 (HOMO)
         9        0.0000           -0.4345701             -11.8253 (LUMO)
        10                         -0.3930896             -10.6965
        11                         -0.0629625              -1.7133
        12                         -0.0218298              -0.5940
      -------------------------------------------------------------
                  HL-Gap            0.0262644 Eh            0.7147 eV
             Fermi-level           -0.4475539 Eh          -12.1786 eV

 SCC (total)                   0 d,  0 h,  0 min,  0.002 sec
 SCC setup                      ...        0 min,  0.000 sec (  4.529%)
 Dispersion                     ...        0 min,  0.000 sec (  0.474%)
 integral evaluation            ...        0 min,  0.000 sec ( 27.434%)
 zeroth order Hamiltonian       ...        0 min,  0.000 sec (  0.532%)
 iterations                     ...        0 min,  0.001 sec ( 40.331%)
 molecular gradient             ...        0 min,  0.000 sec ( 23.652%)
 printout                       ...        0 min,  0.000 sec (  2.473%)

         :::::::::::::::::::::::::::::::::::::::::::::::::::::
         ::                     SUMMARY                     ::
         :::::::::::::::::::::::::::::::::::::::::::::::::::::
         :: total energy              -9.575445494056 Eh    ::
         :: gradient norm              0.156478518193 Eh/a0 ::
         :: HOMO-LUMO gap              0.714690316714 eV    ::
         ::.................................................::
         :: SCC energy                -9.585104950382 Eh    ::
         :: -> isotropic ES            0.000659190440 Eh    ::
         :: -> anisotropic ES          0.005306954689 Eh    ::
         :: -> anisotropic XC          0.007262911264 Eh    ::
         :: -> dispersion             -0.000686932220 Eh    ::
         :: repulsion energy           0.009659455505 Eh    ::
         :: add. restraining           0.000000000000 Eh    ::
         :::::::::::::::::::::::::::::::::::::::::::::::::::::

      ----------------------------------------------------------- 
     |                   =====================                   |
     |                        A N C O P T                        |
     |                   =====================                   |
     |               Approximate Normal Coordinate               |
     |                Rational Function Optimizer                |
      ----------------------------------------------------------- 

          ...................................................
          :                      SETUP                      :
          :.................................................:
          :   optimization level            normal          :
          :   max. optcycles                   200          :
          :   ANC micro-cycles                  20          :
          :   degrees of freedom                 3          :
          :.................................................:
          :   RF solver                   davidson          :
          :   write xtbopt.log                true          :
          :   linear?                        false          :
          :   energy convergence         0.5000000E-05 Eh   :
          :   grad. convergence          0.1000000E-02 Eh/α :
          :   maximium RF displ.         1.0000000          :
          :   Hlow (freq-cutoff)         0.1000000E-01      :
          :   Hmax (freq-cutoff)         5.0000000          :
          :   S6 in model hess.         20.0000000          :
          ...................................................

generating ANC from model Hessian ...
Using Lindh-Hessian (1995)
 Shifting diagonal of input Hessian by    0.0000000000000000     
 Lowest  eigenvalues of input Hessian
   -0.000000   -0.000000    0.000000    0.000000    0.000000    0.000000
    0.232925    1.216619    1.452422
 Highest eigenvalues
    0.000000    0.000000    0.000000    0.232925    1.216619    1.452422


........................................................................
.............................. CYCLE    1 ..............................
........................................................................
   1     -9.5851050 -0.958510E+01  0.913E-06    0.71       0.0  T
   2     -9.5851050  0.371259E-11  0.345E-05    0.71    1675.6  T
   3     -9.5851050 -0.368594E-11  0.669E-06    0.71    8628.2  T
     SCC iter.                  ...        0 min,  0.000 sec
     gradient                   ...        0 min,  0.000 sec
 * total energy  :    -9.5754455 Eh     change       -0.2259526E-11 Eh
   gradient norm :     0.1564782 Eh/α   predicted     0.0000000E+00 (-100.00%)
   displ. norm   :     0.3157913 α      lambda       -0.3828398E-01
   maximum displ.:     0.2971531 α      in ANC's #1, #2, #3, ...

........................................................................
.............................. CYCLE    2 ..............................
........................................................................
   1     -9.6233120 -0.962331E+01  0.212E+00    1.59       0.0  T
   2     -9.6247504 -0.143833E-02  0.103E+00    1.60       1.0  T
   3     -9.6248522 -0.101859E-03  0.344E-01    1.62       1.0  T
   4     -9.6248612 -0.897336E-05  0.975E-02    1.63       1.0  T
   5     -9.6248627 -0.156426E-05  0.253E-02    1.63       2.3  T
   6     -9.6248628 -0.942820E-08  0.374E-03    1.63      15.4  T
   7     -9.6248626  0.165780E-06  0.834E-03    1.63       6.9  T
   8     -9.6248628 -0.202458E-06  0.580E-04    1.63      99.6  T
   9     -9.6248628 -0.994387E-10  0.188E-05    1.63    3068.8  T
     SCC iter.                  ...        0 min,  0.000 sec
     gradient                   ...        0 min,  0.000 sec
 * total energy  :    -9.6083083 Eh     change       -0.3286284E-01 Eh
   gradient norm :     0.0962391 Eh/α   predicted    -0.2105090E-01 ( -35.94%)
   displ. norm   :     0.5498997 α      lambda       -0.4401122E-01
   maximum displ.:     0.5290275 α      in ANC's #1, #2, #3, ...

........................................................................
.............................. CYCLE    3 ..............................
........................................................................
   1     -9.6439096 -0.964391E+01  0.471E+00    0.47       0.0  T
   2     -9.6461183 -0.220871E-02  0.245E+00    0.40       1.0  T
   3     -9.6465768 -0.458443E-03  0.336E-01    0.41       1.0  T
   4     -9.6465821 -0.535054E-05  0.154E-01    0.41       1.0  T
   5     -9.6461506  0.431568E-03  0.472E-01    0.40       1.0  T
   6     -9.6465861 -0.435571E-03  0.326E-02    0.40       1.8  T
   7     -9.6465866 -0.418486E-06  0.284E-03    0.40      20.3  T
   8     -9.6465866 -0.193261E-08  0.882E-04    0.40      65.5  T
   9     -9.6465866 -0.654961E-10  0.536E-05    0.40    1077.7  T
     SCC iter.                  ...        0 min,  0.001 sec
     gradient                   ...        0 min,  0.001 sec
 * total energy  :    -9.6165874 Eh     change       -0.8279100E-02 Eh
   gradient norm :     0.1117938 Eh/α   predicted    -0.2865988E-01 ( 246.17%)
   displ. norm   :     0.2813819 α      lambda       -0.2779458E-01
   maximum displ.:     0.2712173 α      in ANC's #1, #2, #3, ...

........................................................................
.............................. CYCLE    4 ..............................
........................................................................
   1     -9.6452997 -0.964530E+01  0.273E+00    1.43       0.0  T
   2     -9.6461984 -0.898713E-03  0.135E+00    1.45       1.0  T
   3     -9.6464041 -0.205736E-03  0.219E-01    1.45       1.0  T
   4     -9.6464082 -0.406881E-05  0.655E-02    1.45       1.0  T
   5     -9.6464087 -0.537164E-06  0.206E-02    1.45       2.8  T
   6     -9.6464052  0.351471E-05  0.390E-02    1.45       1.5  T
   7     -9.6464088 -0.359392E-05  0.104E-03    1.45      55.4  T
   8     -9.6464088 -0.194520E-09  0.457E-04    1.45     126.3  T
   9     -9.6464088 -0.120348E-10  0.231E-05    1.45    2498.3  T
     SCC iter.                  ...        0 min,  0.000 sec
     gradient                   ...        0 min,  0.000 sec
 * total energy  :    -9.6237391 Eh     change       -0.7151657E-02 Eh
   gradient norm :     0.0293750 Eh/α   predicted    -0.1499761E-01 ( 109.71%)
   displ. norm   :     0.0649660 α      lambda       -0.1781896E-02
   maximum displ.:     0.0638208 α      in ANC's #1, #2, #3, ...

........................................................................
.............................. CYCLE    5 ..............................
........................................................................
   1     -9.6484777 -0.964848E+01  0.594E-01    1.25       0.0  T
   2     -9.6485104 -0.326704E-04  0.303E-01    1.25       1.0  T
   3     -9.6485186 -0.816093E-05  0.427E-02    1.25       1.4  T
   4     -9.6485187 -0.151133E-06  0.124E-02    1.25       4.7  T
   5     -9.6485187  0.163034E-07  0.532E-03    1.25      10.9  T
   6     -9.6485186  0.475122E-07  0.669E-03    1.25       8.6  T
   7     -9.6485187 -0.839046E-07  0.189E-04    1.25     304.8  T
   8     -9.6485187 -0.257572E-11  0.494E-05    1.25    1167.6  T
     SCC iter.                  ...        0 min,  0.000 sec
     gradient                   ...        0 min,  0.000 sec
 * total energy  :    -9.6249547 Eh     change       -0.1215632E-02 Eh
   gradient norm :     0.0099945 Eh/α   predicted    -0.8947092E-03 ( -26.40%)
   displ. norm   :     0.0334746 α      lambda       -0.3124286E-03
   maximum displ.:     0.0328851 α      in ANC's #1, #2, #3, ...

........................................................................
.............................. CYCLE    6 ..............................
........................................................................
   1     -9.6490983 -0.964910E+01  0.315E-01    1.13       0.0  T
   2     -9.6491072 -0.886102E-05  0.161E-01    1.13       1.0  T
   3     -9.6491095 -0.231361E-05  0.220E-02    1.13       2.6  T
   4     -9.6491095 -0.281022E-07  0.565E-03    1.13      10.2  T
   5     -9.6491092  0.265991E-06  0.115E-02    1.13       5.0  T
   6     -9.6491095 -0.282375E-06  0.180E-03    1.13      32.1  T
   7     -9.6491095 -0.111032E-08  0.102E-04    1.13     567.9  T
   8     -9.6491095 -0.685674E-12  0.230E-05    1.13    2514.2  T
     SCC iter.                  ...        0 min,  0.000 sec
     gradient                   ...        0 min,  0.000 sec
 * total energy  :    -9.6250864 Eh     change       -0.1316912E-03 Eh
   gradient norm :     0.0017103 Eh/α   predicted    -0.1563898E-03 (  18.75%)
   displ. norm   :     0.0077859 α      lambda       -0.8610927E-05
   maximum displ.:     0.0077092 α      in ANC's #1, #2, #3, ...

........................................................................
.............................. CYCLE    7 ..............................
........................................................................
   1     -9.6490481 -0.964905E+01  0.749E-02    1.16       0.0  T
   2     -9.6490486 -0.478094E-06  0.383E-02    1.16       1.5  T
   3     -9.6490487 -0.125689E-06  0.515E-03    1.16      11.2  T
   4     -9.6490487  0.159215E-08  0.146E-03    1.16      39.5  T
   5     -9.6490487 -0.216002E-08  0.104E-03    1.16      55.4  T
   6     -9.6490487 -0.181616E-08  0.264E-04    1.16     219.0  T
   7     -9.6490487 -0.114557E-10  0.228E-05    1.16    2527.3  T
     SCC iter.                  ...        0 min,  0.000 sec
     gradient                   ...        0 min,  0.000 sec
 * total energy  :    -9.6250892 Eh     change       -0.2737142E-05 Eh
   gradient norm :     0.0009621 Eh/α   predicted    -0.4304413E-05 (  57.26%)
   displ. norm   :     0.0028348 α      lambda       -0.1780044E-05
   maximum displ.:     0.0028129 α      in ANC's #1, #2, #3, ...

   *** GEOMETRY OPTIMIZATION CONVERGED AFTER 7 ITERATIONS ***

------------------------------------------------------------------------
 total energy gain   :        -0.0496437 Eh      -31.1519 kcal/mol
 total RMSD          :         0.3891914 a0        0.2060 Å
 total power (kW/mol):       -18.6199159 (step)********** (real)
------------------------------------------------------------------------

 ANCopt (total)                0 d,  0 h,  0 min,  0.010 sec
 optimizer setup                ...        0 min,  0.000 sec (  0.490%)
 model hessian                  ...        0 min,  0.000 sec (  0.327%)
 ANC generation                 ...        0 min,  0.000 sec (  0.268%)
 coordinate transformation      ...        0 min,  0.000 sec (  0.094%)
 single point calculation       ...        0 min,  0.010 sec ( 94.586%)
 optimization log               ...        0 min,  0.000 sec (  0.987%)
 hessian update                 ...        0 min,  0.000 sec (  0.353%)
 rational function              ...        0 min,  0.000 sec (  1.019%)

================
 final structure:
================
3
 xtb: 6.2.2 (9d81278992624c895f80dd42a50cac0aa55982e2)
O        -0.00247779942690    0.63234236821839    0.00000000000000
N         0.82879897102902   -0.31292845612121    0.00000000000000
N        -0.82632117160212   -0.31941391209718    0.00000000000000

 Bond Distances (Angstroems)
 ---------------------------
O1-N2=1.2588         O1-N3=1.2588         N2-O1=1.2588         N2-N3=1.6551         N3-O1=1.2588         N3-N2=1.6551         
 N  N  Rav=1.6551 sigma=0.0000  Rmin=1.6551  Rmax=1.6551     1
 O  N  Rav=1.2588 sigma=0.0000  Rmin=1.2588  Rmax=1.2588     2

 selected bond angles (degree)
 --------------------
N3-O1-N2= 82.21                N3-N2-O1= 48.90                N2-N3-O1= 48.90                

 selected dihedral angles (degree)
 ---------------------------------

           -------------------------------------------------
          |                Final Singlepoint                |
           -------------------------------------------------

          ...................................................
          :                      SETUP                      :
          :.................................................:
          :  # basis functions                  12          :
          :  # atomic orbitals                  12          :
          :  # shells                            6          :
          :  # electrons                        16          :
          :  max. iterations                   250          :
          :  Hamiltonian                  GFN2-xTB          :
          :  restarted?                      false          :
          :  GBSA solvation                  false          :
          :  PC potential                    false          :
          :  electronic temp.          300.0000000     K    :
          :  accuracy                    1.0000000          :
          :  -> integral cutoff          0.2500000E+02      :
          :  -> integral neglect         0.1000000E-07      :
          :  -> SCF convergence          0.1000000E-05 Eh   :
          :  -> wf. convergence          0.1000000E-03 e    :
          :  Broyden damping             0.4000000          :
          ...................................................

 iter      E             dE          RMSdq      gap      omega  full diag
   1     -9.6490487 -0.964905E+01  0.335E-06    1.16       0.0  T
   2     -9.6490487  0.532907E-14  0.176E-06    1.16   32843.5  T
   3     -9.6490487 -0.106581E-13  0.316E-07    1.16  100000.0  T

   *** convergence criteria satisfied after 3 iterations ***

         #    Occupation            Energy/Eh            Energy/eV
      -------------------------------------------------------------
         1        2.0000           -0.8819510             -23.9991
         2        2.0000           -0.7642331             -20.7958
         3        2.0000           -0.7397423             -20.1294
         4        2.0000           -0.7002124             -19.0537
         5        2.0000           -0.5273562             -14.3501
         6        2.0000           -0.5221831             -14.2093
         7        2.0000           -0.5074177             -13.8075
         8        2.0000           -0.4279939             -11.6463 (HOMO)
         9                         -0.3852664             -10.4836 (LUMO)
        10                         -0.2999291              -8.1615
        11                          0.0486042               1.3226
        12                          0.1627749               4.4293
      -------------------------------------------------------------
                  HL-Gap            0.0427275 Eh            1.1627 eV
             Fermi-level           -0.4066302 Eh          -11.0650 eV

 SCC (total)                   0 d,  0 h,  0 min,  0.001 sec
 SCC setup                      ...        0 min,  0.000 sec (  3.124%)
 Dispersion                     ...        0 min,  0.000 sec (  0.271%)
 integral evaluation            ...        0 min,  0.001 sec ( 48.573%)
 zeroth order Hamiltonian       ...        0 min,  0.000 sec (  0.437%)
 iterations                     ...        0 min,  0.000 sec ( 11.352%)
 molecular gradient             ...        0 min,  0.000 sec ( 32.785%)
 printout                       ...        0 min,  0.000 sec (  2.708%)

         :::::::::::::::::::::::::::::::::::::::::::::::::::::
         ::                     SUMMARY                     ::
         :::::::::::::::::::::::::::::::::::::::::::::::::::::
         :: total energy              -9.625089154042 Eh    ::
         :: gradient norm              0.000962023103 Eh/a0 ::
         :: HOMO-LUMO gap              1.162673653009 eV    ::
         ::.................................................::
         :: SCC energy                -9.649048737557 Eh    ::
         :: -> isotropic ES            0.002237954381 Eh    ::
         :: -> anisotropic ES          0.014990965107 Eh    ::
         :: -> anisotropic XC          0.012256499489 Eh    ::
         :: -> dispersion             -0.000717440004 Eh    ::
         :: repulsion energy           0.023959582707 Eh    ::
         :: add. restraining           0.000000000000 Eh    ::
         :::::::::::::::::::::::::::::::::::::::::::::::::::::

           ------------------------------------------------- 
          |                Numerical Hessian                |
           ------------------------------------------------- 
step length          :   0.00500
SCC accuracy         :   0.30000
Hessian scale factor :   1.00000
frozen atoms in %    :   0.00000    0
RMS gradient         :   0.00096
estimated CPU  time      0.00 min
estimated wall time      0.00 min

writing file <hessian>.

 projected vibrational frequencies (cm-1)
eigval :       -0.00    -0.00     0.00     0.00     0.00     0.00
eigval :      772.21  1218.05  1484.38
           -------------------------------------------------
          |                Property Printout                |
           -------------------------------------------------

    * Orbital Energies and Occupations

         #    Occupation            Energy/Eh            Energy/eV
      -------------------------------------------------------------
         1        2.0000           -0.8819510             -23.9991
         2        2.0000           -0.7642331             -20.7958
         3        2.0000           -0.7397423             -20.1294
         4        2.0000           -0.7002124             -19.0537
         5        2.0000           -0.5273562             -14.3501
         6        2.0000           -0.5221831             -14.2093
         7        2.0000           -0.5074177             -13.8075
         8        2.0000           -0.4279939             -11.6463 (HOMO)
         9                         -0.3852664             -10.4836 (LUMO)
        10                         -0.2999291              -8.1615
        11                          0.0486042               1.3226
        12                          0.1627749               4.4293
      -------------------------------------------------------------
                  HL-Gap            0.0427275 Eh            1.1627 eV
             Fermi-level           -0.4066302 Eh          -11.0650 eV

     #   Z        covCN         q      C6AA      α(0)
     1   8 O      1.845     0.182    12.318     4.740
     2   7 N      1.814    -0.091    23.765     7.223
     3   7 N      1.814    -0.091    23.765     7.223

 Mol. C6AA /au·bohr⁶  :        175.586013
 Mol. C8AA /au·bohr⁸  :       3784.856103
 Mol. α(0) /au        :         19.185247


Wiberg/Mayer (AO) data.
largest (>0.10) Wiberg bond orders for each atom
          total WBO             WBO to atom ...
     1  O   2.737        N    3 1.368    N    2 1.368
     2  N   2.792        N    3 1.424    O    1 1.368
     3  N   2.792        N    2 1.424    O    1 1.368

MOs/occ written to file <molden.input>


molecular dipole:
                 x           y           z       tot (Debye)
 q only:       -0.001       0.327      -0.000
   full:       -0.003       0.649      -0.000       1.650
molecular quadrupole (traceless):
                xx          xy          yy          xz          yz          zz
 q only:       -0.544      -0.004       0.419       0.000      -0.000       0.125
  q+dip:       -2.074      -0.009       0.318       0.000       0.000       1.755
   full:       -1.915      -0.008       0.076       0.000       0.000       1.839

           -------------------------------------------------
          |                Geometry Summary                 |
           -------------------------------------------------

      molecular mass/u    :       44.0128113
   center of mass at/Å    :       -0.0001120       0.0286296      -0.0000000
  moments of inertia/u·Å² :        0.9161876E+01   0.1918543E+02   0.2834731E+02
Molecule has the following symmetry elements: (C2) 2*(sigma) 
It seems to be the C2v point group
rotational constants/cm⁻¹ :        0.1839976E+01   0.8786682E+00   0.5946819E+00

 * 2 selected distances

     #   Z        #   Z                                     value/Å
     1   8 O      2   7 N                                 1.2587923 (max)
     1   8 O      3   7 N                                 1.2587922 (min)

 * 1 distinct bonds (by element types)

   Z      Z             #   av. dist./Å        max./Å        min./Å
   7 N    8 O           2     1.2587923     1.2587923     1.2587922

           -------------------------------------------------
          |               Frequency Printout                |
           -------------------------------------------------
 projected vibrational frequencies (cm-1)
eigval :       -0.00    -0.00     0.00     0.00     0.00     0.00
eigval :      772.21  1218.05  1484.38
 reduced masses (amu)
   1: 14.16   2: 14.18   3: 16.00   4: 14.68   5: 14.86   6: 14.01   7: 14.36   8: 14.87
   9: 14.92
 IR intensities (amu)
   1:  0.15   2:  0.12   3:  0.36   4:  0.17   5:  0.20   6:  0.18   7:  0.11   8:  1.59
   9:  0.68
 Raman intensities (amu)
   1:  0.00   2:  0.00   3:  0.00   4:  0.00   5:  0.00   6:  0.00   7:  0.00   8:  0.00
   9:  0.00
 output can be read by thermo (or use thermo option).
 writing <g98.out> molden fake output.
 recommended (thermochemical) frequency scaling factor: 1.0
           -------------------------------------------------
          |             Thermodynamic Functions             |
           -------------------------------------------------

c2v symmetry found (for desy threshold:  0.10E+00) used in thermo

          ...................................................
          :                      SETUP                      :
          :.................................................:
          :  # frequencies                           3      :
          :  # imaginary freq.                       0      :
          :  linear?                             false      :
          :  only rotor calc.                    false      :
          :  symmetry                              c2v      :
          :  rotational number                       2      :
          :  scaling factor                  1.0000000      :
          :  rotor cutoff                   50.0000000 cm⁻¹ :
          :  imag. cutoff                  -20.0000000 cm⁻¹ :
          :.................................................:

    mode    ω/cm⁻¹     T·S(HO)/kcal·mol⁻¹    T·S(FR)/kcal·mol⁻¹   T·S(vib)
   ------------------------------------------------------------------------
   ------------------------------------------------------------------------

   temp. (K)  partition function   enthalpy   heat capacity  entropy
                                   cal/mol     cal/K/mol   cal/K/mol   J/K/mol
 298.15  VIB   1.03                   67.546      0.970      0.282
         ROT  0.270E+04              888.752      2.981     18.679
         INT  0.277E+04              956.299      3.951     18.962
         TR   0.283E+27             1481.254      4.968     37.255
         TOT                        2437.5527     8.9192    56.2163   235.2091

   temp. (K)  partition function   enthalpy   heat capacity  entropy
                                   cal/mol     cal/K/mol   cal/K/mol   J/K/mol
 120.00  VIB   1.00                    0.212      0.016      0.002
         ROT   688.                  357.707      2.981     15.966
         INT   689.                  357.919      2.997     15.968
         TR   0.721E+26              596.178      4.968     32.735
         TOT                         954.0969     7.9655    48.7039   203.7772

   temp. (K)  partition function   enthalpy   heat capacity  entropy
                                   cal/mol     cal/K/mol   cal/K/mol   J/K/mol
 100.00  VIB   1.00                    0.033      0.004      0.000
         ROT   524.                  298.089      2.981     15.423
         INT   524.                  298.122      2.985     15.423
         TR   0.549E+26              496.815      4.968     31.830
         TOT                         794.9371     7.9527    47.2535   197.7085

   temp. (K)  partition function   enthalpy   heat capacity  entropy
                                   cal/mol     cal/K/mol   cal/K/mol   J/K/mol
  80.00  VIB   1.00                    0.002      0.000      0.000
         ROT   375.                  238.471      2.981     14.758
         INT   375.                  238.473      2.981     14.758
         TR   0.393E+26              397.452      4.968     30.722
         TOT                         635.9253     7.9494    45.4799   190.2879

   temp. (K)  partition function   enthalpy   heat capacity  entropy
                                   cal/mol     cal/K/mol   cal/K/mol   J/K/mol
  60.00  VIB   1.00                    0.000      0.000     -0.000
         ROT   243.                  178.853      2.981     13.900
         INT   243.                  178.853      2.981     13.900
         TR   0.255E+26              298.089      4.968     29.293
         TOT                         476.9424     7.9490    43.1938   180.7227

   temp. (K)  partition function   enthalpy   heat capacity  entropy
                                   cal/mol     cal/K/mol   cal/K/mol   J/K/mol
  40.00  VIB   1.00                    0.000      0.000     -0.000
         ROT   132.                  119.236      2.981     12.692
         INT   132.                  119.236      2.981     12.692
         TR   0.139E+26              198.726      4.968     27.280
         TOT                         317.9616     7.9490    39.9717   167.2415

   temp. (K)  partition function   enthalpy   heat capacity  entropy
                                   cal/mol     cal/K/mol   cal/K/mol   J/K/mol
  20.00  VIB   1.00                    0.000      0.000     -0.000
         ROT   46.8                   59.618      2.981     10.625
         INT   46.8                   59.618      2.981     10.625
         TR   0.491E+25               99.363      4.968     23.838
         TOT                         158.9808     7.9490    34.4635   144.1953

   temp. (K)  partition function   enthalpy   heat capacity  entropy
                                   cal/mol     cal/K/mol   cal/K/mol   J/K/mol
  10.00  VIB   1.00                    0.000      0.000     -0.000
         ROT   16.6                   29.809      2.981      8.559
         INT   16.6                   29.809      2.981      8.559
         TR   0.174E+25               49.681      4.968     20.396
         TOT                          79.4904     7.9490    28.9553   121.1490

       T/K    H(0)-H(T)+PV         H(T)/Eh          T*S/Eh         G(T)/Eh
   ------------------------------------------------------------------------
    298.15    0.388449E-02    0.118003E-01    0.267102E-01   -0.149099E-01
    120.00    0.152045E-02    0.943625E-02    0.931375E-02    0.122497E-03
    100.00    0.126681E-02    0.918261E-02    0.753032E-02    0.165229E-02
     80.00    0.101341E-02    0.892921E-02    0.579815E-02    0.313107E-02
     60.00    0.760056E-03    0.867586E-02    0.413002E-02    0.454584E-02
     40.00    0.506704E-03    0.842251E-02    0.254796E-02    0.587455E-02
     20.00    0.253352E-03    0.816915E-02    0.109842E-02    0.707073E-02
     10.00    0.126676E-03    0.804248E-02    0.461432E-03    0.758105E-02 (used)
   ------------------------------------------------------------------------

         :::::::::::::::::::::::::::::::::::::::::::::::::::::
         ::                  THERMODYNAMIC                  ::
         :::::::::::::::::::::::::::::::::::::::::::::::::::::
         :: total free energy          -9.617508108860 Eh   ::
         ::.................................................::
         :: total energy               -9.625089154041 Eh   ::
         :: zero point energy           0.007915801385 Eh   ::
         :: G(RRHO) w/o ZPVE           -0.000334756204 Eh   ::
         :: G(RRHO) contrib.            0.007581045181 Eh   ::
         :::::::::::::::::::::::::::::::::::::::::::::::::::::

optimized geometry written to: xtbopt.xyz


           -------------------------------------------------
          | TOTAL ENERGY               -9.625089154041 Eh   |
          | TOTAL ENTHALPY             -9.617046676640 Eh   |
          | TOTAL FREE ENERGY          -9.617508108860 Eh   |
          | GRADIENT NORM               0.000962022522 Eh/α |
          | HOMO-LUMO GAP               1.162673661264 eV   |
           -------------------------------------------------

------------------------------------------------------------------------
 * finished run on 2020/05/12 at 11:43:54.436     
------------------------------------------------------------------------
 total:
 * wall-time:     0 d,  0 h,  0 min,  0.054 sec
 *  cpu-time:     0 d,  0 h,  0 min,  0.054 sec
 * ratio c/w:     0.998 speedup
 SCF:
 * wall-time:     0 d,  0 h,  0 min,  0.002 sec
 *  cpu-time:     0 d,  0 h,  0 min,  0.002 sec
 * ratio c/w:     1.001 speedup
 ANC optimizer:
 * wall-time:     0 d,  0 h,  0 min,  0.012 sec
 *  cpu-time:     0 d,  0 h,  0 min,  0.012 sec
 * ratio c/w:     0.999 speedup
 numerical hessian:
 * wall-time:     0 d,  0 h,  0 min,  0.026 sec
 *  cpu-time:     0 d,  0 h,  0 min,  0.026 sec
 * ratio c/w:     0.999 speedup

