3
 energy: -9.625089154042 gnorm: 0.000962023103 xtb: 6.2.2 (9d81278992624c895f80dd42a50cac0aa55982e2)
O        -0.00247448849381    0.63234238118248   -0.00000109499648
N         0.82879733252495   -0.31293279569770   -0.00000234689099
N        -0.82632284403114   -0.31940958548478    0.00000344188747
