[Molden Format]
[Title]
[Atoms] AU
C      1     6  0.00000000000000E+00  0.00000000000000E+00  0.00000000000000E+00
[GTO]
           1 0
 s           4   1.0000000000000000     
   51.049363095579913      -0.16312063210127389     
   8.7911227406887544      -0.19911024581000730     
  0.70640422258929825       0.31882047753655751     
  0.26922813413411617       0.12706504184240380     
 p           4   1.0000000000000000     
   5.8263656140800002       0.73716451545209605     
   1.5106896018720002       0.68216371614850257     
  0.53256483288000001       0.35783053929253711     
  0.21202323690600003        5.3983030275847881E-002

[MO]
Sym=     1a
Ene=  -0.69183457922540326     
Spin= Alpha
Occup=     2.00000000
           1   1.0000000000225668     
           2   0.0000000000000000     
           3   0.0000000000000000     
           4   0.0000000000000000     
Sym=     2a
Ene=  -0.47323372804419755     
Spin= Alpha
Occup=     0.66666667
           1   0.0000000000000000     
           2   1.0000000000494356     
           3   0.0000000000000000     
           4   0.0000000000000000     
Sym=     3a
Ene=  -0.47323372804419755     
Spin= Alpha
Occup=     0.66666667
           1   0.0000000000000000     
           2   0.0000000000000000     
           3   1.0000000000494356     
           4   0.0000000000000000     
Sym=     4a
Ene=  -0.47323372804419755     
Spin= Alpha
Occup=     0.66666667
           1   0.0000000000000000     
           2   0.0000000000000000     
           3   0.0000000000000000     
           4   1.0000000000494356     
