[Molden Format]
[Title]
[Atoms] AU
N      1     7  0.21184081237075E+01 -0.37640513809664E+00  0.12180270030338E+00
C      2     6 -0.18341055032718E+00 -0.18635449061736E+00  0.11993694290948E+00
C      3     6 -0.26262749921609E+01 -0.12112603174860E+01  0.84823412582240E+00
C      4     6 -0.26650362135924E+01  0.93551276626584E+00 -0.42826269067000E+00
H      5     1  0.33563136323664E+01  0.83850717993085E+00 -0.66171296809122E+00
[GTO]
           1 0
 s           4   1.0000000000000000     
   63.594024466941008      -0.19234388414721629     
   10.951417231523665      -0.23478107924953728     
  0.87999310257376984       0.37593753901700888     
  0.33538715296521110       0.14982889271862770     
 p           4   1.0000000000000000     
   7.2965040481495080       0.97658666315667420     
   1.8918745450712575       0.90372226730345739     
  0.66694432110824120       0.47404958461536373     
  0.26552202674130870        7.1516067715011844E-002

           2 0
 s           4   1.0000000000000000     
   51.049363095579913      -0.16312063210127389     
   8.7911227406887544      -0.19911024581000730     
  0.70640422258929825       0.31882047753655751     
  0.26922813413411617       0.12706504184240380     
 p           4   1.0000000000000000     
   5.8263656140800002       0.73716451545209605     
   1.5106896018720002       0.68216371614850257     
  0.53256483288000001       0.35783053929253711     
  0.21202323690600003        5.3983030275847881E-002

           3 0
 s           4   1.0000000000000000     
   51.049363095579913      -0.16312063210127389     
   8.7911227406887544      -0.19911024581000730     
  0.70640422258929825       0.31882047753655751     
  0.26922813413411617       0.12706504184240380     
 p           4   1.0000000000000000     
   5.8263656140800002       0.73716451545209605     
   1.5106896018720002       0.68216371614850257     
  0.53256483288000001       0.35783053929253711     
  0.21202323690600003        5.3983030275847881E-002

           4 0
 s           4   1.0000000000000000     
   51.049363095579913      -0.16312063210127389     
   8.7911227406887544      -0.19911024581000730     
  0.70640422258929825       0.31882047753655751     
  0.26922813413411617       0.12706504184240380     
 p           4   1.0000000000000000     
   5.8263656140800002       0.73716451545209605     
   1.5106896018720002       0.68216371614850257     
  0.53256483288000001       0.35783053929253711     
  0.21202323690600003        5.3983030275847881E-002

           5 0
 s           3   1.0000000000000000     
   3.3702276975336001       0.27359110588908298     
  0.61389118221497996       0.26460540653860526     
  0.16614291148415999        8.2465947534082318E-002

[MO]
Sym=     1a
Ene=  -0.69583113826455245     
Spin= Alpha
Occup=     2.00000000
           1  0.17603049058187445     
           2 -0.12978359344932419     
           3   1.6970433466493549E-002
           4  -3.8335418656299009E-003
           5  0.44755728656890392     
           6  -8.6335718037171341E-002
           7   2.3842040876291899E-003
           8   2.7431259813488437E-003
           9  0.32774539307194506     
          10   9.2333089761140560E-002
          11  0.11247000064135332     
          12  -7.1434374517744412E-002
          13  0.33215025616379290     
          14   9.6589133856861936E-002
          15 -0.11072448008222646     
          16   6.1268781355044856E-002
          17   2.1558730998503250E-002
Sym=     2a
Ene=  -0.66837146039389095     
Spin= Alpha
Occup=     2.00000000
           1 -0.51155020132896833     
           2  0.16310076274880719     
           3  -5.3583006121228710E-002
           4   2.4024714514464324E-002
           5 -0.22039178728090744     
           6 -0.34608194531847708     
           7   5.6453865709960183E-003
           8   1.3369267110093536E-002
           9  0.20384354763293130     
          10  -1.6685128058617108E-002
          11   6.8545444023848809E-002
          12  -4.0009742787909405E-002
          13  0.20749808460663927     
          14  -1.3045283316273137E-002
          15  -6.5531466032455021E-002
          16   3.9655007658589356E-002
          17 -0.11137864756420146     
Sym=     3a
Ene=  -0.58325202224156225     
Spin= Alpha
Occup=     2.00000000
           1  0.22028626290570372     
           2  0.35403869801456128     
           3  0.26168692474554472     
           4 -0.17298763794716468     
           5 -0.20552112872422382     
           6  -5.9567709689619421E-002
           7  0.23924047517495442     
           8 -0.13961021418139211     
           9  -2.3992313959921588E-002
          10 -0.15838668928302505     
          11  0.11166415757354782     
          12  -5.8850975981508083E-002
          13  0.27495850649455217     
          14  -3.8556439500068589E-002
          15   1.8698477426599986E-002
          16  -9.2793336472578470E-003
          17  0.37008042466401458     
Sym=     4a
Ene=  -0.55391821141473441     
Spin= Alpha
Occup=     2.00000000
           1  0.28990114309560500     
           2  0.22643351934706968     
           3 -0.15200734321212944     
           4   7.9525572232854114E-002
           5 -0.19429911439871733     
           6   1.0276207118179181E-002
           7 -0.34940023808541787     
           8  0.20752437766131504     
           9  0.46316719138666701     
          10  -5.9251986197366921E-002
          11  -9.4430831988224953E-002
          12   5.9077186823236261E-002
          13 -0.19191905944461823     
          14 -0.24446931860133389     
          15 -0.19995585679750777     
          16  0.13086159496801311     
          17  0.13926387591503672     
Sym=     5a
Ene=  -0.53316649278652506     
Spin= Alpha
Occup=     2.00000000
           1  -4.7549470784709124E-005
           2  -1.9769711015340398E-002
           3 -0.24314429406509003     
           4 -0.40830679113276080     
           5   1.4123904749486131E-005
           6  -2.3367908597871155E-002
           7 -0.28774924897600107     
           8 -0.48323321192299884     
           9  -3.4589428282506590E-005
          10  -1.2421554496890143E-002
          11 -0.15356902739901451     
          12 -0.25787316736540283     
          13  -1.9188604049745939E-005
          14  -1.2262579697602824E-002
          15 -0.15162032401825098     
          16 -0.25465191897420147     
          17  -5.7546743181840539E-006
Sym=     6a
Ene=  -0.51247456966018912     
Spin= Alpha
Occup=     2.00000000
           1   6.9629140407513335E-002
           2 -0.25519975937042649     
           3 -0.13712386808545807     
           4   9.3998485812090735E-002
           5 -0.13807198631408787     
           6  0.28840581071096710     
           7   4.0810041573616715E-002
           8  -3.8278210058356389E-002
           9   1.2808609045714476E-002
          10 -0.40601828253862737     
          11  0.18857995877770745     
          12  -9.2722246729020963E-002
          13  0.40864981664184702     
          14 -0.38245779440924016     
          15   1.5112002659201386E-002
          16   9.4379556376862749E-003
          17 -0.22709372297231037     
Sym=     7a
Ene=  -0.46702433014365596     
Spin= Alpha
Occup=     2.00000000
           1 -0.31140758071729996     
           2 -0.29532456287567138     
           3  0.47495178886036271     
           4 -0.26853190185353926     
           5   4.1515046427391455E-002
           6  0.13018943554111786     
           7  0.17075159945485571     
           8 -0.10797223635850767     
           9  0.38643654026369317     
          10 -0.23937496626686156     
          11 -0.16251510946687078     
          12  0.10832274730783362     
          13 -0.32475924459715416     
          14  -3.7440437077855021E-002
          15 -0.22690018165395981     
          16  0.13690910605886908     
          17   2.3066614152936857E-002
Sym=     8a
Ene=  -0.43822628099588307     
Spin= Alpha
Occup=     2.00000000
           1  -3.1596517388234564E-005
           2  -2.6682762867801850E-002
           3 -0.32804789376314641     
           4 -0.55088764157128567     
           5   2.7135336253742783E-006
           6  -3.4461424752055552E-003
           7  -4.2629344065262288E-002
           8  -7.1577323660145228E-002
           9  -3.1989977460637941E-006
          10   2.0322564225951439E-002
          11  0.25076918668402609     
          12  0.42111030782234216     
          13   8.1433642306138684E-006
          14   2.0582179609193618E-002
          15  0.25405096246808201     
          16  0.42662371617509676     
          17   6.3341921207543452E-006
Sym=     9a
Ene=  -0.38731153207933966     
Spin= Alpha
Occup=     1.00000000
           1   2.2985141201435164E-002
           2   2.5831458757824416E-002
           3  -3.9885742621893164E-002
           4   2.2498849777107498E-002
           5  -1.0085254527729768E-002
           6   3.5397400612239005E-003
           7   2.7054080471383433E-002
           8  -1.6283243071581781E-002
           9 -0.38283253543249024     
          10  -6.5756604273219344E-003
          11  0.51202048659043287     
          12 -0.30458075967929021     
          13 -0.39201782001057195     
          14   4.9507599763397865E-002
          15 -0.52272608193497916     
          16  0.30888623206808163     
          17  -1.9929767912577064E-002
Sym=    10a
Ene=  -0.36106467823672533     
Spin= Alpha
Occup=     1.00000000
           1 -0.27627331728233784     
           2 -0.16428918903400327     
           3  0.40988506951582759     
           4 -0.23612292947249158     
           5   2.7639497380165023E-002
           6   1.9587928528276368E-002
           7 -0.40606786526046218     
           8  0.24088435641419617     
           9 -0.22311226357667280     
          10  0.40156361702487753     
          11  0.16890556414217867     
          12 -0.11999010324496795     
          13  0.15997128346113343     
          14 -0.47428612710515111     
          15  0.10883763157011739     
          16  -4.1923013523206543E-002
          17  0.20610308472884842     
Sym=    11a
Ene=  -0.24505638532450955     
Spin= Alpha
Occup=     0.00000000
           1  -2.6124838751625164E-006
           2  -2.4757260757761030E-003
           3  -3.0483407329543664E-002
           4  -5.1179939171003226E-002
           5   3.7149127172889446E-006
           6   2.9120816237211359E-003
           7   3.5882944896712107E-002
           8   6.0257519226702180E-002
           9  -4.5955043918528773E-007
          10   3.2007868246460999E-002
          11  0.39470156295647618     
          12  0.66282512620061529     
          13  -5.4915484544715099E-007
          14  -3.4087520117832761E-002
          15 -0.42029777483432018     
          16 -0.70580857944341302     
          17   3.0058822509475093E-006
Sym=    12a
Ene=  -0.22013251765663189     
Spin= Alpha
Occup=     0.00000000
           1   4.1978728518403939E-005
           2   2.6780401144464127E-002
           3  0.32973234671012541     
           4  0.55362910903496609     
           5  -4.8420927457932232E-005
           6  -3.6618688470930812E-002
           7 -0.45122449688171823     
           8 -0.75774220892278710     
           9   5.9038572088761998E-006
          10   1.5810379579666283E-002
          11  0.19440355440794119     
          12  0.32645942326223742     
          13   4.9233951305793562E-006
          14   1.0049865961676204E-002
          15  0.12388589726202931     
          16  0.20804616568948420     
          17  -4.7633970923642771E-005
Sym=    13a
Ene=   -2.7111446810514906E-002
Spin= Alpha
Occup=     0.00000000
           1 -0.39851393339444302     
           2 -0.17592012410900273     
           3  -4.5371664395588741E-002
           4   3.5590338260377795E-002
           5  0.11400554563656176     
           6  -2.7271486766029269E-003
           7 -0.58508642306505576     
           8  0.34850109090151049     
           9  -9.9593132644335239E-002
          10 -0.70864263810088246     
          11  0.18498766347211609     
          12  -7.5922021688602515E-002
          13   2.9080022236358982E-002
          14  0.57581682916145571     
          15  0.17886443792999540     
          16 -0.13431078238479335     
          17  0.53178982998963620     
Sym=    14a
Ene=    5.0627436392401796E-002
Spin= Alpha
Occup=     0.00000000
           1 -0.54412167360597485     
           2  0.18716445403915552     
           3 -0.40734383235604599     
           4  0.23359078977706993     
           5  0.87785524357746736     
           6 -0.16846390845932968     
           7  0.26915608209969633     
           8 -0.15220942121375247     
           9 -0.20659277154097169     
          10 -0.20049470708399314     
          11 -0.15802635755896299     
          12  0.10380110482511300     
          13 -0.22918411412585571     
          14 -0.61264998933535542     
          15   1.5303443306975513E-003
          16   2.8692446687527663E-002
          17  0.52061710302096875     
Sym=    15a
Ene=   0.21151777615787934     
Spin= Alpha
Occup=     0.00000000
           1 -0.43584437650489399     
           2 -0.54791600455917500     
           3 -0.46406591686563325     
           4  0.30289419049800714     
           5 -0.64040977357994233     
           6  0.37294618777173072     
           7  0.25832082270996803     
           8 -0.17184315947469064     
           9  0.16809462715183565     
          10  0.49720013467570151     
          11  -6.7487109155673713E-002
          12   1.6176115710867568E-002
          13  0.24926163700647086     
          14  0.15336057776864837     
          15 -0.21956066552860973     
          16  0.12333957365212754     
          17  0.84257929886917293     
Sym=    16a
Ene=   0.53910973285882458     
Spin= Alpha
Occup=     0.00000000
           1   6.3590198859437008E-002
           2   7.1684234934536956E-003
           3  0.10646249970640990     
           4  -6.3746727339112977E-002
           5   3.7415494752342557E-002
           6  -9.4068063978725039E-002
           7 -0.24422870374319058     
           8  0.14997995799840025     
           9 -0.85781117390947714     
          10 -0.14796128338847339     
          11 -0.80339326742514872     
          12  0.48555325572332358     
          13  0.79730534303117240     
          14  0.10093793173313489     
          15 -0.78536563946639648     
          16  0.46279722474026930     
          17  -6.6282363637656314E-002
Sym=    17a
Ene=   0.81012291540562520     
Spin= Alpha
Occup=     0.00000000
           1 -0.69640213390345673     
           2  0.96683834162180360     
           3   3.4779270677028837E-002
           4  -6.7485874218449371E-002
           5  0.37658843952758053     
           6   1.3228773381438248     
           7 -0.12417561757439644     
           8   1.0002558696210796E-002
           9  0.21721673843139486     
          10  0.23465931519264802     
          11   7.3277544590577240E-002
          12  -5.4961366808814069E-002
          13  0.30317526546313150     
          14  0.30129595697016642     
          15 -0.12729499906422145     
          16   6.1257779244091440E-002
          17 -0.27699352830083013     
