 Entering Gaussian System
 *********************************************
 Gaussian 98:
 frequency output generated by the xtb code
 *********************************************
                         Standard orientation:
 --------------------------------------------------------------------
  Center     Atomic     Atomic              Coordinates (Angstroms)
  Number     Number      Type              X           Y           Z
 --------------------------------------------------------------------
    1          7             0        1.121013   -0.199185    0.064455
    2          6             0       -0.097057   -0.098615    0.063468
    3          6             0       -1.389765   -0.640971    0.448866
    4          6             0       -1.410277    0.495052   -0.226627
    5          1             0        1.776085    0.443719   -0.350163
 --------------------------------------------------------------------
     1 basis functions        1 primitive gaussians
     1 alpha electrons        1 beta electrons

 Harmonic frequencies (cm**-1), IR intensities (KM/Mole),
 Raman scattering activities (A**4/amu), Raman depolarization ratios,
 reduced masses (AMU), force constants (mDyne/A) and normal coordinates:
                      1                      2                      3
                        a                      a                      a 
 Frequencies --   365.6800               415.1060               521.5458
 Red. masses --    10.7785                11.9123                 3.0980
 Frc consts  --     0.0000                 0.0000                 0.0000
 IR Inten    --     0.2198                 0.7094                 0.2052
 Raman Activ --     0.0000                 0.0000                 0.0000
 Depolar     --     0.0000                 0.0000                 0.0000
 Atom AN      X      Y      Z        X      Y      Z        X      Y      Z
   1   7    -0.07  -0.32   0.19     0.02   0.24   0.40    -0.01  -0.08  -0.14
   2   6     0.00   0.58  -0.35    -0.03  -0.41  -0.70    -0.01  -0.16  -0.26
   3   6     0.35  -0.08   0.03     0.01   0.06   0.10     0.01   0.13   0.22
   4   6    -0.34  -0.08   0.06     0.01   0.13   0.22    -0.00  -0.02  -0.03
   5   1     0.21  -0.26   0.15    -0.01  -0.11  -0.19     0.04   0.46   0.77
                      4                      5                      6
                        a                      a                      a 
 Frequencies --   814.2331               909.0103               941.5351
 Red. masses --    11.6382                10.1204                 6.3683
 Frc consts  --     0.0000                 0.0000                 0.0000
 IR Inten    --     0.1633                 0.2004                 0.7487
 Raman Activ --     0.0000                 0.0000                 0.0000
 Depolar     --     0.0000                 0.0000                 0.0000
 Atom AN      X      Y      Z        X      Y      Z        X      Y      Z
   1   7     0.19  -0.12   0.06     0.48   0.11  -0.09     0.30  -0.29   0.16
   2   6     0.10  -0.35   0.20     0.27  -0.00  -0.01     0.15   0.30  -0.19
   3   6     0.40   0.24  -0.16    -0.56   0.07  -0.01    -0.28   0.01   0.01
   4   6    -0.66   0.20  -0.09    -0.35  -0.13   0.09    -0.03  -0.13   0.08
   5   1    -0.15   0.13  -0.07     0.41  -0.19   0.10    -0.55   0.44  -0.24
                      7                      8                      9
                        a                      a                      a 
 Frequencies --  1639.4342              2026.2929              3413.0102
 Red. masses --    12.1596                12.3779                 1.8912
 Frc consts  --     0.0000                 0.0000                 0.0000
 IR Inten    --     0.0510                 2.0563                 0.2037
 Raman Activ --     0.0000                 0.0000                 0.0000
 Depolar     --     0.0000                 0.0000                 0.0000
 Atom AN      X      Y      Z        X      Y      Z        X      Y      Z
   1   7    -0.29   0.04  -0.01    -0.50   0.04   0.00     0.19   0.15  -0.10
   2   6     0.19  -0.03   0.01     0.79  -0.03  -0.02    -0.00   0.01  -0.00
   3   6     0.06   0.57  -0.34    -0.12  -0.19   0.12    -0.00   0.00  -0.00
   4   6     0.07  -0.56   0.33    -0.10   0.18  -0.10    -0.00  -0.00   0.00
   5   1    -0.02  -0.03   0.02    -0.10  -0.03   0.02    -0.65  -0.60   0.39
