5
 energy: -9.415662249911 gnorm: 0.274731288709 xtb: 6.2.2 (9d81278992624c895f80dd42a50cac0aa55982e2)
N         0.97933500000000   -0.31419600000000   -0.27659000000000
C        -0.12887400000000    0.21128100000000    0.49931500000000
C        -1.28074600000000   -0.77080100000000    0.44850000000000
C        -1.30451700000000    0.46690700000000   -0.42124800000000
H         1.73480200000000    0.40680900000000   -0.24997800000000
5
 energy: -9.491588046023 gnorm: 0.194194657140 xtb: 6.2.2 (9d81278992624c895f80dd42a50cac0aa55982e2)
N         1.04216091814635   -0.28039969519365   -0.22823224855015
C        -0.10755532841207    0.11279264653158    0.36433579934819
C        -1.34799988054213   -0.70375862553527    0.46476917081514
C        -1.36162799317091    0.44372697247963   -0.35911029943529
H         1.77502228397877    0.42763870171771   -0.24176342217789
5
 energy: -9.513746208582 gnorm: 0.289925399931 xtb: 6.2.2 (9d81278992624c895f80dd42a50cac0aa55982e2)
N         1.02421146988556   -0.22663414827397   -0.13171780377766
C        -0.05122039071423    0.02270945866944    0.19541093779860
C        -1.34667820347792   -0.61487376251111    0.43749482786100
C        -1.40357460640744    0.39811871329703   -0.26916961911184
H         1.77726173071403    0.42067973881861   -0.23201934277011
5
 energy: -9.538486310482 gnorm: 0.081927965694 xtb: 6.2.2 (9d81278992624c895f80dd42a50cac0aa55982e2)
N         1.12040565572730   -0.26116906319955   -0.07038604828787
C        -0.10146028148558    0.00654625103638    0.15349240456585
C        -1.37204347380560   -0.65003198230291    0.44744641116320
C        -1.46865022066184    0.46254366243022   -0.25319404337377
H         1.82174832022572    0.44211113203587   -0.27735972406741
5
 energy: -9.543112812014 gnorm: 0.039613355153 xtb: 6.2.2 (9d81278992624c895f80dd42a50cac0aa55982e2)
N         1.11161059437366   -0.25136301144603   -0.04809052620272
C        -0.09420624676484   -0.03267635222999    0.13772536936859
C        -1.38651260054355   -0.64634407417846    0.46058466353026
C        -1.43117087815762    0.47253098976309   -0.25853139514835
H         1.80027913109234    0.45785244809140   -0.29168911154778
5
 energy: -9.546292331626 gnorm: 0.022322636297 xtb: 6.2.2 (9d81278992624c895f80dd42a50cac0aa55982e2)
N         1.11989999434166   -0.23797763799113    0.02052692100803
C        -0.09490539628646   -0.08105812167897    0.08277086232508
C        -1.38982661127671   -0.63453324582930    0.45517291672688
C        -1.42052791887345    0.48757955083707   -0.23491406188843
H         1.78535993209496    0.46598945466233   -0.32355763817157
5
 energy: -9.544576752536 gnorm: 0.052908823640 xtb: 6.2.2 (9d81278992624c895f80dd42a50cac0aa55982e2)
N         1.10870195149348   -0.18505382646393   -0.01385265631661
C        -0.09923516228695   -0.09360545053429    0.01396554283252
C        -1.37885086319742   -0.63007165174630    0.49350258537217
C        -1.44265913858822    0.47944699508452   -0.22500788501084
H         1.81204321257911    0.42928393366000   -0.26860858687724
5
 energy: -9.546946292033 gnorm: 0.007175001117 xtb: 6.2.2 (9d81278992624c895f80dd42a50cac0aa55982e2)
N         1.11261310354698   -0.20922740566350    0.03044500704195
C        -0.10349159318544   -0.09531755439144    0.05139883974175
C        -1.38324315102240   -0.63538925681287    0.46530539006206
C        -1.41770742183662    0.49024033397893   -0.22749665620365
H         1.79182906249748    0.44969388288887   -0.31965358064211
5
 energy: -9.547004252343 gnorm: 0.007515930959 xtb: 6.2.2 (9d81278992624c895f80dd42a50cac0aa55982e2)
N         1.12045590733667   -0.21538087331753    0.04308628781700
C        -0.09887841969288   -0.10220562337930    0.05023713295967
C        -1.38909871716186   -0.63407663986823    0.46191650192389
C        -1.41336368020387    0.49449381744412   -0.22604226452021
H         1.78088490972194    0.45716931912094   -0.32919865818034
5
 energy: -9.547047541177 gnorm: 0.004933870169 xtb: 6.2.2 (9d81278992624c895f80dd42a50cac0aa55982e2)
N         1.11896620582863   -0.21328883622878    0.04474896697704
C        -0.09844275475285   -0.10131098244851    0.05305850048396
C        -1.38781067330285   -0.63483379187425    0.46028810063624
C        -1.41025434405072    0.49428867060236   -0.22681115743836
H         1.77754156627779    0.45514493994918   -0.33128541065888
5
 energy: -9.547086935687 gnorm: 0.002748037860 xtb: 6.2.2 (9d81278992624c895f80dd42a50cac0aa55982e2)
N         1.11928217115392   -0.20823679421518    0.05003086903969
C        -0.09781111400117   -0.10074201153554    0.05611934213790
C        -1.38796346301944   -0.63620081273764    0.45707493001609
C        -1.40879613829633    0.49406791149684   -0.22684855330495
H         1.77528854416301    0.45111170699152   -0.33637758788873
5
 energy: -9.547113802568 gnorm: 0.001892297976 xtb: 6.2.2 (9d81278992624c895f80dd42a50cac0aa55982e2)
N         1.12041450241361   -0.20337719739955    0.05923606487192
C        -0.09690076455440   -0.10015859911261    0.06081453511311
C        -1.38876767105356   -0.63864249875998    0.45196655373299
C        -1.40774554333979    0.49491964764919   -0.22691775107931
H         1.77299947653414    0.44725864762295   -0.34510040263871
5
 energy: -9.547121976350 gnorm: 0.000969130582 xtb: 6.2.2 (9d81278992624c895f80dd42a50cac0aa55982e2)
N         1.12163382936502   -0.19733965944131    0.06658941857254
C        -0.09684289875623   -0.09901820034909    0.06483446782933
C        -1.39073945849968   -0.64131935556994    0.44780772330689
C        -1.40985362265400    0.49494624757287   -0.22675344641509
H         1.77580215054489    0.44273096778747   -0.35247916329367
5
 energy: -9.547123373756 gnorm: 0.000301896169 xtb: 6.2.2 (9d81278992624c895f80dd42a50cac0aa55982e2)
N         1.12101422438232   -0.19917928251480    0.06445878465204
C        -0.09705639767546   -0.09861517769154    0.06346739191541
C        -1.38976321505086   -0.64097947614761    0.44886024063560
C        -1.41027836229126    0.49504509369634   -0.22663093599418
H         1.77608375063526    0.44372884265761   -0.35015648120887
