5
 energy: -8.635427013015 gnorm: 0.000657458007 xtb: 6.2.2 (9d81278992624c895f80dd42a50cac0aa55982e2)
C         1.13140765277343   -0.43508162797109   -0.11825363887050
C        -0.32677041026154   -0.36224269101630   -0.21265113689313
C        -0.54189761339099    1.08267192569341   -0.13239790539392
C         0.74635947168030    0.82577243370567    0.31353030200322
H        -1.00909810079771   -1.11112004041518    0.14977337915084
