      -----------------------------------------------------------      
     |                   =====================                   |     
     |                           x T B                           |     
     |                   =====================                   |     
     |                         S. Grimme                         |     
     |          Mulliken Center for Theoretical Chemistry        |     
     |                    University of Bonn                     |     
      -----------------------------------------------------------      

   * xtb version 6.2.2 (9d81278992624c895f80dd42a50cac0aa55982e2) compiled by '@Darwin' on 04/03/2020

   xtb is free software: you can redistribute it and/or modify it under
   the terms of the GNU Lesser General Public License as published by
   the Free Software Foundation, either version 3 of the License, or
   (at your option) any later version.
   
   xtb is distributed in the hope that it will be useful,
   but WITHOUT ANY WARRANTY; without even the implied warranty of
   MERCHANTABILITY or FITNESS FOR A PARTICULAR PURPOSE.  See the
   GNU Lesser General Public License for more details.
   
   Cite this work as:
   * S. Grimme, C. Bannwarth, P. Shushkov, J. Chem. Theory Comput., 2017,
     13, 1989-2009. DOI: 10.1021/acs.jctc.7b00118
   * C. Bannwarth, S. Ehlert and S. Grimme., J. Chem. Theory Comput., 2019,
     15, 1652-1671. DOI: 10.1021/acs.jctc.8b01176
   * P. Pracht, E. Caldeweyher, S. Ehlert, S. Grimme, ChemRxiv, 2019, preprint.
     DOI: 10.26434/chemrxiv.8326202.v1
   
   for DFT-D4:
   * E. Caldeweyher, C. Bannwarth and S. Grimme, J. Chem. Phys., 2017,
     147, 034112. DOI: 10.1063/1.4993215
   * E. Caldeweyher, S. Ehlert, A. Hansen, H. Neugebauer, S. Spicher,
     C. Bannwarth and S. Grimme, J. Chem. Phys., 2019, 150, 154122.
     DOI: 10.1063/1.5090222
   
   for sTDA-xTB:
   * S. Grimme and C. Bannwarth, J. Chem. Phys., 2016, 145, 054103.
     DOI: 10.1063/1.4959605
   
   in the mass-spec context:
   * V. Asgeirsson, C. Bauer and S. Grimme, Chem. Sci., 2017, 8, 4879.
     DOI: 10.1039/c7sc00601b
   
   for metadynamics refer to:
   * S. Grimme, J. Chem. Theory Comput., 2019, 155, 2847-2862
     DOI: 10.1021/acs.jctc.9b00143
   
   with help from (in alphabetical order)
   C. Bannwarth, F. Bohle, G. Brandenburg, E. Caldeweyher, M. Checinski,
   S. Dohm, S. Ehlert, S. Ehrlich, F. März, H. Neugebauer, J. Pisarek,
   P. Pracht, P. Shushkov, and S. Spicher.
   
 * started run on 2020/05/12 at 11:45:01.821     

           -------------------------------------------------
          |                Calculation Setup                |
           -------------------------------------------------

          program call               : xtb --input H1C3N1_30_S_0.input H1C3N1_30_S_0.xyz --ohess --molden --namespace H1C3N1_30_S_0 output.out
          calculation namespace      : H1C3N1_30_S_0
          coordinate file            : H1C3N1_30_S_0.xyz
          number of atoms            :                     5
          number of electrons        :                    18
          charge                     :                     0
          spin                       :                   0.0
          first test random number   :      0.51070331110379

   ID    Z sym.   atoms
    1    7 N      1
    2    6 C      2-4
    3    1 H      5

           -------------------------------------------------
          |                 G F N 2 - x T B                 |
           -------------------------------------------------

        Reference                      10.1021/acs.jctc.8b01176
      * Hamiltonian:
        H0-scaling (s, p, d)           1.850000    2.230000    2.230000
        zeta-weighting                 0.500000
      * Dispersion:
        s8                             2.700000
        a1                             0.520000
        a2                             5.000000
        s9                             5.000000
      * Repulsion:
        kExp                           1.500000    1.000000
        rExp                           1.000000
      * Coulomb:
        alpha                          2.000000
        third order                    shell-resolved
        anisotropic                    true
        a3                             3.000000
        a5                             4.000000
        cn-shift                       1.200000
        cn-exp                         4.000000
        max-rad                        5.000000


          ...................................................
          :                      SETUP                      :
          :.................................................:
          :  # basis functions                  17          :
          :  # atomic orbitals                  17          :
          :  # shells                            9          :
          :  # electrons                        18          :
          :  max. iterations                   250          :
          :  Hamiltonian                  GFN2-xTB          :
          :  restarted?                      false          :
          :  GBSA solvation                  false          :
          :  PC potential                    false          :
          :  electronic temp.          300.0000000     K    :
          :  accuracy                    1.0000000          :
          :  -> integral cutoff          0.2500000E+02      :
          :  -> integral neglect         0.1000000E-07      :
          :  -> SCF convergence          0.1000000E-05 Eh   :
          :  -> wf. convergence          0.1000000E-03 e    :
          :  Broyden damping             0.4000000          :
          ...................................................

 iter      E             dE          RMSdq      gap      omega  full diag
   1     -9.4115523 -0.941155E+01  0.984E+00    0.91       0.0  T
   2     -9.0661525  0.345400E+00  0.104E+01    1.15       1.0  T
   3     -9.4560378 -0.389885E+00  0.580E+00    0.71       1.0  T
   4     -9.0526479  0.403390E+00  0.864E+00    0.16       1.0  T
   5     -9.5284110 -0.475763E+00  0.317E+00    0.55       1.0  T
   6     -9.5374951 -0.908413E-02  0.241E+00    0.41       1.0  T
   7     -9.5441122 -0.661703E-02  0.187E+00    0.41       1.0  T
   8     -9.5516154 -0.750329E-02  0.132E+00    0.33       1.0  T
   9     -9.5568207 -0.520528E-02  0.799E-01    0.28       1.0  T
  10     -9.5569118 -0.910321E-04  0.782E-01    0.28       1.0  T
  11     -9.5583444 -0.143259E-02  0.451E-01    0.23       1.0  T
  12     -9.5586014 -0.257010E-03  0.368E-01    0.23       1.0  T
  13     -9.5590389 -0.437516E-03  0.655E-02    0.22       1.0  T
  14     -9.5590477 -0.880012E-05  0.428E-02    0.22       1.0  T
  15     -9.5590540 -0.637285E-05  0.184E-03    0.22      24.2  T
  16     -9.5590541 -0.448567E-08  0.906E-04    0.22      49.3  T
  17     -9.5590541 -0.202078E-08  0.636E-04    0.22      70.3  T

   *** convergence criteria satisfied after 17 iterations ***

         #    Occupation            Energy/Eh            Energy/eV
      -------------------------------------------------------------
         1        2.0000           -0.7385226             -20.0962
       ...           ...                  ...                  ...
         3        2.0000           -0.6135961             -16.6968
         4        2.0000           -0.5831551             -15.8685
         5        2.0000           -0.5233228             -14.2403
         6        2.0000           -0.5183414             -14.1048
         7        2.0000           -0.4842651             -13.1775
         8        2.0000           -0.4699996             -12.7893
         9        1.9722           -0.4241509             -11.5417 (HOMO)
        10        0.0278           -0.4160549             -11.3214 (LUMO)
        11                         -0.3414081              -9.2902
        12                         -0.2562704              -6.9735
        13                         -0.0174865              -0.4758
        14                          0.0131316               0.3573
       ...                                ...                  ...
        17                          0.2139179               5.8210
      -------------------------------------------------------------
                  HL-Gap            0.0080960 Eh            0.2203 eV
             Fermi-level           -0.4201029 Eh          -11.4316 eV

 SCC (total)                   0 d,  0 h,  0 min,  0.004 sec
 SCC setup                      ...        0 min,  0.000 sec (  1.940%)
 Dispersion                     ...        0 min,  0.000 sec (  0.387%)
 integral evaluation            ...        0 min,  0.001 sec ( 25.914%)
 zeroth order Hamiltonian       ...        0 min,  0.000 sec (  0.424%)
 iterations                     ...        0 min,  0.002 sec ( 41.578%)
 molecular gradient             ...        0 min,  0.001 sec ( 27.449%)
 printout                       ...        0 min,  0.000 sec (  2.034%)

         :::::::::::::::::::::::::::::::::::::::::::::::::::::
         ::                     SUMMARY                     ::
         :::::::::::::::::::::::::::::::::::::::::::::::::::::
         :: total energy              -9.473943693862 Eh    ::
         :: gradient norm              0.208454791113 Eh/a0 ::
         :: HOMO-LUMO gap              0.220304512759 eV    ::
         ::.................................................::
         :: SCC energy                -9.559054055679 Eh    ::
         :: -> isotropic ES           -0.005051063256 Eh    ::
         :: -> anisotropic ES          0.002978236950 Eh    ::
         :: -> anisotropic XC          0.011070761949 Eh    ::
         :: -> dispersion             -0.002022565415 Eh    ::
         :: repulsion energy           0.085110326682 Eh    ::
         :: add. restraining           0.000000000000 Eh    ::
         :::::::::::::::::::::::::::::::::::::::::::::::::::::

      ----------------------------------------------------------- 
     |                   =====================                   |
     |                        A N C O P T                        |
     |                   =====================                   |
     |               Approximate Normal Coordinate               |
     |                Rational Function Optimizer                |
      ----------------------------------------------------------- 

          ...................................................
          :                      SETUP                      :
          :.................................................:
          :   optimization level            normal          :
          :   max. optcycles                   200          :
          :   ANC micro-cycles                  20          :
          :   degrees of freedom                 9          :
          :.................................................:
          :   RF solver                   davidson          :
          :   write xtbopt.log                true          :
          :   linear?                        false          :
          :   energy convergence         0.5000000E-05 Eh   :
          :   grad. convergence          0.1000000E-02 Eh/α :
          :   maximium RF displ.         1.0000000          :
          :   Hlow (freq-cutoff)         0.1000000E-01      :
          :   Hmax (freq-cutoff)         5.0000000          :
          :   S6 in model hess.         20.0000000          :
          ...................................................

generating ANC from model Hessian ...
Using Lindh-Hessian (1995)
 Shifting diagonal of input Hessian by    0.0000000000000000     
 Lowest  eigenvalues of input Hessian
   -0.000000   -0.000000   -0.000000    0.000000    0.000000    0.000000
    0.088806    0.110730    0.144764    0.522990    0.643660    0.928017
    0.980184    1.327383    1.527811
 Highest eigenvalues
    0.522990    0.643660    0.928017    0.980184    1.327383    1.527811


........................................................................
.............................. CYCLE    1 ..............................
........................................................................
   1     -9.5590541 -0.955905E+01  0.253E-04    0.22       0.0  T
   2     -9.5590540  0.105102E-07  0.153E-03    0.22      29.1  T
   3     -9.5590541 -0.104354E-07  0.265E-04    0.22     168.9  T
   4     -9.5590541 -0.192980E-09  0.156E-04    0.22     285.9  T
     SCC iter.                  ...        0 min,  0.000 sec
     gradient                   ...        0 min,  0.001 sec
 * total energy  :    -9.4739437 Eh     change       -0.2421297E-08 Eh
   gradient norm :     0.2084570 Eh/α   predicted     0.0000000E+00 (-100.00%)
   displ. norm   :     0.3954437 α      lambda       -0.6874653E-01
   maximum displ.:     0.3011521 α      in ANC's #3, #5, #7, ...

........................................................................
.............................. CYCLE    2 ..............................
........................................................................
   1     -9.6277487 -0.962775E+01  0.291E+00    0.64       0.0  T
   2     -9.6131686  0.145802E-01  0.232E+00    0.71       1.0  T
   3     -9.6138400 -0.671463E-03  0.234E+00    0.70       1.0  T
   4     -9.6255556 -0.117155E-01  0.111E+00    0.56       1.0  T
   5     -9.6331407 -0.758508E-02  0.282E-01    0.70       1.0  T
   6     -9.6335569 -0.416220E-03  0.986E-02    0.66       1.0  T
   7     -9.6335638 -0.689211E-05  0.604E-02    0.66       1.0  T
   8     -9.6335641 -0.359863E-06  0.981E-03    0.66       4.6  T
   9     -9.6335641  0.547711E-07  0.691E-03    0.66       6.5  T
  10     -9.6335643 -0.182294E-06  0.129E-03    0.66      34.5  T
  11     -9.6335643 -0.423806E-08  0.314E-04    0.66     142.6  T
  12     -9.6335643 -0.342396E-09  0.184E-04    0.66     243.0  T
     SCC iter.                  ...        0 min,  0.001 sec
     gradient                   ...        0 min,  0.001 sec
 * total energy  :    -9.5321606 Eh     change       -0.5821693E-01 Eh
   gradient norm :     0.1434191 Eh/α   predicted    -0.3974840E-01 ( -31.72%)
   displ. norm   :     0.5717936 α      lambda       -0.7329548E-01
   maximum displ.:     0.3416410 α      in ANC's #5, #3, #4, ...

........................................................................
.............................. CYCLE    3 ..............................
........................................................................
   1     -9.7205417 -0.972054E+01  0.377E+00    2.30       0.0  T
   2     -9.7153065  0.523523E-02  0.255E+00    2.54       1.0  T
   3     -9.7081084  0.719809E-02  0.210E+00    2.15       1.0  T
   4     -9.7290395 -0.209311E-01  0.184E-01    2.39       1.0  T
   5     -9.7291565 -0.116976E-03  0.997E-02    2.39       1.0  T
   6     -9.7291743 -0.178312E-04  0.514E-02    2.37       1.0  T
   7     -9.7291795 -0.518887E-05  0.157E-02    2.38       2.8  T
   8     -9.7291803 -0.809242E-06  0.542E-03    2.38       8.2  T
   9     -9.7291804 -0.443316E-07  0.819E-04    2.38      54.6  T
  10     -9.7291804 -0.874834E-09  0.157E-04    2.38     285.2  T
     SCC iter.                  ...        0 min,  0.001 sec
     gradient                   ...        0 min,  0.001 sec
 * total energy  :    -9.5612625 Eh     change       -0.2910186E-01 Eh
   gradient norm :     0.2033640 Eh/α   predicted    -0.4862961E-01 (  67.10%)
   displ. norm   :     0.2309734 α      lambda       -0.2980296E-01
   maximum displ.:     0.1474004 α      in ANC's #3, #2, #4, ...

........................................................................
.............................. CYCLE    4 ..............................
........................................................................
   1     -9.7054547 -0.970545E+01  0.149E+00    2.60       0.0  T
   2     -9.7053401  0.114636E-03  0.105E+00    2.53       1.0  T
   3     -9.7070432 -0.170310E-02  0.636E-01    2.68       1.0  T
   4     -9.7082310 -0.118780E-02  0.184E-01    2.60       1.0  T
   5     -9.7083545 -0.123543E-03  0.627E-02    2.65       1.0  T
   6     -9.7083399  0.146619E-04  0.606E-02    2.64       1.0  T
   7     -9.7083598 -0.198945E-04  0.716E-03    2.65       6.2  T
   8     -9.7083599 -0.896115E-07  0.208E-03    2.65      21.5  T
   9     -9.7083599 -0.963957E-08  0.492E-04    2.65      90.9  T
  10     -9.7083599 -0.255124E-09  0.988E-05    2.65     452.8  T
     SCC iter.                  ...        0 min,  0.001 sec
     gradient                   ...        0 min,  0.001 sec
 * total energy  :    -9.5791512 Eh     change       -0.1788873E-01 Eh
   gradient norm :     0.0474391 Eh/α   predicted    -0.1569645E-01 ( -12.26%)
   displ. norm   :     0.2420291 α      lambda       -0.7771359E-02
   maximum displ.:     0.1538248 α      in ANC's #3, #4, #2, ...

........................................................................
.............................. CYCLE    5 ..............................
........................................................................
   1     -9.7067247 -0.970672E+01  0.138E+00    3.21       0.0  T
   2     -9.7067512 -0.265499E-04  0.817E-01    3.17       1.0  T
   3     -9.7053842  0.136708E-02  0.747E-01    3.23       1.0  T
   4     -9.7077452 -0.236108E-02  0.194E-01    3.19       1.0  T
   5     -9.7078837 -0.138462E-03  0.435E-02    3.20       1.0  T
   6     -9.7078828  0.862216E-06  0.146E-02    3.20       3.1  T
   7     -9.7078840 -0.119878E-05  0.752E-03    3.20       6.0  T
   8     -9.7078842 -0.185049E-06  0.183E-03    3.20      24.5  T
   9     -9.7078842 -0.241031E-08  0.600E-04    3.20      74.6  T
  10     -9.7078842 -0.303583E-09  0.925E-05    3.20     483.6  T
     SCC iter.                  ...        0 min,  0.001 sec
     gradient                   ...        0 min,  0.001 sec
 * total energy  :    -9.5833891 Eh     change       -0.4237851E-02 Eh
   gradient norm :     0.0262251 Eh/α   predicted    -0.4113298E-02 (  -2.94%)
   displ. norm   :     0.0614572 α      lambda       -0.1054329E-02
   maximum displ.:     0.0462160 α      in ANC's #1, #6, #3, ...

........................................................................
.............................. CYCLE    6 ..............................
........................................................................
   1     -9.7103212 -0.971032E+01  0.311E-01    3.13       0.0  T
   2     -9.7103342 -0.130049E-04  0.175E-01    3.14       1.0  T
   3     -9.7103187  0.155244E-04  0.690E-02    3.13       1.0  T
   4     -9.7103346 -0.159053E-04  0.307E-02    3.13       1.5  T
   5     -9.7103396 -0.498579E-05  0.100E-02    3.13       4.5  T
   6     -9.7103394  0.194664E-06  0.646E-03    3.13       6.9  T
   7     -9.7103396 -0.256020E-06  0.121E-03    3.13      37.1  T
   8     -9.7103396 -0.828646E-09  0.254E-04    3.13     175.7  T
   9     -9.7103396 -0.689653E-10  0.945E-05    3.13     473.4  T
     SCC iter.                  ...        0 min,  0.001 sec
     gradient                   ...        0 min,  0.001 sec
 * total energy  :    -9.5841506 Eh     change       -0.7615644E-03 Eh
   gradient norm :     0.0175340 Eh/α   predicted    -0.5291547E-03 ( -30.52%)
   displ. norm   :     0.0858227 α      lambda       -0.1075824E-02
   maximum displ.:     0.0624053 α      in ANC's #3, #6, #7, ...

........................................................................
.............................. CYCLE    7 ..............................
........................................................................
   1     -9.7099334 -0.970993E+01  0.461E-01    3.15       0.0  T
   2     -9.7099296  0.378629E-05  0.273E-01    3.16       1.0  T
   3     -9.7096192  0.310456E-03  0.233E-01    3.15       1.0  T
   4     -9.7099639 -0.344765E-03  0.225E-02    3.16       2.0  T
   5     -9.7099631  0.804001E-06  0.160E-02    3.16       2.8  T
   6     -9.7099644 -0.123320E-05  0.410E-03    3.16      10.9  T
   7     -9.7099644 -0.802904E-07  0.179E-03    3.16      25.0  T
   8     -9.7099645 -0.426415E-08  0.390E-04    3.16     114.7  T
   9     -9.7099645 -0.153030E-09  0.110E-04    3.16     407.8  T
     SCC iter.                  ...        0 min,  0.001 sec
     gradient                   ...        0 min,  0.001 sec
 * total energy  :    -9.5846136 Eh     change       -0.4629535E-03 Eh
   gradient norm :     0.0176394 Eh/α   predicted    -0.5418752E-03 (  17.05%)
   displ. norm   :     0.0374264 α      lambda       -0.3130195E-03
   maximum displ.:     0.0295399 α      in ANC's #1, #2, #9, ...

........................................................................
.............................. CYCLE    8 ..............................
........................................................................
   1     -9.7123926 -0.971239E+01  0.164E-01    3.12       0.0  T
   2     -9.7123796  0.129895E-04  0.114E-01    3.12       1.0  T
   3     -9.7123904 -0.107837E-04  0.873E-02    3.12       1.0  T
   4     -9.7124161 -0.257604E-04  0.180E-02    3.12       2.5  T
   5     -9.7124176 -0.146321E-05  0.732E-03    3.12       6.1  T
   6     -9.7124178 -0.190183E-06  0.319E-03    3.12      14.0  T
   7     -9.7124178 -0.152705E-07  0.624E-04    3.12      71.6  T
   8     -9.7124178 -0.282675E-09  0.157E-04    3.12     284.6  T
     SCC iter.                  ...        0 min,  0.001 sec
     gradient                   ...        0 min,  0.001 sec
 * total energy  :    -9.5847785 Eh     change       -0.1648886E-03 Eh
   gradient norm :     0.0068778 Eh/α   predicted    -0.1567272E-03 (  -4.95%)
   displ. norm   :     0.0132099 α      lambda       -0.7002859E-04
   maximum displ.:     0.0069241 α      in ANC's #1, #5, #2, ...

........................................................................
.............................. CYCLE    9 ..............................
........................................................................
   1     -9.7126600 -0.971266E+01  0.807E-02    3.14       0.0  T
   2     -9.7126567  0.332937E-05  0.580E-02    3.14       1.0  T
   3     -9.7126606 -0.385990E-05  0.399E-02    3.14       1.1  T
   4     -9.7126662 -0.566180E-05  0.896E-03    3.14       5.0  T
   5     -9.7126665 -0.327045E-06  0.310E-03    3.14      14.4  T
   6     -9.7126666 -0.275450E-07  0.198E-03    3.14      22.6  T
   7     -9.7126666 -0.102648E-07  0.203E-04    3.14     220.2  T
   8     -9.7126666 -0.270468E-10  0.747E-05    3.14     598.7  T
     SCC iter.                  ...        0 min,  0.001 sec
     gradient                   ...        0 min,  0.001 sec
 * total energy  :    -9.5848299 Eh     change       -0.5145298E-04 Eh
   gradient norm :     0.0037859 Eh/α   predicted    -0.3502047E-04 ( -31.94%)
   displ. norm   :     0.0132505 α      lambda       -0.4278774E-04
   maximum displ.:     0.0079230 α      in ANC's #5, #9, #1, ...

........................................................................
.............................. CYCLE   10 ..............................
........................................................................
   1     -9.7127382 -0.971274E+01  0.848E-02    3.16       0.0  T
   2     -9.7127368  0.143072E-05  0.568E-02    3.16       1.0  T
   3     -9.7127378 -0.995681E-06  0.420E-02    3.16       1.1  T
   4     -9.7127442 -0.638748E-05  0.123E-02    3.16       3.6  T
   5     -9.7127448 -0.587370E-06  0.365E-03    3.16      12.3  T
   6     -9.7127448 -0.437767E-07  0.261E-03    3.16      17.2  T
   7     -9.7127448 -0.187504E-07  0.303E-04    3.16     147.6  T
   8     -9.7127448 -0.597637E-10  0.855E-05    3.16     523.1  T
     SCC iter.                  ...        0 min,  0.001 sec
     gradient                   ...        0 min,  0.001 sec
 * total energy  :    -9.5848536 Eh     change       -0.2365379E-04 Eh
   gradient norm :     0.0015663 Eh/α   predicted    -0.2139641E-04 (  -9.54%)
   displ. norm   :     0.0060138 α      lambda       -0.4023917E-05
   maximum displ.:     0.0030842 α      in ANC's #4, #2, #3, ...

........................................................................
.............................. CYCLE   11 ..............................
........................................................................
   1     -9.7128107 -0.971281E+01  0.193E-02    3.17       0.0  T
   2     -9.7128107  0.531525E-08  0.122E-02    3.17       3.7  T
   3     -9.7128101  0.540762E-06  0.968E-03    3.17       4.6  T
   4     -9.7128107 -0.594361E-06  0.110E-03    3.17      40.7  T
   5     -9.7128107 -0.166316E-08  0.685E-04    3.17      65.3  T
   6     -9.7128107 -0.108654E-08  0.372E-04    3.17     120.1  T
     SCC iter.                  ...        0 min,  0.000 sec
     gradient                   ...        0 min,  0.001 sec
 * total energy  :    -9.5848580 Eh     change       -0.4401869E-05 Eh
   gradient norm :     0.0011662 Eh/α   predicted    -0.2011912E-05 ( -54.29%)
   displ. norm   :     0.0092935 α      lambda       -0.4360863E-05
   maximum displ.:     0.0047245 α      in ANC's #2, #1, #7, ...

........................................................................
.............................. CYCLE   12 ..............................
........................................................................
   1     -9.7128644 -0.971286E+01  0.364E-02    3.17       0.0  T
   2     -9.7128642  0.207728E-06  0.212E-02    3.17       2.1  T
   3     -9.7128631  0.113555E-05  0.209E-02    3.17       2.1  T
   4     -9.7128650 -0.192759E-05  0.325E-03    3.17      13.8  T
   5     -9.7128651 -0.376074E-07  0.157E-03    3.17      28.5  T
   6     -9.7128651 -0.331033E-08  0.956E-04    3.17      46.8  T
   7     -9.7128651 -0.297982E-08  0.767E-05    3.17     583.2  T
     SCC iter.                  ...        0 min,  0.001 sec
     gradient                   ...        0 min,  0.001 sec
 * total energy  :    -9.5848616 Eh     change       -0.3604446E-05 Eh
   gradient norm :     0.0004133 Eh/α   predicted    -0.2179834E-05 ( -39.52%)
   displ. norm   :     0.0009565 α      lambda       -0.2030777E-06
   maximum displ.:     0.0008567 α      in ANC's #7, #8, #6, ...

   *** GEOMETRY OPTIMIZATION CONVERGED AFTER 12 ITERATIONS ***

------------------------------------------------------------------------
 total energy gain   :        -0.1109179 Eh      -69.6020 kcal/mol
 total RMSD          :         0.6039012 a0        0.3196 Å
 total power (kW/mol):       -24.2679066 (step)-8245.2544 (real)
------------------------------------------------------------------------

 ANCopt (total)                0 d,  0 h,  0 min,  0.035 sec
 optimizer setup                ...        0 min,  0.000 sec (  0.182%)
 model hessian                  ...        0 min,  0.000 sec (  0.266%)
 ANC generation                 ...        0 min,  0.000 sec (  0.144%)
 coordinate transformation      ...        0 min,  0.000 sec (  0.070%)
 single point calculation       ...        0 min,  0.034 sec ( 96.707%)
 optimization log               ...        0 min,  0.000 sec (  0.845%)
 hessian update                 ...        0 min,  0.000 sec (  0.070%)
 rational function              ...        0 min,  0.000 sec (  0.797%)

================
 final structure:
================
5
 xtb: 6.2.2 (9d81278992624c895f80dd42a50cac0aa55982e2)
N        -0.87844956941527   -0.48780174514557   -0.26078772873097
C         0.03177783983458    0.52928888769955   -0.12582781448896
C         0.95418970022442   -0.48420682416300   -0.30375706207395
C        -0.01744606464085   -1.11259895533777    0.55702449379021
H        -0.09007190600289    1.55531863694679    0.13334711150366

 Bond Distances (Angstroems)
 ---------------------------
N1-C2=1.3716         N1-C3=1.8331         N1-C4=1.3418         C2-N1=1.3716         C2-C3=1.3819         C2-C4=1.7789         
C2-H5=1.0652         C3-N1=1.8331         C3-C2=1.3819         C3-C4=1.4422         C4-N1=1.3418         C4-C2=1.7789         
C4-C3=1.4422         H5-C2=1.0652         
 C  H  Rav=1.0652 sigma=0.0000  Rmin=1.0652  Rmax=1.0652     1
 C  C  Rav=1.5343 sigma=0.1747  Rmin=1.3819  Rmax=1.7789     3
 N  C  Rav=1.5155 sigma=0.2249  Rmin=1.3418  Rmax=1.8331     3

 selected bond angles (degree)
 --------------------
C3-N1-C2= 48.50                C4-N1-C2= 81.92                C4-N1-C3= 51.22                C3-C2-N1= 83.48                
C4-C2-N1= 48.32                C4-C2-C3= 52.48                H5-C2-N1=131.47                H5-C2-C3=144.50                
H5-C2-C4=142.41                C2-C3-N1= 48.02                C4-C3-N1= 46.50                C4-C3-C2= 78.05                
C2-C4-N1= 49.76                C3-C4-N1= 82.28                C3-C4-C2= 49.46                

 selected dihedral angles (degree)
 ---------------------------------
C3-C2-N1-C4= 44.03            C4-C2-N1-C3=315.97            H5-C2-N1-C3=186.99            H5-C2-N1-C4=231.02            
N1-C3-C2-C4= 40.87            N1-C3-C2-H5=170.96            C4-C3-C2-N1=319.13            C4-C3-C2-H5=130.09            
C2-C4-N1-C3= 41.89            C3-C4-N1-C2=318.11            N1-C4-C2-C3=240.52            N1-C4-C2-H5=107.28            
C3-C4-C2-N1=119.48            C3-C4-C2-H5=226.75            N1-C4-C3-C2= 42.12            C2-C4-C3-N1=317.88            
           -------------------------------------------------
          |                Final Singlepoint                |
           -------------------------------------------------

          ...................................................
          :                      SETUP                      :
          :.................................................:
          :  # basis functions                  17          :
          :  # atomic orbitals                  17          :
          :  # shells                            9          :
          :  # electrons                        18          :
          :  max. iterations                   250          :
          :  Hamiltonian                  GFN2-xTB          :
          :  restarted?                      false          :
          :  GBSA solvation                  false          :
          :  PC potential                    false          :
          :  electronic temp.          300.0000000     K    :
          :  accuracy                    1.0000000          :
          :  -> integral cutoff          0.2500000E+02      :
          :  -> integral neglect         0.1000000E-07      :
          :  -> SCF convergence          0.1000000E-05 Eh   :
          :  -> wf. convergence          0.1000000E-03 e    :
          :  Broyden damping             0.4000000          :
          ...................................................

 iter      E             dE          RMSdq      gap      omega  full diag
   1     -9.7128651 -0.971287E+01  0.122E-05    3.17       0.0  T
   2     -9.7128651  0.177636E-13  0.705E-06    3.17    6339.5  T
   3     -9.7128651  0.207834E-12  0.699E-06    3.17    6393.5  T

   *** convergence criteria satisfied after 3 iterations ***

         #    Occupation            Energy/Eh            Energy/eV
      -------------------------------------------------------------
         1        2.0000           -0.7491559             -20.3856
       ...           ...                  ...                  ...
         3        2.0000           -0.6347826             -17.2733
         4        2.0000           -0.5914445             -16.0940
         5        2.0000           -0.5429475             -14.7744
         6        2.0000           -0.5241237             -14.2621
         7        2.0000           -0.4848843             -13.1944
         8        2.0000           -0.4385491             -11.9335
         9        2.0000           -0.4317904             -11.7496 (HOMO)
        10                         -0.3154493              -8.5838 (LUMO)
        11                         -0.2813467              -7.6558
        12                         -0.2768853              -7.5344
        13                          0.0580949               1.5808
        14                          0.0755165               2.0549
       ...                                ...                  ...
        17                          0.5973634              16.2551
      -------------------------------------------------------------
                  HL-Gap            0.1163411 Eh            3.1658 eV
             Fermi-level           -0.3736199 Eh          -10.1667 eV

 SCC (total)                   0 d,  0 h,  0 min,  0.003 sec
 SCC setup                      ...        0 min,  0.000 sec (  2.099%)
 Dispersion                     ...        0 min,  0.000 sec (  0.418%)
 integral evaluation            ...        0 min,  0.001 sec ( 37.352%)
 zeroth order Hamiltonian       ...        0 min,  0.000 sec (  0.445%)
 iterations                     ...        0 min,  0.000 sec ( 18.526%)
 molecular gradient             ...        0 min,  0.001 sec ( 39.215%)
 printout                       ...        0 min,  0.000 sec (  1.708%)

         :::::::::::::::::::::::::::::::::::::::::::::::::::::
         ::                     SUMMARY                     ::
         :::::::::::::::::::::::::::::::::::::::::::::::::::::
         :: total energy              -9.584861584094 Eh    ::
         :: gradient norm              0.000419155075 Eh/a0 ::
         :: HOMO-LUMO gap              3.165801534356 eV    ::
         ::.................................................::
         :: SCC energy                -9.712865074830 Eh    ::
         :: -> isotropic ES           -0.003518857026 Eh    ::
         :: -> anisotropic ES          0.001900070178 Eh    ::
         :: -> anisotropic XC          0.010900655396 Eh    ::
         :: -> dispersion             -0.001955664735 Eh    ::
         :: repulsion energy           0.128003465077 Eh    ::
         :: add. restraining           0.000000000000 Eh    ::
         :::::::::::::::::::::::::::::::::::::::::::::::::::::

           ------------------------------------------------- 
          |                Numerical Hessian                |
           ------------------------------------------------- 
step length          :   0.00500
SCC accuracy         :   0.30000
Hessian scale factor :   1.00000
frozen atoms in %    :   0.00000    0
RMS gradient         :   0.00042
estimated CPU  time      0.00 min
estimated wall time      0.00 min

writing file <hessian>.

 projected vibrational frequencies (cm-1)
eigval :       -0.00    -0.00    -0.00    -0.00     0.00     0.00
eigval :      587.87   636.07   762.58   812.81   954.63  1182.66
eigval :     1334.11  1505.00  3213.77
           -------------------------------------------------
          |                Property Printout                |
           -------------------------------------------------

    * Orbital Energies and Occupations

         #    Occupation            Energy/Eh            Energy/eV
      -------------------------------------------------------------
         1        2.0000           -0.7491559             -20.3856
         2        2.0000           -0.6416575             -17.4604
         3        2.0000           -0.6347826             -17.2733
         4        2.0000           -0.5914445             -16.0940
         5        2.0000           -0.5429475             -14.7744
         6        2.0000           -0.5241237             -14.2621
         7        2.0000           -0.4848843             -13.1944
         8        2.0000           -0.4385491             -11.9335
         9        2.0000           -0.4317904             -11.7496 (HOMO)
        10                         -0.3154493              -8.5838 (LUMO)
        11                         -0.2813467              -7.6558
        12                         -0.2768853              -7.5344
        13                          0.0580949               1.5808
        14                          0.0755165               2.0549
        15                          0.1247360               3.3942
        16                          0.2672562               7.2724
        17                          0.5973634              16.2551
      -------------------------------------------------------------
                  HL-Gap            0.1163410 Eh            3.1658 eV
             Fermi-level           -0.3736198 Eh          -10.1667 eV

     #   Z        covCN         q      C6AA      α(0)
     1   7 N      2.486    -0.117    23.601     7.214
     2   6 C      3.680     0.123    18.772     6.206
     3   6 C      2.626    -0.067    29.651     8.907
     4   6 C      2.752    -0.017    28.420     8.730
     5   1 H      0.927     0.078     2.003     2.213

 Mol. C6AA /au·bohr⁶  :        456.072169
 Mol. C8AA /au·bohr⁸  :      11850.813307
 Mol. α(0) /au        :         33.269527


Wiberg/Mayer (AO) data.
largest (>0.10) Wiberg bond orders for each atom
          total WBO             WBO to atom ...
     1  N   3.068        C    4 1.319    C    2 1.131    C    3 0.614
     2  C   3.907        C    3 1.323    N    1 1.131    H    5 0.956    C    4 0.497
     3  C   3.018        C    2 1.323    C    4 1.074    N    1 0.614
Molecule has no symmetry elements
It seems to be the C1 point group
     4  C   2.919        N    1 1.319    C    3 1.074    C    2 0.497
     5  H   0.994        C    2 0.956

MOs/occ written to file <molden.input>


molecular dipole:
                 x           y           z       tot (Debye)
 q only:        0.068       0.557       0.068
   full:       -0.099       1.108       0.128       2.847
molecular quadrupole (traceless):
                xx          xy          yy          xz          yz          zz
 q only:       -0.789      -0.152       0.859      -0.046      -0.032      -0.071
  q+dip:       -1.702      -0.231       1.543      -0.076       1.158       0.159
   full:       -1.867       0.224       1.227       0.196       1.485       0.640

           -------------------------------------------------
          |                Geometry Summary                 |
           -------------------------------------------------

      molecular mass/u    :       51.0468517
   center of mass at/Å    :       -0.0149356      -0.3543115      -0.0389386
  moments of inertia/u·Å² :        0.2554532E+02   0.2678656E+02   0.4384066E+02
rotational constants/cm⁻¹ :        0.6599107E+00   0.6293317E+00   0.3845205E+00

 * 4 selected distances

     #   Z        #   Z                                     value/Å
     1   7 N      2   6 C                                 1.3715690
     2   6 C      3   6 C                                 1.3819103 (max)
     1   7 N      4   6 C                                 1.3418329
     2   6 C      5   1 H                                 1.0652493 (min)

 * 3 distinct bonds (by element types)

   Z      Z             #   av. dist./Å        max./Å        min./Å
   1 H    6 C           1     1.0652493     1.0652493     1.0652493
   6 C    6 C           1     1.3819103     1.3819103     1.3819103
   6 C    7 N           2     1.3567009     1.3715690     1.3418329

           -------------------------------------------------
          |               Frequency Printout                |
           -------------------------------------------------
 projected vibrational frequencies (cm-1)
eigval :       -0.00    -0.00    -0.00    -0.00     0.00     0.00
eigval :      587.87   636.07   762.58   812.81   954.63  1182.66
eigval :     1334.11  1505.00  3213.77
 reduced masses (amu)
   1: 11.62   2: 11.67   3: 11.11   4: 12.54   5: 12.90   6: 12.06   7: 11.92   8:  7.59
   9:  9.23  10: 10.48  11:  3.63  12: 12.13  13: 12.20  14: 12.10  15:  1.97
 IR intensities (amu)
   1:  0.09   2:  0.15   3:  0.16   4:  0.16   5:  0.10   6:  0.19   7:  0.29   8:  0.24
   9:  0.22  10:  0.53  11:  0.05  12:  0.74  13:  1.12  14:  0.33  15:  0.09
 Raman intensities (amu)
   1:  0.00   2:  0.00   3:  0.00   4:  0.00   5:  0.00   6:  0.00   7:  0.00   8:  0.00
   9:  0.00  10:  0.00  11:  0.00  12:  0.00  13:  0.00  14:  0.00  15:  0.00
 output can be read by thermo (or use thermo option).
 writing <g98.out> molden fake output.
 recommended (thermochemical) frequency scaling factor: 1.0
           -------------------------------------------------
          |             Thermodynamic Functions             |
           -------------------------------------------------

c1  symmetry found (for desy threshold:  0.10E+00) used in thermo

          ...................................................
          :                      SETUP                      :
          :.................................................:
          :  # frequencies                           9      :
          :  # imaginary freq.                       0      :
          :  linear?                             false      :
          :  only rotor calc.                    false      :
          :  symmetry                               c1      :
          :  rotational number                       1      :
          :  scaling factor                  1.0000000      :
          :  rotor cutoff                   50.0000000 cm⁻¹ :
          :  imag. cutoff                  -20.0000000 cm⁻¹ :
          :.................................................:

    mode    ω/cm⁻¹     T·S(HO)/kcal·mol⁻¹    T·S(FR)/kcal·mol⁻¹   T·S(vib)
   ------------------------------------------------------------------------
   ------------------------------------------------------------------------

   temp. (K)  partition function   enthalpy   heat capacity  entropy
                                   cal/mol     cal/K/mol   cal/K/mol   J/K/mol
 298.15  VIB   1.18                  344.508      4.210      1.492
         ROT  0.132E+05              888.752      2.981     21.841
         INT  0.157E+05             1233.261      7.191     23.332
         TR   0.353E+27             1481.254      4.968     37.697
         TOT                        2714.5147    12.1593    61.0289   255.3449

   temp. (K)  partition function   enthalpy   heat capacity  entropy
                                   cal/mol     cal/K/mol   cal/K/mol   J/K/mol
 120.00  VIB   1.00                    2.750      0.174      0.026
         ROT  0.338E+04              357.707      2.981     19.128
         INT  0.338E+04              360.456      3.155     19.154
         TR   0.901E+26              596.178      4.968     33.177
         TOT                         956.6345     8.1233    52.3309   218.9524

   temp. (K)  partition function   enthalpy   heat capacity  entropy
                                   cal/mol     cal/K/mol   cal/K/mol   J/K/mol
 100.00  VIB   1.00                    0.610      0.055      0.007
         ROT  0.257E+04              298.089      2.981     18.584
         INT  0.257E+04              298.699      3.036     18.591
         TR   0.685E+26              496.815      4.968     32.272
         TOT                         795.5135     8.0037    50.8628   212.8101

   temp. (K)  partition function   enthalpy   heat capacity  entropy
                                   cal/mol     cal/K/mol   cal/K/mol   J/K/mol
  80.00  VIB   1.00                    0.066      0.009      0.001
         ROT  0.184E+04              238.471      2.981     17.919
         INT  0.184E+04              238.537      2.990     17.920
         TR   0.490E+26              397.452      4.968     31.164
         TOT                         635.9894     7.9582    49.0837   205.3661

   temp. (K)  partition function   enthalpy   heat capacity  entropy
                                   cal/mol     cal/K/mol   cal/K/mol   J/K/mol
  60.00  VIB   1.00                    0.002      0.000     -0.000
         ROT  0.119E+04              178.853      2.981     17.062
         INT  0.119E+04              178.855      2.981     17.061
         TR   0.319E+26              298.089      4.968     29.735
         TOT                         476.9441     7.9495    46.7967   195.7973

   temp. (K)  partition function   enthalpy   heat capacity  entropy
                                   cal/mol     cal/K/mol   cal/K/mol   J/K/mol
  40.00  VIB   1.00                    0.000      0.000     -0.000
         ROT   650.                  119.236      2.981     15.853
         INT   650.                  119.236      2.981     15.853
         TR   0.173E+26              198.726      4.968     27.722
         TOT                         317.9616     7.9490    43.5745   182.3158

   temp. (K)  partition function   enthalpy   heat capacity  entropy
                                   cal/mol     cal/K/mol   cal/K/mol   J/K/mol
  20.00  VIB   1.00                    0.000      0.000     -0.000
         ROT   230.                   59.618      2.981     13.787
         INT   230.                   59.618      2.981     13.786
         TR   0.613E+25               99.363      4.968     24.280
         TOT                         158.9808     7.9490    38.0662   159.2692

   temp. (K)  partition function   enthalpy   heat capacity  entropy
                                   cal/mol     cal/K/mol   cal/K/mol   J/K/mol
  10.00  VIB   1.00                    0.000      0.000     -0.000
         ROT   81.3                   29.809      2.981     11.720
         INT   81.3                   29.809      2.981     11.720
         TR   0.217E+25               49.681      4.968     20.838
         TOT                          79.4904     7.9490    32.5580   136.2226

       T/K    H(0)-H(T)+PV         H(T)/Eh          T*S/Eh         G(T)/Eh
   ------------------------------------------------------------------------
    298.15    0.432585E-02    0.293618E-01    0.289968E-01    0.365022E-03
    120.00    0.152449E-02    0.265605E-01    0.100073E-01    0.165531E-01
    100.00    0.126773E-02    0.263037E-01    0.810551E-02    0.181982E-01
     80.00    0.101351E-02    0.260495E-01    0.625759E-02    0.197919E-01
     60.00    0.760059E-03    0.257960E-01    0.447452E-02    0.213215E-01
     40.00    0.506704E-03    0.255427E-01    0.277762E-02    0.227650E-01
     20.00    0.253352E-03    0.252893E-01    0.121325E-02    0.240761E-01
     10.00    0.126676E-03    0.251626E-01    0.518844E-03    0.246438E-01 (used)
   ------------------------------------------------------------------------

         :::::::::::::::::::::::::::::::::::::::::::::::::::::
         ::                  THERMODYNAMIC                  ::
         :::::::::::::::::::::::::::::::::::::::::::::::::::::
         :: total free energy          -9.560217790320 Eh   ::
         ::.................................................::
         :: total energy               -9.584861584021 Eh   ::
         :: zero point energy           0.025035962170 Eh   ::
         :: G(RRHO) w/o ZPVE           -0.000392168468 Eh   ::
         :: G(RRHO) contrib.            0.024643793701 Eh   ::
         :::::::::::::::::::::::::::::::::::::::::::::::::::::

optimized geometry written to: xtbopt.xyz


           -------------------------------------------------
          | TOTAL ENERGY               -9.584861584021 Eh   |
          | TOTAL ENTHALPY             -9.559698945836 Eh   |
          | TOTAL FREE ENERGY          -9.560217790320 Eh   |
          | GRADIENT NORM               0.000419126037 Eh/α |
          | HOMO-LUMO GAP               3.165800838420 eV   |
           -------------------------------------------------

------------------------------------------------------------------------
 * finished run on 2020/05/12 at 11:45:01.962     
------------------------------------------------------------------------
 total:
 * wall-time:     0 d,  0 h,  0 min,  0.140 sec
 *  cpu-time:     0 d,  0 h,  0 min,  0.140 sec
 * ratio c/w:     0.998 speedup
 SCF:
 * wall-time:     0 d,  0 h,  0 min,  0.004 sec
 *  cpu-time:     0 d,  0 h,  0 min,  0.004 sec
 * ratio c/w:     1.000 speedup
 ANC optimizer:
 * wall-time:     0 d,  0 h,  0 min,  0.039 sec
 *  cpu-time:     0 d,  0 h,  0 min,  0.039 sec
 * ratio c/w:     0.999 speedup
 numerical hessian:
 * wall-time:     0 d,  0 h,  0 min,  0.081 sec
 *  cpu-time:     0 d,  0 h,  0 min,  0.080 sec
 * ratio c/w:     0.998 speedup

