[Molden Format]
[Title]
[Atoms] AU
N      1     7 -0.16600354932904E+01 -0.92180378412828E+00 -0.49280993477850E+00
C      2     6  0.60055815621750E-01  0.10002102163166E+01 -0.23778204149771E+00
C      3     6  0.18031502423073E+01 -0.91502864358107E+00 -0.57402229967647E+00
C      4     6 -0.32975615393703E-01 -0.21025051072536E+01  0.10526274249497E+01
H      5     1 -0.17019494925158E+00  0.29391273186431E+01  0.25198496127706E+00
[GTO]
           1 0
 s           4   1.0000000000000000     
   63.594024466941008      -0.19234388414721629     
   10.951417231523665      -0.23478107924953728     
  0.87999310257376984       0.37593753901700888     
  0.33538715296521110       0.14982889271862770     
 p           4   1.0000000000000000     
   7.2965040481495080       0.97658666315667420     
   1.8918745450712575       0.90372226730345739     
  0.66694432110824120       0.47404958461536373     
  0.26552202674130870        7.1516067715011844E-002

           2 0
 s           4   1.0000000000000000     
   51.049363095579913      -0.16312063210127389     
   8.7911227406887544      -0.19911024581000730     
  0.70640422258929825       0.31882047753655751     
  0.26922813413411617       0.12706504184240380     
 p           4   1.0000000000000000     
   5.8263656140800002       0.73716451545209605     
   1.5106896018720002       0.68216371614850257     
  0.53256483288000001       0.35783053929253711     
  0.21202323690600003        5.3983030275847881E-002

           3 0
 s           4   1.0000000000000000     
   51.049363095579913      -0.16312063210127389     
   8.7911227406887544      -0.19911024581000730     
  0.70640422258929825       0.31882047753655751     
  0.26922813413411617       0.12706504184240380     
 p           4   1.0000000000000000     
   5.8263656140800002       0.73716451545209605     
   1.5106896018720002       0.68216371614850257     
  0.53256483288000001       0.35783053929253711     
  0.21202323690600003        5.3983030275847881E-002

           4 0
 s           4   1.0000000000000000     
   51.049363095579913      -0.16312063210127389     
   8.7911227406887544      -0.19911024581000730     
  0.70640422258929825       0.31882047753655751     
  0.26922813413411617       0.12706504184240380     
 p           4   1.0000000000000000     
   5.8263656140800002       0.73716451545209605     
   1.5106896018720002       0.68216371614850257     
  0.53256483288000001       0.35783053929253711     
  0.21202323690600003        5.3983030275847881E-002

           5 0
 s           3   1.0000000000000000     
   3.3702276975336001       0.27359110588908298     
  0.61389118221497996       0.26460540653860526     
  0.16614291148415999        8.2465947534082318E-002

[MO]
Sym=     1a
Ene=  -0.74915585871925627     
Spin= Alpha
Occup=     2.00000000
           1  0.31563534217103484     
           2  0.21759140691951373     
           3   4.6294062731825326E-002
           4   6.3773002352943406E-002
           5  0.31447268521345179     
           6  -1.4519288789878328E-002
           7 -0.17679312981924761     
           8   5.7351918010300901E-003
           9  0.26643027645539846     
          10 -0.12696387149344807     
          11   2.4335133721821497E-002
          12   3.6013112266728368E-002
          13  0.27091504734838501     
          14  -5.4699893885083459E-003
          15  0.10993364740069266     
          16  -9.1139527402776338E-002
          17   3.3699862677296445E-002
Sym=     2a
Ene=  -0.64165748631101993     
Spin= Alpha
Occup=     2.00000000
           1  0.14864762884799404     
           2   1.1522957134144023E-002
           3 -0.30754035079597924     
           4  0.13526787802907586     
           5 -0.46861867834939841     
           6  -1.8945154344440513E-002
           7 -0.14699022437594425     
           8   6.7266287953404488E-002
           9  -5.3812089340689977E-002
          10  -1.5050770971804532E-002
          11 -0.20164539649731639     
          12   5.1944443439000697E-002
          13  0.35891153068741805     
          14  -8.9382784548543440E-002
          15  -4.7278900169647857E-002
          16  -6.9711930488538035E-002
          17 -0.26279208990884717     
Sym=     3a
Ene=  -0.63478255326508426     
Spin= Alpha
Occup=     2.00000000
           1  0.45985412039761769     
           2  -8.6385225283731715E-002
           3  0.14782367494134602     
           4  0.11277263849100416     
           5   5.2673917592749607E-002
           6 -0.37167709875341670     
           7   4.6422870807545258E-002
           8   2.4773594517860160E-002
           9 -0.46770489009192495     
          10  -1.2971447656063615E-002
          11  -1.6352056018510454E-002
          12  -5.6349301475262834E-002
          13  -7.5309508953398760E-002
          14 -0.25079993474198942     
          15   3.1348887195820546E-002
          16   3.0526951984921811E-002
          17   6.5296450757701685E-002
Sym=     4a
Ene=  -0.59144453327591051     
Spin= Alpha
Occup=     2.00000000
           1  0.21133292306568882     
           2   8.9950503148589669E-002
           3  0.10137582022183221     
           4 -0.38454173359127036     
           5 -0.11431313351148190     
           6  -6.6442867997674376E-002
           7 -0.24149454482527657     
           8 -0.36271635929777907     
           9   8.5451426589689322E-002
          10  -5.9027224299295827E-002
          11   1.0756824864386122E-002
          12 -0.22703295376188820     
          13 -0.33820452741131468     
          14   3.3250671241152163E-002
          15  -5.4409278569655779E-002
          16 -0.15138147139236380     
          17 -0.27634858627091319     
Sym=     5a
Ene=  -0.54294754677694301     
Spin= Alpha
Occup=     2.00000000
           1  0.19383998470673414     
           2  -1.2803177192067861E-002
           3 -0.47949849218550888     
           4 -0.16391056726043976     
           5   8.6458487581079060E-002
           6  0.18795698452925688     
           7  0.31352545386581432     
           8 -0.19075737309183666     
           9   2.6742733571707228E-002
          10  -3.5267981987860193E-002
          11   1.3729023633532815E-002
          12 -0.20097881946179305     
          13   6.7579518776265959E-002
          14 -0.21289871131487426     
          15 -0.22912059713745331     
          16 -0.22680189791782576     
          17  0.28803678038565356     
Sym=     6a
Ene=  -0.52412366219710338     
Spin= Alpha
Occup=     2.00000000
           1   6.1268085819341053E-002
           2  -9.6925853147973154E-002
           3 -0.14158861267964265     
           4  0.26246128807614344     
           5   2.1436252603485105E-002
           6  0.35188802835055322     
           7 -0.18079970680733931     
           8   5.4499988883841229E-002
           9  -1.4389183457367373E-002
          10   4.9391933629669503E-002
          11  0.46936288937040932     
          12  -8.2719373750122782E-002
          13 -0.22886137736974127     
          14 -0.34950086606128977     
          15  0.20287074410253061     
          16   8.4636602450797738E-002
          17 -0.19638802971577715     
Sym=     7a
Ene=  -0.48488431723578174     
Spin= Alpha
Occup=     2.00000000
           1  0.48764291510130692     
           2 -0.58967265722428830     
           3   5.6837436781096533E-002
           4  -1.3315011187020593E-002
           5  -6.7097228147230265E-002
           6   2.0017393541732393E-002
           7   3.5580362265225741E-002
           8   6.9887407197183740E-002
           9  0.47665679341540568     
          10  0.38279509457020616     
          11  -6.2406508640011356E-002
          12   7.9548492056745801E-002
          13  -6.4959976589786542E-002
          14  0.11806221379751757     
          15   1.1536729029959268E-002
          16   2.0181832550065684E-002
          17   2.4249551819690501E-002
Sym=     8a
Ene=  -0.43854914779441151     
Spin= Alpha
Occup=     2.00000000
           1  -2.6194174011302800E-002
           2  0.16542921788883130     
           3 -0.15236586950489298     
           4   8.3343810222112763E-002
           5 -0.10681026567664535     
           6  -6.0174732325114652E-002
           7   3.2587378243102205E-002
           8  0.40153045728674402     
           9   7.9340540421167408E-002
          10   3.6111601736077296E-002
          11 -0.21552637708710609     
          12   9.1048646835356021E-003
          13 -0.55933267076899884     
          14   1.3653510807163113E-002
          15  0.34393334187451458     
          16 -0.52964394708868856     
          17  0.10401580436645183     
Sym=     9a
Ene=  -0.43179036675106169     
Spin= Alpha
Occup=     2.00000000
           1 -0.26630147114384545     
           2  0.16231957617133574     
           3  0.18222228835424437     
           4  0.48913983556232093     
           5  -1.6131336843316732E-002
           6 -0.19787666639744433     
           7   3.6407331651277054E-002
           8 -0.18743818730112133     
           9  0.39333021696775361     
          10  0.29119190954373020     
          11 -0.17643000804023634     
          12 -0.48377474197489795     
          13   4.5897674218212399E-002
          14 -0.21924938744790587     
          15  -8.5099718532087837E-002
          16  -2.8347357259051005E-003
          17   1.6597449537417965E-002
Sym=    10a
Ene=  -0.31544932668261449     
Spin= Alpha
Occup=     0.00000000
           1  -6.9759101537498383E-002
           2 -0.53493106068239293     
           3  0.16997898111856516     
           4  0.50862659124635434     
           5   7.0190073082153137E-002
           6  0.17507949517257923     
           7   3.4368317986732740E-002
           8 -0.22635555447863928     
           9 -0.10172433280325377     
          10 -0.59266825088586128     
          11 -0.11429288970130340     
          12  -7.0766177577909803E-002
          13  -7.8954066109584733E-002
          14  0.21404345033086222     
          15 -0.10728134963999827     
          16 -0.31632548277329042     
          17  -6.6681308522981916E-002
Sym=    11a
Ene=  -0.28134674173568375     
Spin= Alpha
Occup=     0.00000000
           1  -3.3342656579932108E-002
           2  0.16863301482191365     
           3  0.12302760233840711     
           4  0.23407646500043275     
           5  0.11747301329029211     
           6  -7.6118107296194448E-002
           7   1.0756935065709045E-002
           8 -0.26581503662678418     
           9  -8.3108624977369011E-002
          10  0.37449389502828911     
          11  0.25788054925337534     
          12  0.63080375799896227     
          13  -7.3885541388469311E-002
          14  -6.9324255805779167E-002
          15 -0.44757936456523478     
          16 -0.47922460445214277     
          17 -0.13831663687745346     
Sym=    12a
Ene=  -0.27688527826258436     
Spin= Alpha
Occup=     0.00000000
           1  -1.1653458771711341E-002
           2  -5.2061172577878109E-002
           3  0.19597066918792488     
           4 -0.13524068145562324     
           5  0.12960137933300930     
           6   3.9263286332347859E-002
           7 -0.25615200179517345     
           8  0.73624840974308425     
           9   3.0419543102580038E-002
          10  -8.2367058576518409E-002
          11  0.12353315367583649     
          12 -0.29531310498592317     
          13   1.8347573706867272E-002
          14  -5.8312005125651656E-002
          15 -0.68613404659522625     
          16 -0.13389666098868053     
          17  -6.2870017502030709E-002
Sym=    13a
Ene=    5.8094864345206873E-002
Spin= Alpha
Occup=     0.00000000
           1 -0.15035368002643668     
           2  -9.8970304173138693E-002
           3  0.16133501710171946     
           4 -0.22403009525229400     
           5  0.65635666644020230     
           6  0.37092644715560796     
           7  0.12893463421446402     
           8   2.1519023725993427E-002
           9   6.0263755588985751E-002
          10  -3.7644783561800572E-002
          11 -0.77764585099060557     
          12  0.29848454499241239     
          13 -0.15941963341541809     
          14 -0.68137994616112263     
          15  -1.0142879684272271E-002
          16  0.14102217129820482     
          17 -0.49383711313433676     
Sym=    14a
Ene=    7.5516523736763999E-002
Spin= Alpha
Occup=     0.00000000
           1  0.27936058801150560     
           2  0.24276070155186977     
           3  0.75787430853851911     
           4  -7.4073546656065054E-002
           5 -0.78776080183441932     
           6  0.69182527567689855     
           7   3.7854268178891372E-003
           8  -5.2582028598563910E-002
           9  -6.2383485169257742E-002
          10  -2.3130997675340097E-002
          11 -0.12807672807473308     
          12   7.4460062476602806E-002
          13  0.12103048665255078     
          14 -0.27550295776523132     
          15   2.4786404726288371E-002
          16 -0.10282365520058780     
          17  0.56139020294184838     
Sym=    15a
Ene=   0.12473596869523416     
Spin= Alpha
Occup=     0.00000000
           1  0.55729882223869220     
           2  0.38765469486797932     
           3   5.6052564625657914E-002
           4  0.25367054265562955     
           5  0.37298158483624538     
           6  0.54653965669696569     
           7  0.35574508918417674     
           8   8.6704212205303513E-002
           9 -0.53815476741215673     
          10  0.41259923064501630     
          11 -0.16018188702912042     
          12 -0.36534590759816171     
          13   4.3212354158478149E-002
          14  0.63788320812635158     
          15   1.7532582465557878E-002
          16   1.5898614256938552E-002
          17 -0.48207779562919034     
Sym=    16a
Ene=   0.26725623321783903     
Spin= Alpha
Occup=     0.00000000
           1 -0.36231585914906617     
           2 -0.29453148894526909     
           3  0.38831045332384972     
           4 -0.40966417514695280     
           5   2.8046254747346414E-002
           6 -0.13565601193108251     
           7  0.58146936211797051     
           8  0.13217051290250284     
           9  -6.6501718846340499E-002
          10  0.11614861293938701     
          11  0.38788645985240755     
          12 -0.23953672101593959     
          13  0.76327631600208867     
          14 -0.17096726158118561     
          15  0.48579935635869625     
          16 -0.62872667912735691     
          17 -0.52116296576501608     
Sym=    17a
Ene=   0.59736343772867617     
Spin= Alpha
Occup=     0.00000000
           1  0.44913292328598414     
           2  0.41670477858482680     
           3  0.11710237813721118     
           4  0.15035436199654054     
           5 -0.36508543132815013     
           6 -0.22788235568774734     
           7   1.0451417993485792     
           8  0.21438678665501429     
           9  0.72323624439096323     
          10 -0.63301561055217159     
          11  0.29988696499114603     
          12  0.22269232685711171     
          13 -0.36923234075609745     
          14  -5.7957645602730090E-002
          15 -0.22263997302862779     
          16  0.35439873758267804     
          17 -0.59038097507177079     
