 Entering Gaussian System
 *********************************************
 Gaussian 98:
 frequency output generated by the xtb code
 *********************************************
                         Standard orientation:
 --------------------------------------------------------------------
  Center     Atomic     Atomic              Coordinates (Angstroms)
  Number     Number      Type              X           Y           Z
 --------------------------------------------------------------------
    1          8             0        0.010770    0.441524   -0.000001
    2          8             0       -1.124461   -0.232115    0.000004
    3          7             0        1.113691   -0.209409   -0.000004
 --------------------------------------------------------------------
     1 basis functions        1 primitive gaussians
     1 alpha electrons        1 beta electrons

 Harmonic frequencies (cm**-1), IR intensities (KM/Mole),
 Raman scattering activities (A**4/amu), Raman depolarization ratios,
 reduced masses (AMU), force constants (mDyne/A) and normal coordinates:
                      1                      2                      3
                        a                      a                      a 
 Frequencies --   510.9513              1043.4847              1245.2185
 Red. masses --    15.2602                15.9984                14.8946
 Frc consts  --     0.0000                 0.0000                 0.0000
 IR Inten    --     0.2809                 0.6482                 0.3945
 Raman Activ --     0.0000                 0.0000                 0.0000
 Depolar     --     0.0000                 0.0000                 0.0000
 Atom AN      X      Y      Z        X      Y      Z        X      Y      Z
   1   8    -0.01   0.55  -0.00    -0.62  -0.36   0.00     0.45  -0.46  -0.00
   2   8     0.50  -0.26  -0.00     0.60   0.36  -0.00     0.15   0.10  -0.00
   3   7    -0.52  -0.31   0.00     0.02  -0.00  -0.00    -0.64   0.39   0.00
