3
 energy: -10.647485986889 gnorm: 0.073678969321 xtb: 6.2.2 (9d81278992624c895f80dd42a50cac0aa55982e2)
O        -0.01666200000000    0.54449500000000    0.00000000000000
O        -1.04707900000000   -0.27410000000000    0.00000000000000
N         1.06374100000000   -0.27039500000000    0.00000000000000
3
 energy: -10.654503338157 gnorm: 0.053207364854 xtb: 6.2.2 (9d81278992624c895f80dd42a50cac0aa55982e2)
O        -0.00567608849201    0.49667478067111    0.00000000000000
O        -1.08956469308651   -0.25393940388003    0.00000000000000
N         1.09524078157853   -0.24273537679108    0.00000000000000
3
 energy: -10.657490404406 gnorm: 0.011354726965 xtb: 6.2.2 (9d81278992624c895f80dd42a50cac0aa55982e2)
O         0.01489499494630    0.43006366608597    0.00000000000000
O        -1.13410633644315   -0.22786486836329    0.00000000000000
N         1.11921134149686   -0.20219879772268    0.00000000000000
3
 energy: -10.657626606729 gnorm: 0.001447821889 xtb: 6.2.2 (9d81278992624c895f80dd42a50cac0aa55982e2)
O         0.01089011269567    0.44111778129119    0.00000000000000
O        -1.12590068200359   -0.23196230859180    0.00000000000000
N         1.11501056930792   -0.20915547269939    0.00000000000000
3
 energy: -10.657628370704 gnorm: 0.000149309990 xtb: 6.2.2 (9d81278992624c895f80dd42a50cac0aa55982e2)
O         0.01076774091453    0.44152408090362    0.00000000000000
O        -1.12446010012155   -0.23212049850073    0.00000000000000
N         1.11369235920703   -0.20940358240290    0.00000000000000
