[Molden Format]
[Title]
[Atoms] AU
O      1     8  0.20352448112196E-01  0.83435940636818E+00 -0.15272602610473E-05
O      2     8 -0.21249237268396E+01 -0.43863300331136E+00  0.81829534906610E-05
N      3     7  0.21045712787274E+01 -0.39572640305682E+00 -0.66556932296137E-05
[GTO]
           1 0
 s           4   1.0000000000000000     
   69.137961906196551      -0.20478756370077797     
   11.906129132707308      -0.24997023136827334     
  0.95670827744340703       0.40025880240639616     
  0.36462520496073686       0.15952206667693555     
 p           4   1.0000000000000000     
   8.2124193257781641        1.1321556799186829     
   2.1293576997098116        1.0476840782254817     
  0.75066448202360914       0.54956508217158984     
  0.29885246543283073        8.2908486592766617E-002

           2 0
 s           4   1.0000000000000000     
   69.137961906196551      -0.20478756370077797     
   11.906129132707308      -0.24997023136827334     
  0.95670827744340703       0.40025880240639616     
  0.36462520496073686       0.15952206667693555     
 p           4   1.0000000000000000     
   8.2124193257781641        1.1321556799186829     
   2.1293576997098116        1.0476840782254817     
  0.75066448202360914       0.54956508217158984     
  0.29885246543283073        8.2908486592766617E-002

           3 0
 s           4   1.0000000000000000     
   63.594024466941008      -0.19234388414721629     
   10.951417231523665      -0.23478107924953728     
  0.87999310257376984       0.37593753901700888     
  0.33538715296521110       0.14982889271862770     
 p           4   1.0000000000000000     
   7.2965040481495080       0.97658666315667420     
   1.8918745450712575       0.90372226730345739     
  0.66694432110824120       0.47404958461536373     
  0.26552202674130870        7.1516067715011844E-002

[MO]
Sym=     1a
Ene=  -0.84209413756182450     
Spin= Alpha
Occup=     2.00000000
           1 -0.69933332646753654     
           2  -2.6289968757491750E-002
           3  0.14863090795019374     
           4  -2.0365318577848949E-007
           5 -0.20436180736877524     
           6 -0.18743048757712735     
           7  -7.5595291100642309E-002
           8   7.8798992180307330E-007
           9 -0.19343494320593083     
          10  0.18753708451904894     
          11  -8.2396725177285995E-002
          12  -5.2293879601043610E-007
Sym=     2a
Ene=  -0.79689531238796374     
Spin= Alpha
Occup=     2.00000000
           1   8.2111880878996471E-002
           2  0.52734828687371438     
           3   5.3378154498186406E-002
           4  -1.9141307113210134E-006
           5 -0.52599086413676210     
           6 -0.12139323876418251     
           7 -0.13341353034573361     
           8   6.8090802414240520E-007
           9  0.27055640327505293     
          10 -0.11367368254950153     
          11  0.14582035140785377     
          12   1.4978078329623031E-007
Sym=     3a
Ene=  -0.71872615853995769     
Spin= Alpha
Occup=     2.00000000
           1 -0.45173981878497871     
           2  0.19413922832549543     
           3 -0.55151531210465976     
           4   2.1251788338669492E-007
           5  0.43485564886486405     
           6  -2.1193395515407713E-002
           7 -0.29451103858898020     
           8   5.3571096371780947E-007
           9  0.28878013267537256     
          10 -0.12686287208867211     
          11  -8.2449853901924497E-002
          12   5.7104289949621921E-007
Sym=     4a
Ene=  -0.68255650882393393     
Spin= Alpha
Occup=     2.00000000
           1  -7.6320515782702317E-008
           2   2.6256777144614152E-006
           3   1.2173548230171299E-006
           4  0.76248952123925251     
           5  -4.2444138806852620E-008
           6   1.5150595791432459E-006
           7   7.1243554838131215E-007
           8  0.41915985253714810     
           9  -3.4351536759727111E-009
          10   9.7514835285174187E-007
          11   4.4644781903712424E-007
          12  0.28788723070088734     
Sym=     5a
Ene=  -0.66943607636770897     
Spin= Alpha
Occup=     2.00000000
           1 -0.10881403469369519     
           2 -0.22669864533646147     
           3 -0.42857904170467681     
           4   1.4173018777100761E-006
           5 -0.63321713218081421     
           6  0.50841108812169789     
           7  0.11570606260270463     
           8  -2.0076083176400889E-006
           9  -2.3475572352037760E-002
          10  -9.3741125414291748E-002
          11 -0.21331918480906464     
          12   6.5550306453486394E-007
Sym=     6a
Ene=  -0.57003154175091353     
Spin= Alpha
Occup=     2.00000000
           1  0.10730756269033838     
           2  0.14155132324149847     
           3  -4.5103492964737597E-002
           4  -4.1784065200121456E-007
           5   1.6078391533761609E-002
           6  0.13565797401070631     
           7 -0.47226405959636336     
           8   2.9285638935017938E-007
           9 -0.76342752545864279     
          10 -0.35871355243112141     
          11  0.19384526145016520     
          12   9.5648675481655637E-007
Sym=     7a
Ene=  -0.52219408568722669     
Spin= Alpha
Occup=     1.99897674
           1  -1.7600398546337598E-008
           2   9.6230724905176792E-007
           3   4.9224825491255745E-007
           4  0.27845349119581864     
           5  -3.2738755249930800E-008
           6  -2.9552331529583992E-006
           7  -1.4258131536363934E-006
           8 -0.84532517125026629     
           9   4.4290521766772048E-008
          10   1.7131648085822545E-006
          11   8.2142134951436756E-007
          12  0.48780126419337744     
Sym=     8a
Ene=  -0.50911439132237823     
Spin= Alpha
Occup=     1.00102326
           1 -0.12246141548925714     
           2  0.11830659314567081     
           3 -0.28487186519417956     
           4   5.6144026138635230E-008
           5  -1.5159884208231824E-002
           6 -0.46432603412177820     
           7  0.67590780897351832     
           8   4.6007858578024856E-007
           9 -0.25478232059683248     
          10 -0.46748124676466779     
          11  -2.3157626822284182E-002
          12   1.6820561566965461E-006
Sym=     9a
Ene=  -0.46083942351792662     
Spin= Alpha
Occup=     1.00000000
           1  0.25613572644373794     
           2  -3.4361165156103067E-002
           3  0.28819320400595955     
           4  -4.2884988787275807E-007
           5  -5.0891287627586303E-002
           6 -0.21453247049766422     
           7 -0.26653277974325745     
           8   1.2316815503076360E-006
           9   5.8481489608375653E-002
          10 -0.33089906641973121     
          11 -0.85581723988432346     
          12   2.6757164935907391E-006
Sym=    10a
Ene=  -0.39222042305669458     
Spin= Alpha
Occup=     1.00000000
           1  -7.3464489847754498E-009
           2  -2.1739689739525197E-006
           3  -1.0793970010702868E-006
           4 -0.62186640833373141     
           5   1.3483452945121744E-008
           6   1.2691721937516336E-006
           7   6.3321348966929817E-007
           8  0.35809701873237515     
           9   1.7732393750574783E-008
          10   2.9620773396952837E-006
          11   1.5076848332050077E-006
          12  0.84028207389250398     
Sym=    11a
Ene=  -0.10838450478468159     
Spin= Alpha
Occup=     0.00000000
           1  0.65621737284389181     
           2 -0.37875828827564134     
           3 -0.64959664810950479     
           4   2.4465516958259196E-006
           5 -0.42700508486058619     
           6 -0.72839729237494821     
           7 -0.34602613110778097     
           8   3.1388069902395329E-006
           9 -0.17464121555870382     
          10  0.44735259222804941     
          11   2.0493165407621267E-002
          12  -1.5916307114683841E-006
Sym=    12a
Ene=   0.11229045291199614     
Spin= Alpha
Occup=     0.00000000
           1  0.34017950821410020     
           2  0.93213613811393936     
           3 -0.24960812466354798     
           4  -2.8164035095504500E-006
           5  0.23485480897907524     
           6  0.23087741162729364     
           7  0.28434120568088544     
           8  -1.3010264833466969E-006
           9 -0.57206831411477643     
          10  0.70972889705275388     
          11 -0.50019056333458367     
          12  -1.6009075080961392E-006
