$hessian                                                                        
        0.4388207631  -0.0484374543  -0.0000014472  -0.1819871802  -0.1056015883
        0.0000008196  -0.2568335829   0.1540390426   0.0000006277
       -0.0484374543   0.3351091724  -0.0000004158  -0.1620513624  -0.1526923887
        0.0000008322   0.2104888168  -0.1824167837  -0.0000004164
       -0.0000014472  -0.0000004158   0.0000000000   0.0000009181   0.0000006351
       -0.0000000000   0.0000005292  -0.0000002193  -0.0000000000
       -0.1819871802  -0.1620513624   0.0000009181   0.2954161878   0.1357811399
       -0.0000012682  -0.1134290076   0.0262702225   0.0000003501
       -0.1056015883  -0.1526923887   0.0000006351   0.1357811399   0.1073341554
       -0.0000006613  -0.0301795516   0.0453582333   0.0000000262
        0.0000008196   0.0000008322  -0.0000000000  -0.0000012682  -0.0000006613
        0.0000000000   0.0000004486  -0.0000001709  -0.0000000000
       -0.2568335829   0.2104888168   0.0000005292  -0.1134290076  -0.0301795516
        0.0000004486   0.3702625905  -0.1803092651  -0.0000009778
        0.1540390426  -0.1824167837  -0.0000002193   0.0262702225   0.0453582333
       -0.0000001709  -0.1803092651   0.1370585504   0.0000003902
        0.0000006277  -0.0000004164  -0.0000000000   0.0000003501   0.0000000262
       -0.0000000000  -0.0000009778   0.0000003902   0.0000000000
