      -----------------------------------------------------------      
     |                   =====================                   |     
     |                           x T B                           |     
     |                   =====================                   |     
     |                         S. Grimme                         |     
     |          Mulliken Center for Theoretical Chemistry        |     
     |                    University of Bonn                     |     
      -----------------------------------------------------------      

   * xtb version 6.2.2 (9d81278992624c895f80dd42a50cac0aa55982e2) compiled by '@Darwin' on 04/03/2020

   xtb is free software: you can redistribute it and/or modify it under
   the terms of the GNU Lesser General Public License as published by
   the Free Software Foundation, either version 3 of the License, or
   (at your option) any later version.
   
   xtb is distributed in the hope that it will be useful,
   but WITHOUT ANY WARRANTY; without even the implied warranty of
   MERCHANTABILITY or FITNESS FOR A PARTICULAR PURPOSE.  See the
   GNU Lesser General Public License for more details.
   
   Cite this work as:
   * S. Grimme, C. Bannwarth, P. Shushkov, J. Chem. Theory Comput., 2017,
     13, 1989-2009. DOI: 10.1021/acs.jctc.7b00118
   * C. Bannwarth, S. Ehlert and S. Grimme., J. Chem. Theory Comput., 2019,
     15, 1652-1671. DOI: 10.1021/acs.jctc.8b01176
   * P. Pracht, E. Caldeweyher, S. Ehlert, S. Grimme, ChemRxiv, 2019, preprint.
     DOI: 10.26434/chemrxiv.8326202.v1
   
   for DFT-D4:
   * E. Caldeweyher, C. Bannwarth and S. Grimme, J. Chem. Phys., 2017,
     147, 034112. DOI: 10.1063/1.4993215
   * E. Caldeweyher, S. Ehlert, A. Hansen, H. Neugebauer, S. Spicher,
     C. Bannwarth and S. Grimme, J. Chem. Phys., 2019, 150, 154122.
     DOI: 10.1063/1.5090222
   
   for sTDA-xTB:
   * S. Grimme and C. Bannwarth, J. Chem. Phys., 2016, 145, 054103.
     DOI: 10.1063/1.4959605
   
   in the mass-spec context:
   * V. Asgeirsson, C. Bauer and S. Grimme, Chem. Sci., 2017, 8, 4879.
     DOI: 10.1039/c7sc00601b
   
   for metadynamics refer to:
   * S. Grimme, J. Chem. Theory Comput., 2019, 155, 2847-2862
     DOI: 10.1021/acs.jctc.9b00143
   
   with help from (in alphabetical order)
   C. Bannwarth, F. Bohle, G. Brandenburg, E. Caldeweyher, M. Checinski,
   S. Dohm, S. Ehlert, S. Ehrlich, F. März, H. Neugebauer, J. Pisarek,
   P. Pracht, P. Shushkov, and S. Spicher.
   
 * started run on 2020/05/12 at 11:45:16.716     

           -------------------------------------------------
          |                Calculation Setup                |
           -------------------------------------------------

          program call               : xtb --input N1O2_1_S_3.input N1O2_1_S_3.xyz --ohess --molden --namespace N1O2_1_S_3 output.out
          calculation namespace      : N1O2_1_S_3
          coordinate file            : N1O2_1_S_3.xyz
          number of atoms            :                     3
          number of electrons        :                    17
          charge                     :                     0
          spin                       :                   1.5
          first test random number   :      0.84639260762193

   ID    Z sym.   atoms
    1    8 O      1, 2
    2    7 N      3

           -------------------------------------------------
          |                 G F N 2 - x T B                 |
           -------------------------------------------------

        Reference                      10.1021/acs.jctc.8b01176
      * Hamiltonian:
        H0-scaling (s, p, d)           1.850000    2.230000    2.230000
        zeta-weighting                 0.500000
      * Dispersion:
        s8                             2.700000
        a1                             0.520000
        a2                             5.000000
        s9                             5.000000
      * Repulsion:
        kExp                           1.500000    1.000000
        rExp                           1.000000
      * Coulomb:
        alpha                          2.000000
        third order                    shell-resolved
        anisotropic                    true
        a3                             3.000000
        a5                             4.000000
        cn-shift                       1.200000
        cn-exp                         4.000000
        max-rad                        5.000000


          ...................................................
          :                      SETUP                      :
          :.................................................:
          :  # basis functions                  12          :
          :  # atomic orbitals                  12          :
          :  # shells                            6          :
          :  # electrons                        17          :
          :  max. iterations                   250          :
          :  Hamiltonian                  GFN2-xTB          :
          :  restarted?                      false          :
          :  GBSA solvation                  false          :
          :  PC potential                    false          :
          :  electronic temp.          300.0000000     K    :
          :  accuracy                    1.0000000          :
          :  -> integral cutoff          0.2500000E+02      :
          :  -> integral neglect         0.1000000E-07      :
          :  -> SCF convergence          0.1000000E-05 Eh   :
          :  -> wf. convergence          0.1000000E-03 e    :
          :  Broyden damping             0.4000000          :
          ...................................................

 iter      E             dE          RMSdq      gap      omega  full diag
   1    -10.6333344 -0.106333E+02  0.590E+00    8.40       0.0  T
   2    -10.6341651 -0.830729E-03  0.341E+00    9.07       1.0  T
   3    -10.6399172 -0.575204E-02  0.315E+00    8.43       1.0  T
   4    -10.6543891 -0.144719E-01  0.558E-01    8.76       1.0  T
   5    -10.6550580 -0.668992E-03  0.229E-01    8.71       1.0  T
   6    -10.6550485  0.959357E-05  0.108E-01    8.71       1.0  T
   7    -10.6550677 -0.192621E-04  0.531E-02    8.72       1.1  T
   8    -10.6550691 -0.143011E-05  0.137E-02    8.73       4.2  T
   9    -10.6550693 -0.162009E-06  0.760E-03    8.72       7.6  T
  10    -10.6550693 -0.275276E-07  0.106E-03    8.72      54.7  T
  11    -10.6550693 -0.136906E-08  0.371E-04    8.72     155.5  T
  12    -10.6550693 -0.201297E-10  0.105E-04    8.72     551.4  T

   *** convergence criteria satisfied after 12 iterations ***

         #    Occupation            Energy/Eh            Energy/eV
      -------------------------------------------------------------
         1        2.0000           -0.8425789             -22.9277
       ...           ...                  ...                  ...
         4        2.0000           -0.6783721             -18.4594
         5        2.0000           -0.6666664             -18.1409
         6        2.0000           -0.5746005             -15.6357
         7        1.8707           -0.5166296             -14.0582
         8        1.1293           -0.5130064             -13.9596
         9        1.0000           -0.4670518             -12.7091
        10        1.0000           -0.4140380             -11.2665 (HOMO)
        11                         -0.0934246              -2.5422 (LUMO)
        12                         -0.0397619              -1.0820
      -------------------------------------------------------------
                  HL-Gap            0.3206134 Eh            8.7243 eV
             Fermi-level           -0.3842746 Eh          -10.4566 eV

 SCC (total)                   0 d,  0 h,  0 min,  0.002 sec
 SCC setup                      ...        0 min,  0.000 sec (  3.748%)
 Dispersion                     ...        0 min,  0.000 sec (  0.448%)
 integral evaluation            ...        0 min,  0.001 sec ( 29.340%)
 zeroth order Hamiltonian       ...        0 min,  0.000 sec (  0.480%)
 iterations                     ...        0 min,  0.001 sec ( 39.238%)
 molecular gradient             ...        0 min,  0.001 sec ( 23.884%)
 printout                       ...        0 min,  0.000 sec (  2.370%)

         :::::::::::::::::::::::::::::::::::::::::::::::::::::
         ::                     SUMMARY                     ::
         :::::::::::::::::::::::::::::::::::::::::::::::::::::
         :: total energy             -10.647485986904 Eh    ::
         :: gradient norm              0.073678704981 Eh/a0 ::
         :: HOMO-LUMO gap              8.724335715166 eV    ::
         ::.................................................::
         :: SCC energy               -10.655069333748 Eh    ::
         :: -> isotropic ES            0.002400515111 Eh    ::
         :: -> anisotropic ES          0.006025998047 Eh    ::
         :: -> anisotropic XC         -0.003845316797 Eh    ::
         :: -> dispersion             -0.000629940347 Eh    ::
         :: repulsion energy           0.007583346141 Eh    ::
         :: add. restraining           0.000000000000 Eh    ::
         :::::::::::::::::::::::::::::::::::::::::::::::::::::

      ----------------------------------------------------------- 
     |                   =====================                   |
     |                        A N C O P T                        |
     |                   =====================                   |
     |               Approximate Normal Coordinate               |
     |                Rational Function Optimizer                |
      ----------------------------------------------------------- 

          ...................................................
          :                      SETUP                      :
          :.................................................:
          :   optimization level            normal          :
          :   max. optcycles                   200          :
          :   ANC micro-cycles                  20          :
          :   degrees of freedom                 3          :
          :.................................................:
          :   RF solver                   davidson          :
          :   write xtbopt.log                true          :
          :   linear?                        false          :
          :   energy convergence         0.5000000E-05 Eh   :
          :   grad. convergence          0.1000000E-02 Eh/α :
          :   maximium RF displ.         1.0000000          :
          :   Hlow (freq-cutoff)         0.1000000E-01      :
          :   Hmax (freq-cutoff)         5.0000000          :
          :   S6 in model hess.         20.0000000          :
          ...................................................

generating ANC from model Hessian ...
Using Lindh-Hessian (1995)
 Shifting diagonal of input Hessian by    0.0000000000000000     
 Lowest  eigenvalues of input Hessian
   -0.000000   -0.000000   -0.000000   -0.000000    0.000000    0.000000
    0.264101    1.271658    1.545687
 Highest eigenvalues
   -0.000000    0.000000    0.000000    0.264101    1.271658    1.545687


........................................................................
.............................. CYCLE    1 ..............................
........................................................................
   1    -10.6550693 -0.106551E+02  0.318E-05    8.72       0.0  T
   2    -10.6550693 -0.149214E-12  0.207E-05    8.72    2790.8  T
   3    -10.6550693  0.429878E-12  0.165E-05    8.72    3496.0  T
     SCC iter.                  ...        0 min,  0.000 sec
     gradient                   ...        0 min,  0.001 sec
 * total energy  :   -10.6474860 Eh     change        0.1545075E-10 Eh
   gradient norm :     0.0736790 Eh/α   predicted     0.0000000E+00 (-100.00%)
   displ. norm   :     0.1508972 α      lambda       -0.8558843E-02
   maximum displ.:     0.1431913 α      in ANC's #1, #2, #3, ...

........................................................................
.............................. CYCLE    2 ..............................
........................................................................
   1    -10.6633624 -0.106634E+02  0.101E+00    8.25       0.0  T
   2    -10.6633896 -0.272223E-04  0.612E-01    8.24       1.0  T
   3    -10.6634071 -0.174737E-04  0.583E-02    8.22       1.0  T
   4    -10.6634082 -0.106084E-05  0.273E-02    8.22       2.1  T
   5    -10.6634086 -0.393358E-06  0.101E-02    8.22       5.7  T
   6    -10.6634084  0.132341E-06  0.769E-03    8.22       7.5  T
   7    -10.6634086 -0.203064E-06  0.110E-03    8.22      52.4  T
   8    -10.6634086 -0.369640E-09  0.179E-04    8.22     323.3  T
   9    -10.6634086 -0.331095E-10  0.906E-05    8.22     637.0  T
     SCC iter.                  ...        0 min,  0.000 sec
     gradient                   ...        0 min,  0.001 sec
 * total energy  :   -10.6545033 Eh     change       -0.7017351E-02 Eh
   gradient norm :     0.0531982 Eh/α   predicted    -0.4376862E-02 ( -37.63%)
   displ. norm   :     0.1865175 α      lambda       -0.7516483E-02
   maximum displ.:     0.1607203 α      in ANC's #1, #2, #3, ...

........................................................................
.............................. CYCLE    3 ..............................
........................................................................
   1    -10.6701589 -0.106702E+02  0.118E+00    7.49       0.0  T
   2    -10.6702011 -0.421692E-04  0.700E-01    7.48       1.0  T
   3    -10.6699779  0.223191E-03  0.274E-01    7.53       1.0  T
   4    -10.6702355 -0.257634E-03  0.654E-02    7.49       1.0  T
   5    -10.6702385 -0.297346E-05  0.155E-02    7.50       3.7  T
   6    -10.6702386 -0.120560E-06  0.771E-03    7.50       7.5  T
   7    -10.6702387 -0.360301E-07  0.161E-03    7.50      35.8  T
   8    -10.6702387 -0.188598E-08  0.402E-04    7.50     143.8  T
   9    -10.6702387 -0.148658E-09  0.170E-04    7.50     339.6  T
     SCC iter.                  ...        0 min,  0.000 sec
     gradient                   ...        0 min,  0.001 sec
 * total energy  :   -10.6574904 Eh     change       -0.2987066E-02 Eh
   gradient norm :     0.0113341 Eh/α   predicted    -0.3888987E-02 (  30.19%)
   displ. norm   :     0.0320918 α      lambda       -0.2694729E-03
   maximum displ.:     0.0278451 α      in ANC's #1, #2, #3, ...

........................................................................
.............................. CYCLE    4 ..............................
........................................................................
   1    -10.6696515 -0.106697E+02  0.203E-01    7.69       0.0  T
   2    -10.6696530 -0.154338E-05  0.119E-01    7.68       1.0  T
   3    -10.6696528  0.246177E-06  0.208E-02    7.68       2.8  T
   4    -10.6696532 -0.353249E-06  0.154E-02    7.68       3.8  T
   5    -10.6696537 -0.597352E-06  0.389E-03    7.68      14.9  T
   6    -10.6696538 -0.754012E-08  0.125E-03    7.68      46.3  T
   7    -10.6696538 -0.964274E-09  0.236E-04    7.68     244.7  T
   8    -10.6696538 -0.292317E-10  0.442E-05    7.68    1307.4  T
     SCC iter.                  ...        0 min,  0.000 sec
     gradient                   ...        0 min,  0.001 sec
 * total energy  :   -10.6576266 Eh     change       -0.1362023E-03 Eh
   gradient norm :     0.0014477 Eh/α   predicted    -0.1348737E-03 (  -0.98%)
   displ. norm   :     0.0038169 α      lambda       -0.2579646E-05
   maximum displ.:     0.0036104 α      in ANC's #1, #2, #3, ...

........................................................................
.............................. CYCLE    5 ..............................
........................................................................
   1    -10.6697448 -0.106697E+02  0.212E-02    7.72       0.0  T
   2    -10.6697450 -0.270652E-06  0.115E-02    7.72       5.0  T
   3    -10.6697449  0.106660E-06  0.951E-03    7.72       6.1  T
   4    -10.6697452 -0.222943E-06  0.430E-03    7.72      13.4  T
   5    -10.6697452 -0.212801E-07  0.864E-04    7.72      66.9  T
   6    -10.6697452 -0.658689E-09  0.209E-04    7.72     276.2  T
     SCC iter.                  ...        0 min,  0.001 sec
     gradient                   ...        0 min,  0.001 sec
 * total energy  :   -10.6576284 Eh     change       -0.1763976E-05 Eh
   gradient norm :     0.0001490 Eh/α   predicted    -0.1290523E-05 ( -26.84%)
   displ. norm   :     0.0006837 α      lambda       -0.5225537E-07
   maximum displ.:     0.0006739 α      in ANC's #1, #2, #3, ...

   *** GEOMETRY OPTIMIZATION CONVERGED AFTER 5 ITERATIONS ***

------------------------------------------------------------------------
 total energy gain   :        -0.0101424 Eh       -6.3644 kcal/mol
 total RMSD          :         0.1736102 a0        0.0919 Å
 total power (kW/mol):        -5.3257650 (step)-3090.5500 (real)
------------------------------------------------------------------------

 ANCopt (total)                0 d,  0 h,  0 min,  0.009 sec
 optimizer setup                ...        0 min,  0.000 sec (  0.824%)
 model hessian                  ...        0 min,  0.000 sec (  0.492%)
 ANC generation                 ...        0 min,  0.000 sec (  0.431%)
 coordinate transformation      ...        0 min,  0.000 sec (  0.124%)
 single point calculation       ...        0 min,  0.008 sec ( 93.196%)
 optimization log               ...        0 min,  0.000 sec (  1.170%)
 hessian update                 ...        0 min,  0.000 sec (  0.155%)
 rational function              ...        0 min,  0.000 sec (  1.211%)

================
 final structure:
================
3
 xtb: 6.2.2 (9d81278992624c895f80dd42a50cac0aa55982e2)
O         0.01076774091453    0.44152408090362    0.00000000000000
O        -1.12446010012155   -0.23212049850073    0.00000000000000
N         1.11369235920703   -0.20940358240290    0.00000000000000

 Bond Distances (Angstroems)
 ---------------------------
O1-O2=1.3201         O1-N3=1.2807         O2-O1=1.3201         N3-O1=1.2807         
 O  N  Rav=1.2807 sigma=0.0000  Rmin=1.2807  Rmax=1.2807     1
 O  O  Rav=1.3201 sigma=0.0000  Rmin=1.3201  Rmax=1.3201     1

 selected bond angles (degree)
 --------------------
N3-O1-O2=118.77                

 selected dihedral angles (degree)
 ---------------------------------

           -------------------------------------------------
          |                Final Singlepoint                |
           -------------------------------------------------

          ...................................................
          :                      SETUP                      :
          :.................................................:
          :  # basis functions                  12          :
          :  # atomic orbitals                  12          :
          :  # shells                            6          :
          :  # electrons                        17          :
          :  max. iterations                   250          :
          :  Hamiltonian                  GFN2-xTB          :
          :  restarted?                      false          :
          :  GBSA solvation                  false          :
          :  PC potential                    false          :
          :  electronic temp.          300.0000000     K    :
          :  accuracy                    1.0000000          :
          :  -> integral cutoff          0.2500000E+02      :
          :  -> integral neglect         0.1000000E-07      :
          :  -> SCF convergence          0.1000000E-05 Eh   :
          :  -> wf. convergence          0.1000000E-03 e    :
          :  Broyden damping             0.4000000          :
          ...................................................

 iter      E             dE          RMSdq      gap      omega  full diag
   1    -10.6697452 -0.106697E+02  0.123E-04    7.72       0.0  T
   2    -10.6697452  0.221707E-10  0.132E-04    7.72     437.4  T
   3    -10.6697452 -0.567706E-10  0.502E-05    7.72    1150.7  T

   *** convergence criteria satisfied after 3 iterations ***

         #    Occupation            Energy/Eh            Energy/eV
      -------------------------------------------------------------
         1        2.0000           -0.8420943             -22.9146
       ...           ...                  ...                  ...
         4        2.0000           -0.6825566             -18.5733
         5        2.0000           -0.6694359             -18.2163
         6        2.0000           -0.5700314             -15.5113
         7        1.9990           -0.5221941             -14.2096
         8        1.0010           -0.5091143             -13.8537
         9        1.0000           -0.4608393             -12.5401
        10        1.0000           -0.3922203             -10.6729 (HOMO)
        11                         -0.1083845              -2.9493 (LUMO)
        12                          0.1122906               3.0556
      -------------------------------------------------------------
                  HL-Gap            0.2838358 Eh            7.7236 eV
             Fermi-level           -0.3829783 Eh          -10.4214 eV

 SCC (total)                   0 d,  0 h,  0 min,  0.002 sec
 SCC setup                      ...        0 min,  0.000 sec (  2.896%)
 Dispersion                     ...        0 min,  0.000 sec (  0.284%)
 integral evaluation            ...        0 min,  0.001 sec ( 36.387%)
 zeroth order Hamiltonian       ...        0 min,  0.000 sec (  1.015%)
 iterations                     ...        0 min,  0.000 sec ( 25.101%)
 molecular gradient             ...        0 min,  0.001 sec ( 28.823%)
 printout                       ...        0 min,  0.000 sec (  4.885%)

         :::::::::::::::::::::::::::::::::::::::::::::::::::::
         ::                     SUMMARY                     ::
         :::::::::::::::::::::::::::::::::::::::::::::::::::::
         :: total energy             -10.657628370762 Eh    ::
         :: gradient norm              0.000148868948 Eh/a0 ::
         :: HOMO-LUMO gap              7.723565169181 eV    ::
         ::.................................................::
         :: SCC energy               -10.669745185819 Eh    ::
         :: -> isotropic ES            0.002386635024 Eh    ::
         :: -> anisotropic ES          0.005779457127 Eh    ::
         :: -> anisotropic XC         -0.003478645591 Eh    ::
         :: -> dispersion             -0.000629743509 Eh    ::
         :: repulsion energy           0.012116815165 Eh    ::
         :: add. restraining           0.000000000000 Eh    ::
         :::::::::::::::::::::::::::::::::::::::::::::::::::::

           ------------------------------------------------- 
          |                Numerical Hessian                |
           ------------------------------------------------- 
step length          :   0.00500
SCC accuracy         :   0.30000
Hessian scale factor :   1.00000
frozen atoms in %    :   0.00000    0
RMS gradient         :   0.00015
estimated CPU  time      0.00 min
estimated wall time      0.00 min

writing file <hessian>.

 projected vibrational frequencies (cm-1)
eigval :       -0.00    -0.00    -0.00    -0.00     0.00     0.00
eigval :      510.95  1043.48  1245.22
           -------------------------------------------------
          |                Property Printout                |
           -------------------------------------------------

    * Orbital Energies and Occupations

         #    Occupation            Energy/Eh            Energy/eV
      -------------------------------------------------------------
         1        2.0000           -0.8420941             -22.9145
         2        2.0000           -0.7968953             -21.6846
         3        2.0000           -0.7187262             -19.5575
         4        2.0000           -0.6825565             -18.5733
         5        2.0000           -0.6694361             -18.2163
         6        2.0000           -0.5700315             -15.5113
         7        1.9990           -0.5221941             -14.2096
         8        1.0010           -0.5091144             -13.8537
         9        1.0000           -0.4608394             -12.5401
        10        1.0000           -0.3922204             -10.6729 (HOMO)
        11                         -0.1083845              -2.9493 (LUMO)
        12                          0.1122905               3.0556
      -------------------------------------------------------------
                  HL-Gap            0.2838359 Eh            7.7236 eV
             Fermi-level           -0.3829784 Eh          -10.4214 eV
Molecule has the following symmetry elements: (sigma) 
It seems to be the Cs point group

     #   Z        covCN         q      C6AA      α(0)
     1   8 O      1.891     0.146    12.713     4.815
     2   8 O      0.973    -0.130    16.919     5.517
     3   7 N      0.925    -0.016    21.501     6.699

 Mol. C6AA /au·bohr⁶  :        151.488425
 Mol. C8AA /au·bohr⁸  :       3162.829957
 Mol. α(0) /au        :         17.031639


Wiberg/Mayer (AO) data.
largest (>0.10) Wiberg bond orders for each atom
          total WBO             WBO to atom ...
     1  O   2.235        N    3 1.178    O    2 1.057
     2  O   1.252        O    1 1.057    N    3 0.195
     3  N   1.373        O    1 1.178    O    2 0.195

MOs/occ written to file <molden.input>


molecular dipole:
                 x           y           z       tot (Debye)
 q only:        0.244       0.185      -0.000
   full:        0.206       0.267      -0.000       0.857
molecular quadrupole (traceless):
                xx          xy          yy          xz          yz          zz
 q only:       -0.695      -0.157       0.403       0.000       0.000       0.292
  q+dip:       -2.431      -0.297       0.857       0.000       0.000       1.573
   full:       -2.075      -0.118       1.155       0.000      -0.000       0.920

           -------------------------------------------------
          |                Geometry Summary                 |
           -------------------------------------------------

      molecular mass/u    :       46.0055130
   center of mass at/Å    :       -0.0482389       0.0090704       0.0000002
  moments of inertia/u·Å² :        0.4560727E+01   0.3752799E+02   0.4208871E+02
rotational constants/cm⁻¹ :        0.3696260E+01   0.4492016E+00   0.4005262E+00

 * 2 selected distances

     #   Z        #   Z                                     value/Å
     1   8 O      2   8 O                                 1.3200528 (max)
     1   8 O      3   7 N                                 1.2806832 (min)

 * 2 distinct bonds (by element types)

   Z      Z             #   av. dist./Å        max./Å        min./Å
   7 N    8 O           1     1.2806832     1.2806832     1.2806832
   8 O    8 O           1     1.3200528     1.3200528     1.3200528

           -------------------------------------------------
          |               Frequency Printout                |
           -------------------------------------------------
 projected vibrational frequencies (cm-1)
eigval :       -0.00    -0.00    -0.00    -0.00     0.00     0.00
eigval :      510.95  1043.48  1245.22
 reduced masses (amu)
   1: 14.01   2: 15.55   3: 15.86   4: 16.00   5: 15.76   6: 14.69   7: 15.26   8: 16.00
   9: 14.89
 IR intensities (amu)
   1:  0.06   2:  0.05   3:  0.09   4:  0.21   5:  0.14   6:  0.08   7:  0.28   8:  0.65
   9:  0.39
 Raman intensities (amu)
   1:  0.00   2:  0.00   3:  0.00   4:  0.00   5:  0.00   6:  0.00   7:  0.00   8:  0.00
   9:  0.00
 output can be read by thermo (or use thermo option).
 writing <g98.out> molden fake output.
 recommended (thermochemical) frequency scaling factor: 1.0
           -------------------------------------------------
          |             Thermodynamic Functions             |
           -------------------------------------------------

cs  symmetry found (for desy threshold:  0.10E+00) used in thermo

          ...................................................
          :                      SETUP                      :
          :.................................................:
          :  # frequencies                           3      :
          :  # imaginary freq.                       0      :
          :  linear?                             false      :
          :  only rotor calc.                    false      :
          :  symmetry                               cs      :
          :  rotational number                       1      :
          :  scaling factor                  1.0000000      :
          :  rotor cutoff                   50.0000000 cm⁻¹ :
          :  imag. cutoff                  -20.0000000 cm⁻¹ :
          :.................................................:

    mode    ω/cm⁻¹     T·S(HO)/kcal·mol⁻¹    T·S(FR)/kcal·mol⁻¹   T·S(vib)
   ------------------------------------------------------------------------
   ------------------------------------------------------------------------

   temp. (K)  partition function   enthalpy   heat capacity  entropy
                                   cal/mol     cal/K/mol   cal/K/mol   J/K/mol
 298.15  VIB   1.10                  163.923      1.735      0.744
         ROT  0.648E+04              888.752      2.981     20.423
         INT  0.715E+04             1052.676      4.716     21.167
         TR   0.302E+27             1481.254      4.968     37.387
         TOT                        2533.9295     9.6839    58.5540   244.9900

   temp. (K)  partition function   enthalpy   heat capacity  entropy
                                   cal/mol     cal/K/mol   cal/K/mol   J/K/mol
 120.00  VIB   1.00                    3.211      0.165      0.031
         ROT  0.166E+04              357.707      2.981     17.710
         INT  0.166E+04              360.918      3.146     17.741
         TR   0.771E+26              596.178      4.968     32.867
         TOT                         957.0958     8.1140    50.6088   211.7470

   temp. (K)  partition function   enthalpy   heat capacity  entropy
                                   cal/mol     cal/K/mol   cal/K/mol   J/K/mol
 100.00  VIB   1.00                    0.939      0.069      0.011
         ROT  0.126E+04              298.089      2.981     17.167
         INT  0.126E+04              299.028      3.050     17.177
         TR   0.586E+26              496.815      4.968     31.962
         TOT                         795.8430     8.0182    49.1395   205.5995

   temp. (K)  partition function   enthalpy   heat capacity  entropy
                                   cal/mol     cal/K/mol   cal/K/mol   J/K/mol
  80.00  VIB   1.00                    0.149      0.017      0.002
         ROT   901.                  238.471      2.981     16.502
         INT   901.                  238.620      2.998     16.504
         TR   0.420E+26              397.452      4.968     30.854
         TOT                         636.0724     7.9662    47.3576   198.1442

   temp. (K)  partition function   enthalpy   heat capacity  entropy
                                   cal/mol     cal/K/mol   cal/K/mol   J/K/mol
  60.00  VIB   1.00                    0.007      0.001      0.000
         ROT   585.                  178.853      2.981     15.644
         INT   585.                  178.860      2.982     15.644
         TR   0.273E+26              298.089      4.968     29.425
         TOT                         476.9494     7.9505    45.0695   188.5709

   temp. (K)  partition function   enthalpy   heat capacity  entropy
                                   cal/mol     cal/K/mol   cal/K/mol   J/K/mol
  40.00  VIB   1.00                    0.000      0.000     -0.000
         ROT   319.                  119.236      2.981     14.435
         INT   319.                  119.236      2.981     14.435
         TR   0.148E+26              198.726      4.968     27.412
         TOT                         317.9616     7.9490    41.8473   175.0891

   temp. (K)  partition function   enthalpy   heat capacity  entropy
                                   cal/mol     cal/K/mol   cal/K/mol   J/K/mol
  20.00  VIB   1.00                    0.000      0.000     -0.000
         ROT   113.                   59.618      2.981     12.369
         INT   113.                   59.618      2.981     12.369
         TR   0.525E+25               99.363      4.968     23.970
         TOT                         158.9808     7.9490    36.3390   152.0426

   temp. (K)  partition function   enthalpy   heat capacity  entropy
                                   cal/mol     cal/K/mol   cal/K/mol   J/K/mol
  10.00  VIB   1.00                    0.000      0.000     -0.000
         ROT   39.8                   29.809      2.981     10.303
         INT   39.8                   29.809      2.981     10.303
         TR   0.185E+25               49.681      4.968     20.528
         TOT                          79.4904     7.9490    30.8308   128.9961

       T/K    H(0)-H(T)+PV         H(T)/Eh          T*S/Eh         G(T)/Eh
   ------------------------------------------------------------------------
    298.15    0.403807E-02    0.104162E-01    0.278209E-01   -0.174047E-01
    120.00    0.152523E-02    0.790331E-02    0.967802E-02   -0.177471E-02
    100.00    0.126826E-02    0.764634E-02    0.783087E-02   -0.184532E-03
     80.00    0.101365E-02    0.739173E-02    0.603753E-02    0.135420E-02
     60.00    0.760067E-03    0.713815E-02    0.430937E-02    0.282878E-02
     40.00    0.506704E-03    0.688479E-02    0.266752E-02    0.421727E-02
     20.00    0.253352E-03    0.663143E-02    0.115820E-02    0.547324E-02
     10.00    0.126676E-03    0.650476E-02    0.491320E-03    0.601344E-02 (used)
   ------------------------------------------------------------------------

         :::::::::::::::::::::::::::::::::::::::::::::::::::::
         ::                  THERMODYNAMIC                  ::
         :::::::::::::::::::::::::::::::::::::::::::::::::::::
         :: total free energy         -10.651614932673 Eh   ::
         ::.................................................::
         :: total energy              -10.657628370761 Eh   ::
         :: zero point energy           0.006378082268 Eh   ::
         :: G(RRHO) w/o ZPVE           -0.000364644180 Eh   ::
         :: G(RRHO) contrib.            0.006013438088 Eh   ::
         :::::::::::::::::::::::::::::::::::::::::::::::::::::

optimized geometry written to: xtbopt.xyz


           -------------------------------------------------
          | TOTAL ENERGY              -10.657628370761 Eh   |
          | TOTAL ENTHALPY            -10.651123612477 Eh   |
          | TOTAL FREE ENERGY         -10.651614932673 Eh   |
          | GRADIENT NORM               0.000148967514 Eh/α |
          | HOMO-LUMO GAP               7.723568463120 eV   |
           -------------------------------------------------

------------------------------------------------------------------------
 * finished run on 2020/05/12 at 11:45:16.777     
------------------------------------------------------------------------
 total:
 * wall-time:     0 d,  0 h,  0 min,  0.060 sec
 *  cpu-time:     0 d,  0 h,  0 min,  0.059 sec
 * ratio c/w:     0.999 speedup
 SCF:
 * wall-time:     0 d,  0 h,  0 min,  0.002 sec
 *  cpu-time:     0 d,  0 h,  0 min,  0.002 sec
 * ratio c/w:     1.000 speedup
 ANC optimizer:
 * wall-time:     0 d,  0 h,  0 min,  0.011 sec
 *  cpu-time:     0 d,  0 h,  0 min,  0.011 sec
 * ratio c/w:     0.997 speedup
 numerical hessian:
 * wall-time:     0 d,  0 h,  0 min,  0.027 sec
 *  cpu-time:     0 d,  0 h,  0 min,  0.027 sec
 * ratio c/w:     0.999 speedup

