      -----------------------------------------------------------      
     |                   =====================                   |     
     |                           x T B                           |     
     |                   =====================                   |     
     |                         S. Grimme                         |     
     |          Mulliken Center for Theoretical Chemistry        |     
     |                    University of Bonn                     |     
      -----------------------------------------------------------      

   * xtb version 6.2.2 (9d81278992624c895f80dd42a50cac0aa55982e2) compiled by '@Darwin' on 04/03/2020

   xtb is free software: you can redistribute it and/or modify it under
   the terms of the GNU Lesser General Public License as published by
   the Free Software Foundation, either version 3 of the License, or
   (at your option) any later version.
   
   xtb is distributed in the hope that it will be useful,
   but WITHOUT ANY WARRANTY; without even the implied warranty of
   MERCHANTABILITY or FITNESS FOR A PARTICULAR PURPOSE.  See the
   GNU Lesser General Public License for more details.
   
   Cite this work as:
   * S. Grimme, C. Bannwarth, P. Shushkov, J. Chem. Theory Comput., 2017,
     13, 1989-2009. DOI: 10.1021/acs.jctc.7b00118
   * C. Bannwarth, S. Ehlert and S. Grimme., J. Chem. Theory Comput., 2019,
     15, 1652-1671. DOI: 10.1021/acs.jctc.8b01176
   * P. Pracht, E. Caldeweyher, S. Ehlert, S. Grimme, ChemRxiv, 2019, preprint.
     DOI: 10.26434/chemrxiv.8326202.v1
   
   for DFT-D4:
   * E. Caldeweyher, C. Bannwarth and S. Grimme, J. Chem. Phys., 2017,
     147, 034112. DOI: 10.1063/1.4993215
   * E. Caldeweyher, S. Ehlert, A. Hansen, H. Neugebauer, S. Spicher,
     C. Bannwarth and S. Grimme, J. Chem. Phys., 2019, 150, 154122.
     DOI: 10.1063/1.5090222
   
   for sTDA-xTB:
   * S. Grimme and C. Bannwarth, J. Chem. Phys., 2016, 145, 054103.
     DOI: 10.1063/1.4959605
   
   in the mass-spec context:
   * V. Asgeirsson, C. Bauer and S. Grimme, Chem. Sci., 2017, 8, 4879.
     DOI: 10.1039/c7sc00601b
   
   for metadynamics refer to:
   * S. Grimme, J. Chem. Theory Comput., 2019, 155, 2847-2862
     DOI: 10.1021/acs.jctc.9b00143
   
   with help from (in alphabetical order)
   C. Bannwarth, F. Bohle, G. Brandenburg, E. Caldeweyher, M. Checinski,
   S. Dohm, S. Ehlert, S. Ehrlich, F. März, H. Neugebauer, J. Pisarek,
   P. Pracht, P. Shushkov, and S. Spicher.
   
 * started run on 2020/05/12 at 11:45:19.139     

           -------------------------------------------------
          |                Calculation Setup                |
           -------------------------------------------------

          program call               : xtb --input C3O1_5_S_0.input C3O1_5_S_0.xyz --ohess --molden --namespace C3O1_5_S_0 output.out
          calculation namespace      : C3O1_5_S_0
          coordinate file            : C3O1_5_S_0.xyz
          number of atoms            :                     4
          number of electrons        :                    18
          charge                     :                     0
          spin                       :                   0.0
          first test random number   :      0.86557387052046

   ID    Z sym.   atoms
    1    6 C      1-3
    2    8 O      4

           -------------------------------------------------
          |                 G F N 2 - x T B                 |
           -------------------------------------------------

        Reference                      10.1021/acs.jctc.8b01176
      * Hamiltonian:
        H0-scaling (s, p, d)           1.850000    2.230000    2.230000
        zeta-weighting                 0.500000
      * Dispersion:
        s8                             2.700000
        a1                             0.520000
        a2                             5.000000
        s9                             5.000000
      * Repulsion:
        kExp                           1.500000    1.000000
        rExp                           1.000000
      * Coulomb:
        alpha                          2.000000
        third order                    shell-resolved
        anisotropic                    true
        a3                             3.000000
        a5                             4.000000
        cn-shift                       1.200000
        cn-exp                         4.000000
        max-rad                        5.000000


          ...................................................
          :                      SETUP                      :
          :.................................................:
          :  # basis functions                  16          :
          :  # atomic orbitals                  16          :
          :  # shells                            8          :
          :  # electrons                        18          :
          :  max. iterations                   250          :
          :  Hamiltonian                  GFN2-xTB          :
          :  restarted?                      false          :
          :  GBSA solvation                  false          :
          :  PC potential                    false          :
          :  electronic temp.          300.0000000     K    :
          :  accuracy                    1.0000000          :
          :  -> integral cutoff          0.2500000E+02      :
          :  -> integral neglect         0.1000000E-07      :
          :  -> SCF convergence          0.1000000E-05 Eh   :
          :  -> wf. convergence          0.1000000E-03 e    :
          :  Broyden damping             0.4000000          :
          ...................................................

 iter      E             dE          RMSdq      gap      omega  full diag
   1     -9.9038930 -0.990389E+01  0.107E+01    0.68       0.0  T
   2     -8.4235860  0.148031E+01  0.175E+01    0.20       1.0  T
   3     -9.9399971 -0.151641E+01  0.767E+00    0.58       1.0  T
   4     -9.8455661  0.944310E-01  0.917E+00    0.04       1.0  T
   5     -9.8858856 -0.403195E-01  0.842E+00    0.03       1.0  T
   6     -9.9533810 -0.674954E-01  0.729E+00    0.03       1.0  T
   7    -10.0845828 -0.131202E+00  0.348E+00    0.01       1.0  T
   8    -10.0605021  0.240807E-01  0.396E+00    0.16       1.0  T
   9    -10.0855851 -0.250831E-01  0.285E+00    0.11       1.0  T
  10    -10.1119039 -0.263188E-01  0.171E+00    0.03       1.0  T
  11    -10.1077983  0.410562E-02  0.178E+00    0.09       1.0  T
  12    -10.1149343 -0.713597E-02  0.111E+00    0.08       1.0  T
  13    -10.1184188 -0.348452E-02  0.438E-01    0.05       1.0  T
  14    -10.1188402 -0.421398E-03  0.171E-01    0.06       1.0  T
  15    -10.1188616 -0.214572E-04  0.129E-01    0.05       1.0  T
  16    -10.1189114 -0.497890E-04  0.591E-02    0.05       1.0  T
  17    -10.1189179 -0.650395E-05  0.382E-02    0.05       1.3  T
  18    -10.1189231 -0.513993E-05  0.203E-03    0.05      24.7  T
  19    -10.1189231  0.221695E-08  0.194E-03    0.05      25.8  T
  20    -10.1189231  0.102510E-07  0.268E-03    0.05      18.7  T
  21    -10.1189231 -0.176867E-07  0.941E-04    0.05      53.1  T
  22    -10.1189231 -0.152417E-08  0.988E-05    0.05     506.3  T

   *** convergence criteria satisfied after 22 iterations ***

         #    Occupation            Energy/Eh            Energy/eV
      -------------------------------------------------------------
         1        2.0000           -0.7881407             -21.4464
       ...           ...                  ...                  ...
         3        2.0000           -0.6893911             -18.7593
         4        2.0000           -0.6089671             -16.5708
         5        2.0000           -0.5848554             -15.9147
         6        2.0000           -0.5800927             -15.7851
         7        2.0000           -0.5140776             -13.9888
         8        2.0000           -0.4398375             -11.9686
         9        1.3120           -0.4202652             -11.4360 (HOMO)
        10        0.3731           -0.4182529             -11.3812 (LUMO)
        11        0.3149           -0.4180585             -11.3760
        12                         -0.2678873              -7.2896
        13                         -0.0461071              -1.2546
        14                         -0.0118972              -0.3237
       ...                                ...                  ...
        16                          0.2613424               7.1115
      -------------------------------------------------------------
                  HL-Gap            0.0020123 Eh            0.0548 eV
             Fermi-level           -0.4196520 Eh          -11.4193 eV

 SCC (total)                   0 d,  0 h,  0 min,  0.005 sec
 SCC setup                      ...        0 min,  0.000 sec (  4.067%)
 Dispersion                     ...        0 min,  0.000 sec (  0.376%)
 integral evaluation            ...        0 min,  0.001 sec ( 23.632%)
 zeroth order Hamiltonian       ...        0 min,  0.000 sec (  0.459%)
 iterations                     ...        0 min,  0.002 sec ( 44.063%)
 molecular gradient             ...        0 min,  0.001 sec ( 24.765%)
 printout                       ...        0 min,  0.000 sec (  2.365%)

         :::::::::::::::::::::::::::::::::::::::::::::::::::::
         ::                     SUMMARY                     ::
         :::::::::::::::::::::::::::::::::::::::::::::::::::::
         :: total energy             -10.070556686935 Eh    ::
         :: gradient norm              0.183441846218 Eh/a0 ::
         :: HOMO-LUMO gap              0.054756620972 eV    ::
         ::.................................................::
         :: SCC energy               -10.118923084193 Eh    ::
         :: -> isotropic ES            0.004413200763 Eh    ::
         :: -> anisotropic ES          0.001016120416 Eh    ::
         :: -> anisotropic XC         -0.002034867128 Eh    ::
         :: -> dispersion             -0.001613249541 Eh    ::
         :: repulsion energy           0.048366389985 Eh    ::
         :: add. restraining           0.000000000000 Eh    ::
         :::::::::::::::::::::::::::::::::::::::::::::::::::::

      ----------------------------------------------------------- 
     |                   =====================                   |
     |                        A N C O P T                        |
     |                   =====================                   |
     |               Approximate Normal Coordinate               |
     |                Rational Function Optimizer                |
      ----------------------------------------------------------- 

          ...................................................
          :                      SETUP                      :
          :.................................................:
          :   optimization level            normal          :
          :   max. optcycles                   200          :
          :   ANC micro-cycles                  20          :
          :   degrees of freedom                 6          :
          :.................................................:
          :   RF solver                   davidson          :
          :   write xtbopt.log                true          :
          :   linear?                        false          :
          :   energy convergence         0.5000000E-05 Eh   :
          :   grad. convergence          0.1000000E-02 Eh/α :
          :   maximium RF displ.         1.0000000          :
          :   Hlow (freq-cutoff)         0.1000000E-01      :
          :   Hmax (freq-cutoff)         5.0000000          :
          :   S6 in model hess.         20.0000000          :
          ...................................................

generating ANC from model Hessian ...
Using Lindh-Hessian (1995)
 Shifting diagonal of input Hessian by    0.0000000000000000     
 Lowest  eigenvalues of input Hessian
   -0.000000   -0.000000   -0.000000    0.000000    0.000000    0.000000
    0.037245    0.348396    0.861735    1.008019    1.198535    1.241078
 Highest eigenvalues
    0.037245    0.348396    0.861735    1.008019    1.198535    1.241078


........................................................................
.............................. CYCLE    1 ..............................
........................................................................
   1    -10.1189231 -0.101189E+02  0.678E-05    0.05       0.0  T
   2    -10.1189231  0.265342E-08  0.844E-04    0.05      59.2  T
   3    -10.1189231 -0.223428E-08  0.342E-04    0.05     146.4  T
     SCC iter.                  ...        0 min,  0.000 sec
     gradient                   ...        0 min,  0.001 sec
 * total energy  :   -10.0705567 Eh     change       -0.9985772E-09 Eh
   gradient norm :     0.1834396 Eh/α   predicted     0.0000000E+00 (-100.00%)
   displ. norm   :     0.2684640 α      lambda       -0.4386665E-01
   maximum displ.:     0.2202182 α      in ANC's #2, #4, #6, ...

........................................................................
.............................. CYCLE    2 ..............................
........................................................................
   1    -10.1537257 -0.101537E+02  0.412E+00    0.60       0.0  T
   2     -9.2348768  0.918849E+00  0.148E+01    0.96       1.0  T
   3    -10.1505594 -0.915683E+00  0.356E+00    0.64       1.0  T
   4    -10.1691329 -0.185735E-01  0.254E+00    0.34       1.0  T
   5    -10.1704682 -0.133529E-02  0.236E+00    0.31       1.0  T
   6    -10.1775802 -0.711200E-02  0.171E+00    0.21       1.0  T
   7    -10.1817368 -0.415668E-02  0.118E+00    0.16       1.0  T
   8    -10.1763737  0.536319E-02  0.179E+00    0.07       1.0  T
   9    -10.1848424 -0.846871E-02  0.529E-01    0.10       1.0  T
  10    -10.1829456  0.189675E-02  0.969E-01    0.08       1.0  T
  11    -10.1856495 -0.270387E-02  0.725E-02    0.11       1.0  T
  12    -10.1856468  0.269127E-05  0.804E-02    0.11       1.0  T
  13    -10.1856652 -0.183459E-04  0.473E-03    0.11      10.6  T
  14    -10.1856651  0.501905E-08  0.478E-03    0.11      10.5  T
  15    -10.1856652 -0.459029E-07  0.256E-03    0.11      19.5  T
  16    -10.1856652 -0.176211E-07  0.559E-04    0.11      89.5  T
  17    -10.1856652 -0.881684E-09  0.284E-05    0.11    1758.6  T
     SCC iter.                  ...        0 min,  0.001 sec
     gradient                   ...        0 min,  0.001 sec
 * total energy  :   -10.1148451 Eh     change       -0.4428837E-01 Eh
   gradient norm :     0.1435684 Eh/α   predicted    -0.2351412E-01 ( -46.91%)
   displ. norm   :     0.8983868 α      lambda       -0.1257225E+00
   maximum displ.:     0.8053832 α      in ANC's #2, #4, #6, ...

........................................................................
.............................. CYCLE    3 ..............................
........................................................................
   1    -10.2727952 -0.102728E+02  0.752E+00    3.66       0.0  T
   2    -10.2753794 -0.258421E-02  0.421E+00    3.19       1.0  T
   3    -10.2730786  0.230083E-02  0.375E+00    3.70       1.0  T
   4    -10.3043290 -0.312504E-01  0.360E-01    3.58       1.0  T
   5    -10.3046318 -0.302761E-03  0.136E-01    3.54       1.0  T
   6    -10.3046308  0.101140E-05  0.604E-02    3.52       1.0  T
   7    -10.3046481 -0.173522E-04  0.591E-03    3.53       8.5  T
   8    -10.3046482 -0.109607E-06  0.112E-03    3.53      44.6  T
   9    -10.3046482 -0.672326E-09  0.154E-04    3.53     324.3  T
  10    -10.3046482 -0.390408E-10  0.103E-04    3.53     485.4  T
     SCC iter.                  ...        0 min,  0.001 sec
     gradient                   ...        0 min,  0.001 sec
 * total energy  :   -10.0564161 Eh     change        0.5842898E-01 Eh
   gradient norm :     0.6482568 Eh/α   predicted    -0.1135964E+00 (-294.42%)
   displ. norm   :     0.4963002 α      lambda       -0.2937573E+00
   maximum displ.:     0.4110303 α      in ANC's #2, #4, #6, ...

........................................................................
.............................. CYCLE    4 ..............................
........................................................................
   1    -10.2251923 -0.102252E+02  0.457E+00    2.19       0.0  T
   2    -10.2271715 -0.197917E-02  0.286E+00    0.85       1.0  T
   3    -10.2415312 -0.143597E-01  0.202E+00    1.91       1.0  T
   4    -10.2481173 -0.658611E-02  0.114E-01    1.58       1.0  T
   5    -10.2481297 -0.124267E-04  0.414E-02    1.60       1.2  T
   6    -10.2481298 -0.384322E-07  0.756E-03    1.60       6.6  T
   7    -10.2481297  0.802713E-07  0.700E-03    1.60       7.1  T
   8    -10.2481299 -0.249465E-06  0.191E-03    1.60      26.1  T
   9    -10.2481299 -0.862167E-09  0.923E-04    1.60      54.1  T
  10    -10.2481299 -0.419965E-08  0.764E-05    1.60     654.5  T
     SCC iter.                  ...        0 min,  0.001 sec
     gradient                   ...        0 min,  0.001 sec
 * total energy  :   -10.1550521 Eh     change       -0.9863606E-01 Eh
   gradient norm :     0.0637789 Eh/α   predicted    -0.1830569E+00 (  85.59%)
   displ. norm   :     0.0450288 α      lambda       -0.2858079E-02
   maximum displ.:     0.0367639 α      in ANC's #6, #2, #4, ...

........................................................................
.............................. CYCLE    5 ..............................
........................................................................
   1    -10.2532836 -0.102533E+02  0.361E-01    1.76       0.0  T
   2    -10.2533665 -0.829043E-04  0.202E-01    1.77       1.0  T
   3    -10.2533619  0.460665E-05  0.916E-02    1.79       1.0  T
   4    -10.2533559  0.597667E-05  0.635E-02    1.76       1.0  T
   5    -10.2533708 -0.148638E-04  0.112E-02    1.77       4.5  T
   6    -10.2533709 -0.664859E-07  0.190E-03    1.78      26.3  T
   7    -10.2533709 -0.104266E-07  0.123E-03    1.78      40.5  T
   8    -10.2533709 -0.578400E-08  0.370E-04    1.78     135.2  T
   9    -10.2533709 -0.425437E-10  0.208E-05    1.78    2403.1  T
     SCC iter.                  ...        0 min,  0.001 sec
     gradient                   ...        0 min,  0.001 sec
 * total energy  :   -10.1572449 Eh     change       -0.2192725E-02 Eh
   gradient norm :     0.0334608 Eh/α   predicted    -0.1431937E-02 ( -34.70%)
   displ. norm   :     0.0567700 α      lambda       -0.1859582E-02
   maximum displ.:     0.0444981 α      in ANC's #2, #6, #4, ...

........................................................................
.............................. CYCLE    6 ..............................
........................................................................
   1    -10.2584097 -0.102584E+02  0.486E-01    2.01       0.0  T
   2    -10.2585112 -0.101508E-03  0.259E-01    2.11       1.0  T
   3    -10.2584333  0.778858E-04  0.233E-01    2.02       1.0  T
   4    -10.2585733 -0.140002E-03  0.492E-02    2.08       1.0  T
   5    -10.2585751 -0.180146E-05  0.141E-02    2.07       3.6  T
   6    -10.2585752 -0.164334E-06  0.182E-03    2.07      27.4  T
   7    -10.2585752 -0.416734E-08  0.147E-03    2.07      34.0  T
   8    -10.2585753 -0.839813E-08  0.414E-04    2.07     120.9  T
   9    -10.2585753 -0.757279E-10  0.239E-05    2.07    2095.9  T
     SCC iter.                  ...        0 min,  0.001 sec
     gradient                   ...        0 min,  0.001 sec
 * total energy  :   -10.1581123 Eh     change       -0.8674014E-03 Eh
   gradient norm :     0.0077786 Eh/α   predicted    -0.9327897E-03 (   7.54%)
   displ. norm   :     0.0068603 α      lambda       -0.5329607E-04
   maximum displ.:     0.0065443 α      in ANC's #6, #2, #4, ...

........................................................................
.............................. CYCLE    7 ..............................
........................................................................
   1    -10.2578750 -0.102579E+02  0.623E-02    2.07       0.0  T
   2    -10.2578730  0.192424E-05  0.594E-02    2.09       1.0  T
   3    -10.2578869 -0.139112E-04  0.189E-02    2.08       2.6  T
   4    -10.2578870 -0.107275E-06  0.463E-03    2.08      10.8  T
   5    -10.2578871 -0.264382E-07  0.103E-03    2.08      48.7  T
   6    -10.2578871 -0.290973E-09  0.267E-04    2.08     187.3  T
   7    -10.2578871 -0.307404E-09  0.107E-04    2.08     466.0  T
     SCC iter.                  ...        0 min,  0.001 sec
     gradient                   ...        0 min,  0.001 sec
 * total energy  :   -10.1581444 Eh     change       -0.3211373E-04 Eh
   gradient norm :     0.0018563 Eh/α   predicted    -0.2665031E-04 ( -17.01%)
   displ. norm   :     0.0048111 α      lambda       -0.5621642E-05
   maximum displ.:     0.0042281 α      in ANC's #2, #6, #1, ...

........................................................................
.............................. CYCLE    8 ..............................
........................................................................
   1    -10.2576221 -0.102576E+02  0.499E-02    2.09       0.0  T
   2    -10.2576201  0.200797E-05  0.455E-02    2.12       1.1  T
   3    -10.2576298 -0.971537E-05  0.140E-02    2.10       3.6  T
   4    -10.2576299 -0.147361E-06  0.996E-04    2.10      50.2  T
   5    -10.2576299  0.225219E-09  0.689E-04    2.10      72.5  T
     SCC iter.                  ...        0 min,  0.000 sec
     gradient                   ...        0 min,  0.001 sec
 * total energy  :   -10.1581468 Eh     change       -0.2464418E-05 Eh
   gradient norm :     0.0008714 Eh/α   predicted    -0.2810290E-05 (  14.03%)
   displ. norm   :     0.0018848 α      lambda       -0.7524388E-06
   maximum displ.:     0.0013279 α      in ANC's #1, #2, #6, ...

   *** GEOMETRY OPTIMIZATION CONVERGED AFTER 8 ITERATIONS ***

------------------------------------------------------------------------
 total energy gain   :        -0.0875902 Eh      -54.9637 kcal/mol
 total RMSD          :         0.3754281 a0        0.1987 Å
 total power (kW/mol):       -28.7459900 (step)-9626.2050 (real)
------------------------------------------------------------------------

 ANCopt (total)                0 d,  0 h,  0 min,  0.024 sec
 optimizer setup                ...        0 min,  0.000 sec (  0.309%)
 model hessian                  ...        0 min,  0.000 sec (  0.351%)
 ANC generation                 ...        0 min,  0.000 sec (  0.209%)
 coordinate transformation      ...        0 min,  0.000 sec (  0.091%)
 single point calculation       ...        0 min,  0.023 sec ( 96.214%)
 optimization log               ...        0 min,  0.000 sec (  0.802%)
 hessian update                 ...        0 min,  0.000 sec (  0.077%)
 rational function              ...        0 min,  0.000 sec (  0.764%)

================
 final structure:
================
4
 xtb: 6.2.2 (9d81278992624c895f80dd42a50cac0aa55982e2)
C        -0.64030065801468   -0.38068680064716   -0.03866654621664
C        -0.58703779647629    1.01862238621644   -0.06929470450095
C         0.64808368792109    0.36716238729255    0.03980959455312
O         0.57925476656988   -1.00509797286183    0.06815165616447

 Bond Distances (Angstroems)
 ---------------------------
C1-C2=1.4007         C1-C3=1.4918         C1-O4=1.3743         C2-C1=1.4007         C2-C3=1.4007         C3-C1=1.4918         
C3-C2=1.4007         C3-O4=1.3743         O4-C1=1.3743         O4-C3=1.3743         
 C  C  Rav=1.4310 sigma=0.0430  Rmin=1.4007  Rmax=1.4918     3
 O  C  Rav=1.3743 sigma=0.0000  Rmin=1.3743  Rmax=1.3743     2

 selected bond angles (degree)
 --------------------
C3-C1-C2= 57.82                O4-C1-C2=114.95                O4-C1-C3= 57.13                C3-C2-C1= 64.35                
C2-C3-C1= 57.82                O4-C3-C1= 57.13                O4-C3-C2=114.95                C3-O4-C1= 65.74                

 selected dihedral angles (degree)
 ---------------------------------
C3-C2-C1-O4=  0.00            C2-C3-C1-O4=179.98            O4-C3-C1-C2=180.02            O4-C3-C2-C1=  0.00            
C3-O4-C1-C2=  0.00            C1-O4-C3-C2=  0.00            
           -------------------------------------------------
          |                Final Singlepoint                |
           -------------------------------------------------

          ...................................................
          :                      SETUP                      :
          :.................................................:
          :  # basis functions                  16          :
          :  # atomic orbitals                  16          :
          :  # shells                            8          :
          :  # electrons                        18          :
          :  max. iterations                   250          :
          :  Hamiltonian                  GFN2-xTB          :
          :  restarted?                      false          :
          :  GBSA solvation                  false          :
          :  PC potential                    false          :
          :  electronic temp.          300.0000000     K    :
          :  accuracy                    1.0000000          :
          :  -> integral cutoff          0.2500000E+02      :
          :  -> integral neglect         0.1000000E-07      :
          :  -> SCF convergence          0.1000000E-05 Eh   :
          :  -> wf. convergence          0.1000000E-03 e    :
          :  Broyden damping             0.4000000          :
          ...................................................

 iter      E             dE          RMSdq      gap      omega  full diag
   1    -10.2576299 -0.102576E+02  0.682E-04    2.10       0.0  T
   2    -10.2576299  0.525570E-08  0.110E-03    2.10      45.6  T
   3    -10.2576299 -0.681597E-08  0.245E-04    2.10     204.1  T
   4    -10.2576299 -0.109260E-09  0.116E-04    2.10     430.9  T

   *** convergence criteria satisfied after 4 iterations ***

         #    Occupation            Energy/Eh            Energy/eV
      -------------------------------------------------------------
         1        2.0000           -0.8130022             -22.1229
       ...           ...                  ...                  ...
         3        2.0000           -0.6737129             -18.3327
         4        2.0000           -0.6333545             -17.2345
         5        2.0000           -0.6254936             -17.0205
         6        2.0000           -0.5810983             -15.8125
         7        2.0000           -0.4854082             -13.2086
         8        2.0000           -0.4650275             -12.6540
         9        2.0000           -0.4484585             -12.2032 (HOMO)
        10                         -0.3712017             -10.1009 (LUMO)
        11                         -0.3316278              -9.0241
        12                         -0.2605027              -7.0886
        13                          0.0720155               1.9596
        14                          0.1097222               2.9857
       ...                                ...                  ...
        16                          0.3774733              10.2716
      -------------------------------------------------------------
                  HL-Gap            0.0772568 Eh            2.1023 eV
             Fermi-level           -0.4098301 Eh          -11.1520 eV

 SCC (total)                   0 d,  0 h,  0 min,  0.003 sec
 SCC setup                      ...        0 min,  0.000 sec (  2.600%)
 Dispersion                     ...        0 min,  0.000 sec (  0.273%)
 integral evaluation            ...        0 min,  0.001 sec ( 36.982%)
 zeroth order Hamiltonian       ...        0 min,  0.000 sec (  0.455%)
 iterations                     ...        0 min,  0.001 sec ( 19.414%)
 molecular gradient             ...        0 min,  0.001 sec ( 38.091%)
 printout                       ...        0 min,  0.000 sec (  1.838%)

         :::::::::::::::::::::::::::::::::::::::::::::::::::::
         ::                     SUMMARY                     ::
         :::::::::::::::::::::::::::::::::::::::::::::::::::::
         :: total energy             -10.158146842788 Eh    ::
         :: gradient norm              0.000871707266 Eh/a0 ::
         :: HOMO-LUMO gap              2.102263703913 eV    ::
         ::.................................................::
         :: SCC energy               -10.257629928426 Eh    ::
         :: -> isotropic ES            0.008433637830 Eh    ::
         :: -> anisotropic ES          0.004700391315 Eh    ::
         :: -> anisotropic XC         -0.000468153995 Eh    ::
         :: -> dispersion             -0.001577899433 Eh    ::
         :: repulsion energy           0.099483083976 Eh    ::
         :: add. restraining           0.000000000000 Eh    ::
         :::::::::::::::::::::::::::::::::::::::::::::::::::::

           ------------------------------------------------- 
          |                Numerical Hessian                |
           ------------------------------------------------- 
step length          :   0.00500
SCC accuracy         :   0.30000
Hessian scale factor :   1.00000
frozen atoms in %    :   0.00000    0
RMS gradient         :   0.00087
estimated CPU  time      0.00 min
estimated wall time      0.00 min

writing file <hessian>.

 projected vibrational frequencies (cm-1)
eigval :       -0.00    -0.00    -0.00     0.00     0.00     0.00
eigval :     -396.86   394.53   470.41   934.96  1365.83  1514.50
           -------------------------------------------------
          |                Property Printout                |
           -------------------------------------------------

    * Orbital Energies and Occupations

         #    Occupation            Energy/Eh            Energy/eV
      -------------------------------------------------------------
         1        2.0000           -0.8130020             -22.1229
         2        2.0000           -0.7283294             -19.8189
         3        2.0000           -0.6737126             -18.3327
         4        2.0000           -0.6333542             -17.2344
         5        2.0000           -0.6254936             -17.0205
         6        2.0000           -0.5810985             -15.8125
         7        2.0000           -0.4854081             -13.2086
         8        2.0000           -0.4650277             -12.6540
         9        2.0000           -0.4484594             -12.2032 (HOMO)
        10                         -0.3712015             -10.1009 (LUMO)
        11                         -0.3316280              -9.0241
        12                         -0.2605033              -7.0887
        13                          0.0720157               1.9596
        14                          0.1097222               2.9857
        15                          0.2004936               5.4557
        16                          0.3774726              10.2716
      -------------------------------------------------------------
                  HL-Gap            0.0772579 Eh            2.1023 eV
             Fermi-level           -0.4098305 Eh          -11.1521 eV

     #   Z        covCN         q      C6AA      α(0)
     1   6 C      2.810     0.158    24.563     8.120
     2   6 C      1.962    -0.137    34.918     9.543
     3   6 C      2.810     0.158    24.563     8.120
     4   8 O      1.707    -0.180    17.026     5.571

 Mol. C6AA /au·bohr⁶  :        395.941164
 Mol. C8AA /au·bohr⁸  :      10689.904964
 Mol. α(0) /au        :         31.353672


Wiberg/Mayer (AO) data.
largest (>0.10) Wiberg bond orders for each atom
          total WBO             WBO to atom ...
     1  C   3.348        C    2 1.258    C    3 1.114    O    4 0.976
     2  C   2.806        C    3 1.258    C    1 1.258    O    4 0.291
     3  C   3.348        C    2 1.258    C    1 1.114    O    4 0.976
     4  O   2.242        C    1 0.976    C    3 0.976    C    2 0.291

MOs/occ written to file <molden.input>


molecular dipole:
                 x           y           z       tot (Debye)
 q only:       -0.043       0.075      -0.005
   full:        0.305      -0.529       0.036       1.555
molecular quadrupole (traceless):
                xx          xy          yy          xz          yz          zz
 q only:        0.587       1.409      -1.039      -0.025       0.143       0.453
  q+dip:        0.133       2.184      -2.404      -0.216       0.279       2.272
   full:       -0.300       2.641      -3.378      -0.367       0.373       3.677

           -------------------------------------------------
          |                Geometry Summary                 |
           -------------------------------------------------

      molecular mass/u    :       52.0316126
   center of mass at/Å    :        0.0444045      -0.0770496       0.0052244
Molecule has the following symmetry elements: (C2) 2*(sigma) 
It seems to be the C2v point group
  moments of inertia/u·Å² :        0.1336417E+02   0.3785317E+02   0.5121735E+02
rotational constants/cm⁻¹ :        0.1261405E+01   0.4453426E+00   0.3291391E+00

 * 2 selected distances

     #   Z        #   Z                                     value/Å
     1   6 C      4   8 O                                 1.3742689 (min)
     3   6 C      4   8 O                                 1.3742777 (max)

 * 1 distinct bonds (by element types)

   Z      Z             #   av. dist./Å        max./Å        min./Å
   6 C    8 O           2     1.3742733     1.3742777     1.3742689

           -------------------------------------------------
          |               Frequency Printout                |
           -------------------------------------------------
 projected vibrational frequencies (cm-1)
eigval :       -0.00    -0.00    -0.00     0.00     0.00     0.00
eigval :     -396.86   394.53   470.41   934.96  1365.83  1514.50
 reduced masses (amu)
   1: 12.83   2: 13.78   3: 12.06   4: 12.65   5: 12.65   6: 15.15   7: 13.10   8: 12.24
   9: 12.83  10: 13.50  11: 13.28  12: 12.02
 IR intensities (amu)
   1:  0.05   2:  0.21   3:  0.11   4:  0.12   5:  0.10   6:  0.12   7:  1.02   8:  1.44
   9:  0.75  10:  0.65  11:  1.16  12:  0.46
 Raman intensities (amu)
   1:  0.00   2:  0.00   3:  0.00   4:  0.00   5:  0.00   6:  0.00   7:  0.00   8:  0.00
   9:  0.00  10:  0.00  11:  0.00  12:  0.00
 output can be read by thermo (or use thermo option).
 writing <g98.out> molden fake output.
 recommended (thermochemical) frequency scaling factor: 1.0
           -------------------------------------------------
          |             Thermodynamic Functions             |
           -------------------------------------------------

c2v symmetry found (for desy threshold:  0.10E+00) used in thermo

          ...................................................
          :                      SETUP                      :
          :.................................................:
          :  # frequencies                           5      :
          :  # imaginary freq.                       1      :
          :  linear?                             false      :
          :  only rotor calc.                    false      :
          :  symmetry                              c2v      :
          :  rotational number                       2      :
          :  scaling factor                  1.0000000      :
          :  rotor cutoff                   50.0000000 cm⁻¹ :
          :  imag. cutoff                  -20.0000000 cm⁻¹ :
          :.................................................:

    mode    ω/cm⁻¹     T·S(HO)/kcal·mol⁻¹    T·S(FR)/kcal·mol⁻¹   T·S(vib)
   ------------------------------------------------------------------------
   ------------------------------------------------------------------------

   temp. (K)  partition function   enthalpy   heat capacity  entropy
                                   cal/mol     cal/K/mol   cal/K/mol   J/K/mol
 298.15  VIB   1.33                  390.393      3.442      1.873
         ROT  0.615E+04              888.752      2.981     20.318
         INT  0.816E+04             1279.145      6.423     22.190
         TR   0.363E+27             1481.254      4.968     37.753
         TOT                        2760.3992    11.3907    59.9439   250.8053

   temp. (K)  partition function   enthalpy   heat capacity  entropy
                                   cal/mol     cal/K/mol   cal/K/mol   J/K/mol
 120.00  VIB   1.01                   14.873      0.629      0.149
         ROT  0.157E+04              357.707      2.981     17.605
         INT  0.159E+04              372.580      3.610     17.753
         TR   0.927E+26              596.178      4.968     33.234
         TOT                         968.7583     8.5780    50.9876   213.3321

   temp. (K)  partition function   enthalpy   heat capacity  entropy
                                   cal/mol     cal/K/mol   cal/K/mol   J/K/mol
 100.00  VIB   1.00                    5.430      0.326      0.064
         ROT  0.119E+04              298.089      2.981     17.061
         INT  0.120E+04              303.519      3.307     17.125
         TR   0.705E+26              496.815      4.968     32.329
         TOT                         800.3339     8.2753    49.4534   206.9132

   temp. (K)  partition function   enthalpy   heat capacity  entropy
                                   cal/mol     cal/K/mol   cal/K/mol   J/K/mol
  80.00  VIB   1.00                    1.221      0.113      0.017
         ROT   855.                  238.471      2.981     16.396
         INT   855.                  239.692      3.094     16.413
         TR   0.505E+26              397.452      4.968     31.221
         TOT                         637.1439     8.0623    47.6341   199.3009

   temp. (K)  partition function   enthalpy   heat capacity  entropy
                                   cal/mol     cal/K/mol   cal/K/mol   J/K/mol
  60.00  VIB   1.00                    0.105      0.017      0.002
         ROT   555.                  178.853      2.981     15.538
         INT   555.                  178.958      2.998     15.540
         TR   0.328E+26              298.089      4.968     29.792
         TOT                         477.0472     7.9661    45.3324   189.6709

   temp. (K)  partition function   enthalpy   heat capacity  entropy
                                   cal/mol     cal/K/mol   cal/K/mol   J/K/mol
  40.00  VIB   1.00                    0.001      0.000     -0.000
         ROT   302.                  119.236      2.981     14.330
         INT   302.                  119.236      2.981     14.330
         TR   0.178E+26              198.726      4.968     27.779
         TOT                         317.9624     7.9493    42.1083   176.1811

   temp. (K)  partition function   enthalpy   heat capacity  entropy
                                   cal/mol     cal/K/mol   cal/K/mol   J/K/mol
  20.00  VIB   1.00                    0.000      0.000     -0.001
         ROT   107.                   59.618      2.981     12.264
         INT   107.                   59.618      2.981     12.263
         TR   0.631E+25               99.363      4.968     24.337
         TOT                         158.9808     7.9490    36.5998   153.1337

   temp. (K)  partition function   enthalpy   heat capacity  entropy
                                   cal/mol     cal/K/mol   cal/K/mol   J/K/mol
  10.00  VIB   1.00                    0.000      0.000     -0.001
         ROT   37.8                   29.809      2.981     10.197
         INT   37.8                   29.809      2.981     10.197
         TR   0.223E+25               49.681      4.968     20.895
         TOT                          79.4904     7.9490    31.0914   130.0864

       T/K    H(0)-H(T)+PV         H(T)/Eh          T*S/Eh         G(T)/Eh
   ------------------------------------------------------------------------
    298.15    0.439898E-02    0.150613E-01    0.284813E-01   -0.134200E-01
    120.00    0.154381E-02    0.122062E-01    0.975047E-02    0.245568E-02
    100.00    0.127541E-02    0.119377E-01    0.788091E-02    0.405684E-02
     80.00    0.101535E-02    0.116777E-01    0.607278E-02    0.560491E-02
     60.00    0.760223E-03    0.114226E-01    0.433451E-02    0.708805E-02
     40.00    0.506705E-03    0.111690E-01    0.268415E-02    0.848489E-02
     20.00    0.253352E-03    0.109157E-01    0.116651E-02    0.974918E-02
     10.00    0.126676E-03    0.107890E-01    0.495473E-03    0.102935E-01 (used)
   ------------------------------------------------------------------------

         :::::::::::::::::::::::::::::::::::::::::::::::::::::
         ::                  THERMODYNAMIC                  ::
         :::::::::::::::::::::::::::::::::::::::::::::::::::::
         :: total free energy         -10.147853303216 Eh   ::
         ::.................................................::
         :: total energy              -10.158146842202 Eh   ::
         :: zero point energy           0.010662335816 Eh   ::
         :: G(RRHO) w/o ZPVE           -0.000368796830 Eh   ::
         :: G(RRHO) contrib.            0.010293538986 Eh   ::
         :::::::::::::::::::::::::::::::::::::::::::::::::::::
imag cut-off (cm-1) :    5.00
 found            1  significant imaginary frequency
 writing imag mode distorted coords to xtbhess.xyz
 for further optimization.

optimized geometry written to: xtbopt.xyz


           -------------------------------------------------
          | TOTAL ENERGY              -10.158146842202 Eh   |
          | TOTAL ENTHALPY            -10.147357830371 Eh   |
          | TOTAL FREE ENERGY         -10.147853303216 Eh   |
          | GRADIENT NORM               0.000873339443 Eh/α |
          | HOMO-LUMO GAP               2.102293981775 eV   |
           -------------------------------------------------

------------------------------------------------------------------------
 * finished run on 2020/05/12 at 11:45:19.259     
------------------------------------------------------------------------
 total:
 * wall-time:     0 d,  0 h,  0 min,  0.119 sec
 *  cpu-time:     0 d,  0 h,  0 min,  0.119 sec
 * ratio c/w:     0.999 speedup
 SCF:
 * wall-time:     0 d,  0 h,  0 min,  0.005 sec
 *  cpu-time:     0 d,  0 h,  0 min,  0.005 sec
 * ratio c/w:     0.994 speedup
 ANC optimizer:
 * wall-time:     0 d,  0 h,  0 min,  0.027 sec
 *  cpu-time:     0 d,  0 h,  0 min,  0.027 sec
 * ratio c/w:     1.000 speedup
 numerical hessian:
 * wall-time:     0 d,  0 h,  0 min,  0.068 sec
 *  cpu-time:     0 d,  0 h,  0 min,  0.068 sec
 * ratio c/w:     0.999 speedup

