 Entering Gaussian System
 *********************************************
 Gaussian 98:
 frequency output generated by the xtb code
 *********************************************
                         Standard orientation:
 --------------------------------------------------------------------
  Center     Atomic     Atomic              Coordinates (Angstroms)
  Number     Number      Type              X           Y           Z
 --------------------------------------------------------------------
    1          6             0       -1.343820    0.539960   -0.008991
    2          7             0        0.057416    0.086336   -0.314695
    3          6             0        1.314909   -0.583186    0.166482
    4          6             0       -1.220892   -0.705304   -0.329870
    5          6             0        1.192388    0.662193    0.487073
 --------------------------------------------------------------------
     1 basis functions        1 primitive gaussians
     1 alpha electrons        1 beta electrons

 Harmonic frequencies (cm**-1), IR intensities (KM/Mole),
 Raman scattering activities (A**4/amu), Raman depolarization ratios,
 reduced masses (AMU), force constants (mDyne/A) and normal coordinates:
                      1                      2                      3
                        a                      a                      a 
 Frequencies --  -528.9086              -349.2293              -130.8473
 Red. masses --    13.1133                12.0107                12.0107
 Frc consts  --     0.0000                 0.0000                 0.0000
 IR Inten    --     1.8278                 0.0217                 0.0202
 Raman Activ --     0.0000                 0.0000                 0.0000
 Depolar     --     0.0000                 0.0000                 0.0000
 Atom AN      X      Y      Z        X      Y      Z        X      Y      Z
   1   6    -0.27   0.15   0.13     0.40  -0.06  -0.30    -0.25   0.23  -0.37
   2   7     0.07  -0.72  -0.18    -0.00  -0.00  -0.00     0.00  -0.00  -0.00
   3   6    -0.23   0.22  -0.12    -0.28   0.23  -0.34     0.37  -0.03  -0.33
   4   6     0.23   0.24  -0.03    -0.37  -0.26   0.21     0.22   0.06   0.45
   5   6     0.19   0.17   0.22     0.25   0.09   0.42    -0.34  -0.26   0.26
                      4                      5                      6
                        a                      a                      a 
 Frequencies --   296.6351               367.5906               780.5172
 Red. masses --    12.3223                13.0953                12.4680
 Frc consts  --     0.0000                 0.0000                 0.0000
 IR Inten    --     0.2057                 0.2364                 0.1539
 Raman Activ --     0.0000                 0.0000                 0.0000
 Depolar     --     0.0000                 0.0000                 0.0000
 Atom AN      X      Y      Z        X      Y      Z        X      Y      Z
   1   6    -0.41  -0.11  -0.18     0.23  -0.04   0.24    -0.43  -0.09   0.03
   2   7    -0.04   0.38   0.10     0.13   0.19  -0.70     0.08   0.12  -0.46
   3   6    -0.43  -0.14  -0.05    -0.30  -0.06   0.14     0.38   0.02   0.21
   4   6     0.43  -0.10   0.12     0.24  -0.04   0.24    -0.43  -0.02   0.05
   5   6     0.46  -0.06  -0.01    -0.30  -0.07   0.14     0.39  -0.05   0.19
                      7                      8                      9
                        a                      a                      a 
 Frequencies --   792.6306              1777.3758              1777.9610
 Red. masses --    13.3923                12.0147                12.1392
 Frc consts  --     0.0000                 0.0000                 0.0000
 IR Inten    --     0.5487                 0.0423                 0.5601
 Raman Activ --     0.0000                 0.0000                 0.0000
 Depolar     --     0.0000                 0.0000                 0.0000
 Atom AN      X      Y      Z        X      Y      Z        X      Y      Z
   1   6     0.22   0.17   0.01     0.07  -0.45  -0.12    -0.12   0.48   0.13
   2   7    -0.82  -0.04  -0.16     0.01  -0.01   0.04     0.25   0.01   0.05
   3   6     0.19   0.13   0.15    -0.08   0.51   0.11    -0.10   0.43   0.08
   4   6     0.25  -0.11  -0.06    -0.02   0.46   0.11    -0.02  -0.50  -0.12
   5   6     0.22  -0.15   0.07     0.02  -0.50  -0.15    -0.02  -0.43  -0.14
