 Entering Gaussian System, Link 0=g16
 Initial command:
 /applis/site/cecic/gaussian16/B.01/nehalem/g16/l1.exe "/bettik/tinaccil/g16/12210842_C4H3_s2_2X/Gau-225834.inp" -scrdir="/bettik/tinaccil/g16/12210842_C4H3_s2_2X/"
 Entering Link 1 = /applis/site/cecic/gaussian16/B.01/nehalem/g16/l1.exe PID=    225836.
  
 Copyright (c) 1988-2017, Gaussian, Inc.  All Rights Reserved.
  
 This is part of the Gaussian(R) 16 program.  It is based on
 the Gaussian(R) 09 system (copyright 2009, Gaussian, Inc.),
 the Gaussian(R) 03 system (copyright 2003, Gaussian, Inc.),
 the Gaussian(R) 98 system (copyright 1998, Gaussian, Inc.),
 the Gaussian(R) 94 system (copyright 1995, Gaussian, Inc.),
 the Gaussian 92(TM) system (copyright 1992, Gaussian, Inc.),
 the Gaussian 90(TM) system (copyright 1990, Gaussian, Inc.),
 the Gaussian 88(TM) system (copyright 1988, Gaussian, Inc.),
 the Gaussian 86(TM) system (copyright 1986, Carnegie Mellon
 University), and the Gaussian 82(TM) system (copyright 1983,
 Carnegie Mellon University). Gaussian is a federally registered
 trademark of Gaussian, Inc.
  
 This software contains proprietary and confidential information,
 including trade secrets, belonging to Gaussian, Inc.
  
 This software is provided under written license and may be
 used, copied, transmitted, or stored only in accord with that
 written license.
  
 The following legend is applicable only to US Government
 contracts under FAR:
  
                    RESTRICTED RIGHTS LEGEND
  
 Use, reproduction and disclosure by the US Government is
 subject to restrictions as set forth in subparagraphs (a)
 and (c) of the Commercial Computer Software - Restricted
 Rights clause in FAR 52.227-19.
  
 Gaussian, Inc.
 340 Quinnipiac St., Bldg. 40, Wallingford CT 06492
  
  
 ---------------------------------------------------------------
 Warning -- This program may not be used in any manner that
 competes with the business of Gaussian, Inc. or will provide
 assistance to any competitor of Gaussian, Inc.  The licensee
 of this program is prohibited from giving any competitor of
 Gaussian, Inc. access to this program.  By using this program,
 the user acknowledges that Gaussian, Inc. is engaged in the
 business of creating and licensing software in the field of
 computational chemistry and represents and warrants to the
 licensee that it is not a competitor of Gaussian, Inc. and that
 it will not use this program in any manner prohibited above.
 ---------------------------------------------------------------
  

 Cite this work as:
 Gaussian 16, Revision B.01,
 M. J. Frisch, G. W. Trucks, H. B. Schlegel, G. E. Scuseria, 
 M. A. Robb, J. R. Cheeseman, G. Scalmani, V. Barone, 
 G. A. Petersson, H. Nakatsuji, X. Li, M. Caricato, A. V. Marenich, 
 J. Bloino, B. G. Janesko, R. Gomperts, B. Mennucci, H. P. Hratchian, 
 J. V. Ortiz, A. F. Izmaylov, J. L. Sonnenberg, D. Williams-Young, 
 F. Ding, F. Lipparini, F. Egidi, J. Goings, B. Peng, A. Petrone, 
 T. Henderson, D. Ranasinghe, V. G. Zakrzewski, J. Gao, N. Rega, 
 G. Zheng, W. Liang, M. Hada, M. Ehara, K. Toyota, R. Fukuda, 
 J. Hasegawa, M. Ishida, T. Nakajima, Y. Honda, O. Kitao, H. Nakai, 
 T. Vreven, K. Throssell, J. A. Montgomery, Jr., J. E. Peralta, 
 F. Ogliaro, M. J. Bearpark, J. J. Heyd, E. N. Brothers, K. N. Kudin, 
 V. N. Staroverov, T. A. Keith, R. Kobayashi, J. Normand, 
 K. Raghavachari, A. P. Rendell, J. C. Burant, S. S. Iyengar, 
 J. Tomasi, M. Cossi, J. M. Millam, M. Klene, C. Adamo, R. Cammi, 
 J. W. Ochterski, R. L. Martin, K. Morokuma, O. Farkas, 
 J. B. Foresman, and D. J. Fox, Gaussian, Inc., Wallingford CT, 2016.
 
 ******************************************
 Gaussian 16:  ES64L-G16RevB.01 20-Dec-2017
                25-Sep-2020 
 ******************************************
 %nosave
 %nproc=8
 Will use up to    8 processors via shared memory.
 %mem=2gb
 %chk=input
 --------------------------------------------------------
 #P M062X/cc-pvtz nosymm opt(noeigentest) optcyc=120 freq
 --------------------------------------------------------
 1/6=120,11=1,18=20,19=15,26=3,38=1/1,3;
 2/9=110,12=2,15=1,17=6,18=5,40=1/2;
 3/5=16,6=1,11=2,25=1,30=1,71=1,74=-55/1,2,3;
 4//1;
 5/5=2,38=5/2;
 6/7=2,8=2,9=2,10=2,28=1/1;
 7/30=1/1,2,3,16;
 1/6=120,11=1,18=20,19=15,26=3/3(2);
 2/9=110,15=1/2;
 99//99;
 2/9=110,15=1/2;
 3/5=16,6=1,11=2,25=1,30=1,71=1,74=-55/1,2,3;
 4/5=5,16=3,69=1/1;
 5/5=2,38=5/2;
 7/30=1/1,2,3,16;
 1/6=120,11=1,18=20,19=15,26=3/3(-5);
 2/9=110,15=1/2;
 6/7=2,8=2,9=2,10=2,19=2,28=1/1;
 99/9=1/99;
 Leave Link    1 at Fri Sep 25 23:34:40 2020, MaxMem=   268435456 cpu:               1.0 elap:               0.2
 (Enter /applis/site/cecic/gaussian16/B.01/nehalem/g16/l101.exe)
 -----
 Title
 -----
 Symbolic Z-matrix:
 Charge =  0 Multiplicity = 2
 C
 C                    1    B1
 C                    2    B2       1    A2
 H                    1    B3       2    A3       3    D3       0
 H                    1    B4       2    A4       3    D4       0
 H                    3    B5       2    A5       1    D5       0
 C                    4    B6       1    A6       2    D6       0
       Variables:
  B1                    2.58682                  
  B2                    1.30519                  
  A2                  179.97438                  
  B3                    1.08442                  
  A3                  119.979                    
  D3                  359.62601                  
  B4                    1.08442                  
  A4                  120.02122                  
  D4                  179.62151                  
  B5                    1.08443                  
  A5                  120.00507                  
  D5                    0.48573                  
  B6                    2.07235                  
  A6                   33.0584                   
  D6                  359.99988                  
 
 Add atom      1 valence  3 ND=      2 dihedral       4      1      5      7
 ITRead=  0  0  0  0  0  0  0
 MicOpt= -1 -1 -1 -1 -1 -1 -1
 NAtoms=      7 NQM=        7 NQMF=       0 NMMI=      0 NMMIF=      0
                NMic=       0 NMicF=      0.
                    Isotopes and Nuclear Properties:
 (Nuclear quadrupole moments (NQMom) in fm**2, nuclear magnetic moments (NMagM)
  in nuclear magnetons)

  Atom         1           2           3           4           5           6           7
 IAtWgt=          12          12          12           1           1           1          12
 AtmWgt=  12.0000000  12.0000000  12.0000000   1.0078250   1.0078250   1.0078250  12.0000000
 NucSpn=           0           0           0           1           1           1           0
 AtZEff=  -0.0000000  -0.0000000  -0.0000000  -0.0000000  -0.0000000  -0.0000000  -0.0000000
 NQMom=    0.0000000   0.0000000   0.0000000   0.0000000   0.0000000   0.0000000   0.0000000
 NMagM=    0.0000000   0.0000000   0.0000000   2.7928460   2.7928460   2.7928460   0.0000000
 AtZNuc=   6.0000000   6.0000000   6.0000000   1.0000000   1.0000000   1.0000000   6.0000000
 Leave Link  101 at Fri Sep 25 23:34:40 2020, MaxMem=   268435456 cpu:               2.1 elap:               0.3
 (Enter /applis/site/cecic/gaussian16/B.01/nehalem/g16/l103.exe)

 GradGradGradGradGradGradGradGradGradGradGradGradGradGradGradGradGradGrad
 Berny optimization.
 Initialization pass.
                           ----------------------------
                           !    Initial Parameters    !
                           ! (Angstroms and Degrees)  !
 --------------------------                            --------------------------
 ! Name  Definition              Value          Derivative Info.                !
 --------------------------------------------------------------------------------
 ! R1    R(1,4)                  1.0844         estimate D2E/DX2                !
 ! R2    R(1,5)                  1.0844         estimate D2E/DX2                !
 ! R3    R(1,7)                  1.3052         estimate D2E/DX2                !
 ! R4    R(2,3)                  1.3052         estimate D2E/DX2                !
 ! R5    R(2,7)                  1.2816         estimate D2E/DX2                !
 ! R6    R(3,6)                  1.0844         estimate D2E/DX2                !
 ! A1    A(4,1,5)              119.9998         estimate D2E/DX2                !
 ! A2    A(4,1,7)              119.9916         estimate D2E/DX2                !
 ! A3    A(5,1,7)              120.0086         estimate D2E/DX2                !
 ! A4    A(2,3,6)              120.0051         estimate D2E/DX2                !
 ! A5    L(3,2,7,6,-1)         179.9872         estimate D2E/DX2                !
 ! A6    L(1,7,2,4,-1)         179.9745         estimate D2E/DX2                !
 ! A7    L(3,2,7,6,-2)         179.9998         estimate D2E/DX2                !
 ! A8    L(1,7,2,4,-2)         180.0005         estimate D2E/DX2                !
 ! D1    D(4,1,3,6)              0.1117         estimate D2E/DX2                !
 ! D2    D(5,1,3,6)           -179.8929         estimate D2E/DX2                !
 ! D3    D(4,1,5,7)            179.9956         estimate D2E/DX2                !
 --------------------------------------------------------------------------------
 Trust Radius=3.00D-01 FncErr=1.00D-07 GrdErr=1.00D-06 EigMax=2.50D+02 EigMin=1.00D-04
 Number of steps in this run=    100 maximum allowed number of steps=    100.
 GradGradGradGradGradGradGradGradGradGradGradGradGradGradGradGradGradGrad

 Leave Link  103 at Fri Sep 25 23:34:41 2020, MaxMem=   268435456 cpu:               0.5 elap:               0.1
 (Enter /applis/site/cecic/gaussian16/B.01/nehalem/g16/l202.exe)
                          Input orientation:                          
 ---------------------------------------------------------------------
 Center     Atomic      Atomic             Coordinates (Angstroms)
 Number     Number       Type             X           Y           Z
 ---------------------------------------------------------------------
      1          6           0        0.000000    0.000000    0.000000
      2          6           0        0.000000    0.000000    2.586820
      3          6           0        0.000584    0.000000    3.892010
      4          1           0        0.939314    0.006131   -0.541866
      5          1           0       -0.938914   -0.006202   -0.542558
      6          1           0        0.939888    0.007961    4.433888
      7          6           0       -0.000288    0.000000    1.305225
 ---------------------------------------------------------------------
                    Distance matrix (angstroms):
                    1          2          3          4          5
     1  C    0.000000
     2  C    2.586820   0.000000
     3  C    3.892010   1.305190   0.000000
     4  H    1.084420   3.266653   4.532163   0.000000
     5  H    1.084420   3.267201   4.532999   1.878268   0.000000
     6  H    4.532418   2.072466   1.084430   4.975754   5.319315
     7  C    1.305225   1.281595   2.586785   2.072350   2.072525
                    6          7
     6  H    0.000000
     7  C    3.266883   0.000000
 Symmetry turned off by external request.
 Stoichiometry    C4H3(2)
 Framework group  C1[X(C4H3)]
 Deg. of freedom    15
 Full point group                 C1      NOp   1
 Rotational constants (GHZ):         194.3569887           4.2331664           4.1429319
 Leave Link  202 at Fri Sep 25 23:34:41 2020, MaxMem=   268435456 cpu:               0.4 elap:               0.1
 (Enter /applis/site/cecic/gaussian16/B.01/nehalem/g16/l301.exe)
 Standard basis: CC-pVTZ (5D, 7F)
 Ernie: Thresh=  0.10000D-02 Tol=  0.10000D-05 Strict=F.
 Ernie:  12 primitive shells out of 128 were deleted.
   162 basis functions,   259 primitive gaussians,   185 cartesian basis functions
    14 alpha electrons       13 beta electrons
       nuclear repulsion energy        82.5640686150 Hartrees.
 IExCor= 4336 DFT=T Ex+Corr=M062X ExCW=0 ScaHFX=  0.540000
 ScaDFX=  1.000000  1.000000  1.000000  1.000000 ScalE2=  1.000000  1.000000
 IRadAn=      5 IRanWt=     -1 IRanGd=            0 ICorTp=0 IEmpDi=  4
 NAtoms=    7 NActive=    7 NUniq=    7 SFac= 1.00D+00 NAtFMM=   60 NAOKFM=F Big=F
 Integral buffers will be    131072 words long.
 Raffenetti 2 integral format.
 Two-electron integral symmetry is turned off.
 Leave Link  301 at Fri Sep 25 23:34:41 2020, MaxMem=   268435456 cpu:               0.7 elap:               0.2
 (Enter /applis/site/cecic/gaussian16/B.01/nehalem/g16/l302.exe)
 NPDir=0 NMtPBC=     1 NCelOv=     1 NCel=       1 NClECP=     1 NCelD=      1
         NCelK=      1 NCelE2=     1 NClLst=     1 CellRange=     0.0.
 One-electron integrals computed using PRISM.
 NBasis=   162 RedAO= T EigKep=  2.76D-05  NBF=   162
 NBsUse=   162 1.00D-06 EigRej= -1.00D+00 NBFU=   162
 Precomputing XC quadrature grid using
 IXCGrd= 4 IRadAn=           5 IRanWt=          -1 IRanGd=           0 AccXCQ= 0.00D+00.
 Generated NRdTot=       0 NPtTot=           0 NUsed=           0 NTot=          32
 NSgBfM=   185   185   185   185   185 MxSgAt=     7 MxSgA2=     7.
 Leave Link  302 at Fri Sep 25 23:34:41 2020, MaxMem=   268435456 cpu:               1.7 elap:               0.3
 (Enter /applis/site/cecic/gaussian16/B.01/nehalem/g16/l303.exe)
 DipDrv:  MaxL=1.
 Leave Link  303 at Fri Sep 25 23:34:41 2020, MaxMem=   268435456 cpu:               0.5 elap:               0.1
 (Enter /applis/site/cecic/gaussian16/B.01/nehalem/g16/l401.exe)
 ExpMin= 1.03D-01 ExpMax= 8.24D+03 ExpMxC= 2.81D+02 IAcc=3 IRadAn=         5 AccDes= 0.00D+00
 Harris functional with IExCor= 1009 and IRadAn=       5 diagonalized for initial guess.
 HarFok:  IExCor= 1009 AccDes= 0.00D+00 IRadAn=         5 IDoV= 1 UseB2=F ITyADJ=14
 ICtDFT=  3500011 ScaDFX=  1.000000  1.000000  1.000000  1.000000
 FoFCou: FMM=F IPFlag=           0 FMFlag=      100000 FMFlg1=           0
         NFxFlg=           0 DoJE=T BraDBF=F KetDBF=T FulRan=T
         wScrn=  0.000000 ICntrl=       500 IOpCl=  0 I1Cent=   200000004 NGrid=           0
         NMat0=    1 NMatS0=      1 NMatT0=    0 NMatD0=    1 NMtDS0=    0 NMtDT0=    0
 Symmetry not used in FoFCou.
 Harris En= -153.975680540048    
 JPrj=0 DoOrth=F DoCkMO=F.
 Initial guess <Sx>= 0.0000 <Sy>= 0.0000 <Sz>= 0.5000 <S**2>= 0.7500 S= 0.5000
 Leave Link  401 at Fri Sep 25 23:34:42 2020, MaxMem=   268435456 cpu:               3.9 elap:               0.6
 (Enter /applis/site/cecic/gaussian16/B.01/nehalem/g16/l502.exe)
 Keep R1 and R2 ints in memory in canonical form, NReq=182448050.
 FoFCou: FMM=F IPFlag=           0 FMFlag=           0 FMFlg1=           0
         NFxFlg=           0 DoJE=F BraDBF=F KetDBF=F FulRan=T
         wScrn=  0.000000 ICntrl=       600 IOpCl=  0 I1Cent=           0 NGrid=           0
         NMat0=    1 NMatS0=  13203 NMatT0=    0 NMatD0=    1 NMtDS0=    0 NMtDT0=    0
 Symmetry not used in FoFCou.
 Two-electron integral symmetry not used.
 UHF open shell SCF:
 Using DIIS extrapolation, IDIIS=  1040.
 NGot=   268435456 LenX=    94031820 LenY=    93997154
 Requested convergence on RMS density matrix=1.00D-08 within 128 cycles.
 Requested convergence on MAX density matrix=1.00D-06.
 Requested convergence on             energy=1.00D-06.
 No special actions if energy rises.
 Integral accuracy reduced to 1.0D-05 until final iterations.

 Cycle   1  Pass 0  IDiag  1:
 E= -153.921959964964    
 DIIS: error= 4.10D-02 at cycle   1 NSaved=   1.
 NSaved= 1 IEnMin= 1 EnMin= -153.921959964964     IErMin= 1 ErrMin= 4.10D-02
 ErrMax= 4.10D-02  0.00D+00 EMaxC= 1.00D-01 BMatC= 4.67D-01 BMatP= 4.67D-01
 IDIUse=3 WtCom= 5.90D-01 WtEn= 4.10D-01
 Coeff-Com:  0.100D+01
 Coeff-En:   0.100D+01
 Coeff:      0.100D+01
 Gap=     0.275 Goal=   None    Shift=    0.000
 Gap=     0.178 Goal=   None    Shift=    0.000
 GapD=    0.178 DampG=1.000 DampE=0.500 DampFc=0.5000 IDamp=-1.
 Damping current iteration by 5.00D-01
 RMSDP=5.59D-03 MaxDP=1.80D-01              OVMax= 1.46D-01

 Cycle   2  Pass 0  IDiag  1:
 E= -153.979530013003     Delta-E=       -0.057570048039 Rises=F Damp=T
 DIIS: error= 9.82D-03 at cycle   2 NSaved=   2.
 NSaved= 2 IEnMin= 2 EnMin= -153.979530013003     IErMin= 2 ErrMin= 9.82D-03
 ErrMax= 9.82D-03  0.00D+00 EMaxC= 1.00D-01 BMatC= 4.03D-02 BMatP= 4.67D-01
 IDIUse=3 WtCom= 9.02D-01 WtEn= 9.82D-02
 Coeff-Com: -0.243D+00 0.124D+01
 Coeff-En:   0.000D+00 0.100D+01
 Coeff:     -0.219D+00 0.122D+01
 Gap=     0.252 Goal=   None    Shift=    0.000
 Gap=     0.208 Goal=   None    Shift=    0.000
 RMSDP=1.43D-03 MaxDP=3.77D-02 DE=-5.76D-02 OVMax= 1.01D-01

 Cycle   3  Pass 0  IDiag  1:
 E= -154.025876503816     Delta-E=       -0.046346490813 Rises=F Damp=F
 DIIS: error= 1.14D-02 at cycle   3 NSaved=   3.
 NSaved= 3 IEnMin= 3 EnMin= -154.025876503816     IErMin= 2 ErrMin= 9.82D-03
 ErrMax= 1.14D-02  0.00D+00 EMaxC= 1.00D-01 BMatC= 1.92D-02 BMatP= 4.03D-02
 IDIUse=3 WtCom= 8.86D-01 WtEn= 1.14D-01
 Coeff-Com: -0.149D+00 0.601D+00 0.548D+00
 Coeff-En:   0.000D+00 0.000D+00 0.100D+01
 Coeff:     -0.132D+00 0.533D+00 0.599D+00
 Gap=     0.259 Goal=   None    Shift=    0.000
 Gap=     0.202 Goal=   None    Shift=    0.000
 RMSDP=1.17D-03 MaxDP=4.23D-02 DE=-4.63D-02 OVMax= 6.31D-02

 Cycle   4  Pass 0  IDiag  1:
 E= -154.029739884516     Delta-E=       -0.003863380700 Rises=F Damp=F
 DIIS: error= 6.38D-03 at cycle   4 NSaved=   4.
 NSaved= 4 IEnMin= 4 EnMin= -154.029739884516     IErMin= 4 ErrMin= 6.38D-03
 ErrMax= 6.38D-03  0.00D+00 EMaxC= 1.00D-01 BMatC= 7.51D-03 BMatP= 1.92D-02
 IDIUse=3 WtCom= 9.36D-01 WtEn= 6.38D-02
 Coeff-Com: -0.243D-01 0.561D-01 0.385D+00 0.583D+00
 Coeff-En:   0.000D+00 0.000D+00 0.277D+00 0.723D+00
 Coeff:     -0.228D-01 0.525D-01 0.378D+00 0.592D+00
 Gap=     0.257 Goal=   None    Shift=    0.000
 Gap=     0.207 Goal=   None    Shift=    0.000
 RMSDP=2.39D-04 MaxDP=6.05D-03 DE=-3.86D-03 OVMax= 3.82D-02

 Cycle   5  Pass 0  IDiag  1:
 E= -154.032260446167     Delta-E=       -0.002520561651 Rises=F Damp=F
 DIIS: error= 1.56D-03 at cycle   5 NSaved=   5.
 NSaved= 5 IEnMin= 5 EnMin= -154.032260446167     IErMin= 5 ErrMin= 1.56D-03
 ErrMax= 1.56D-03  0.00D+00 EMaxC= 1.00D-01 BMatC= 3.99D-04 BMatP= 7.51D-03
 IDIUse=3 WtCom= 9.84D-01 WtEn= 1.56D-02
 Coeff-Com:  0.592D-02-0.272D-01 0.420D-01 0.163D+00 0.817D+00
 Coeff-En:   0.000D+00 0.000D+00 0.000D+00 0.000D+00 0.100D+01
 Coeff:      0.583D-02-0.268D-01 0.413D-01 0.160D+00 0.820D+00
 Gap=     0.257 Goal=   None    Shift=    0.000
 Gap=     0.211 Goal=   None    Shift=    0.000
 RMSDP=2.06D-04 MaxDP=7.67D-03 DE=-2.52D-03 OVMax= 1.49D-02

 Cycle   6  Pass 0  IDiag  1:
 E= -154.032660999111     Delta-E=       -0.000400552944 Rises=F Damp=F
 DIIS: error= 1.60D-03 at cycle   6 NSaved=   6.
 NSaved= 6 IEnMin= 6 EnMin= -154.032660999111     IErMin= 5 ErrMin= 1.56D-03
 ErrMax= 1.60D-03  0.00D+00 EMaxC= 1.00D-01 BMatC= 1.89D-04 BMatP= 3.99D-04
 IDIUse=3 WtCom= 9.84D-01 WtEn= 1.56D-02
 Coeff-Com:  0.151D-01-0.385D-01-0.216D+00-0.244D+00 0.255D+00 0.123D+01
 Coeff-En:   0.000D+00 0.000D+00 0.000D+00 0.000D+00 0.000D+00 0.100D+01
 Coeff:      0.149D-01-0.379D-01-0.212D+00-0.240D+00 0.251D+00 0.122D+01
 Gap=     0.260 Goal=   None    Shift=    0.000
 Gap=     0.215 Goal=   None    Shift=    0.000
 RMSDP=3.35D-04 MaxDP=1.21D-02 DE=-4.01D-04 OVMax= 2.66D-02

 Cycle   7  Pass 0  IDiag  1:
 E= -154.033100271196     Delta-E=       -0.000439272086 Rises=F Damp=F
 DIIS: error= 8.14D-04 at cycle   7 NSaved=   7.
 NSaved= 7 IEnMin= 7 EnMin= -154.033100271196     IErMin= 7 ErrMin= 8.14D-04
 ErrMax= 8.14D-04  0.00D+00 EMaxC= 1.00D-01 BMatC= 8.12D-05 BMatP= 1.89D-04
 IDIUse=3 WtCom= 9.92D-01 WtEn= 8.14D-03
 Coeff-Com: -0.268D-02 0.892D-02-0.139D-01-0.116D-01-0.459D+00 0.187D+00
 Coeff-Com:  0.129D+01
 Coeff-En:   0.000D+00 0.000D+00 0.000D+00 0.000D+00 0.000D+00 0.000D+00
 Coeff-En:   0.100D+01
 Coeff:     -0.266D-02 0.885D-02-0.138D-01-0.115D-01-0.455D+00 0.185D+00
 Coeff:      0.129D+01
 Gap=     0.260 Goal=   None    Shift=    0.000
 Gap=     0.219 Goal=   None    Shift=    0.000
 RMSDP=1.78D-04 MaxDP=5.30D-03 DE=-4.39D-04 OVMax= 1.95D-02

 Cycle   8  Pass 0  IDiag  1:
 E= -154.033285626490     Delta-E=       -0.000185355294 Rises=F Damp=F
 DIIS: error= 5.52D-04 at cycle   8 NSaved=   8.
 NSaved= 8 IEnMin= 8 EnMin= -154.033285626490     IErMin= 8 ErrMin= 5.52D-04
 ErrMax= 5.52D-04  0.00D+00 EMaxC= 1.00D-01 BMatC= 2.71D-05 BMatP= 8.12D-05
 IDIUse=3 WtCom= 9.94D-01 WtEn= 5.52D-03
 Coeff-Com: -0.610D-02 0.167D-01 0.607D-01 0.766D-01-0.349D+00-0.225D+00
 Coeff-Com:  0.648D+00 0.778D+00
 Coeff-En:   0.000D+00 0.000D+00 0.000D+00 0.000D+00 0.000D+00 0.000D+00
 Coeff-En:   0.000D+00 0.100D+01
 Coeff:     -0.606D-02 0.166D-01 0.604D-01 0.762D-01-0.347D+00-0.224D+00
 Coeff:      0.645D+00 0.780D+00
 Gap=     0.261 Goal=   None    Shift=    0.000
 Gap=     0.219 Goal=   None    Shift=    0.000
 RMSDP=7.05D-05 MaxDP=2.19D-03 DE=-1.85D-04 OVMax= 8.38D-03

 Cycle   9  Pass 0  IDiag  1:
 E= -154.033327859031     Delta-E=       -0.000042232541 Rises=F Damp=F
 DIIS: error= 2.40D-04 at cycle   9 NSaved=   9.
 NSaved= 9 IEnMin= 9 EnMin= -154.033327859031     IErMin= 9 ErrMin= 2.40D-04
 ErrMax= 2.40D-04  0.00D+00 EMaxC= 1.00D-01 BMatC= 5.69D-06 BMatP= 2.71D-05
 IDIUse=3 WtCom= 9.98D-01 WtEn= 2.40D-03
 Coeff-Com: -0.921D-04 0.308D-04 0.255D-01 0.273D-01 0.650D-01-0.108D+00
 Coeff-Com: -0.347D+00 0.201D+00 0.114D+01
 Coeff-En:   0.000D+00 0.000D+00 0.000D+00 0.000D+00 0.000D+00 0.000D+00
 Coeff-En:   0.000D+00 0.000D+00 0.100D+01
 Coeff:     -0.918D-04 0.307D-04 0.254D-01 0.272D-01 0.649D-01-0.108D+00
 Coeff:     -0.347D+00 0.200D+00 0.114D+01
 Gap=     0.260 Goal=   None    Shift=    0.000
 Gap=     0.220 Goal=   None    Shift=    0.000
 RMSDP=3.91D-05 MaxDP=1.22D-03 DE=-4.22D-05 OVMax= 5.47D-03

 Cycle  10  Pass 0  IDiag  1:
 E= -154.033341288718     Delta-E=       -0.000013429687 Rises=F Damp=F
 DIIS: error= 9.00D-05 at cycle  10 NSaved=  10.
 NSaved=10 IEnMin=10 EnMin= -154.033341288718     IErMin=10 ErrMin= 9.00D-05
 ErrMax= 9.00D-05  0.00D+00 EMaxC= 1.00D-01 BMatC= 5.74D-07 BMatP= 5.69D-06
 IDIUse=1 WtCom= 1.00D+00 WtEn= 0.00D+00
 Coeff-Com:  0.776D-03-0.195D-02-0.660D-02-0.892D-02 0.337D-01 0.230D-01
 Coeff-Com: -0.853D-01-0.105D+00 0.568D-01 0.109D+01
 Coeff:      0.776D-03-0.195D-02-0.660D-02-0.892D-02 0.337D-01 0.230D-01
 Coeff:     -0.853D-01-0.105D+00 0.568D-01 0.109D+01
 Gap=     0.260 Goal=   None    Shift=    0.000
 Gap=     0.220 Goal=   None    Shift=    0.000
 RMSDP=1.62D-05 MaxDP=5.17D-04 DE=-1.34D-05 OVMax= 2.01D-03

 Cycle  11  Pass 0  IDiag  1:
 E= -154.033342973613     Delta-E=       -0.000001684896 Rises=F Damp=F
 DIIS: error= 3.11D-05 at cycle  11 NSaved=  11.
 NSaved=11 IEnMin=11 EnMin= -154.033342973613     IErMin=11 ErrMin= 3.11D-05
 ErrMax= 3.11D-05  0.00D+00 EMaxC= 1.00D-01 BMatC= 6.69D-08 BMatP= 5.74D-07
 IDIUse=1 WtCom= 1.00D+00 WtEn= 0.00D+00
 Coeff-Com: -0.140D-03 0.331D-03-0.158D-02-0.109D-02-0.652D-02 0.128D-02
 Coeff-Com:  0.399D-01-0.160D-01-0.134D+00-0.114D+00 0.123D+01
 Coeff:     -0.140D-03 0.331D-03-0.158D-02-0.109D-02-0.652D-02 0.128D-02
 Coeff:      0.399D-01-0.160D-01-0.134D+00-0.114D+00 0.123D+01
 Gap=     0.260 Goal=   None    Shift=    0.000
 Gap=     0.220 Goal=   None    Shift=    0.000
 RMSDP=6.36D-06 MaxDP=1.87D-04 DE=-1.68D-06 OVMax= 7.73D-04

 Initial convergence to 1.0D-05 achieved.  Increase integral accuracy.
 Cycle  12  Pass 1  IDiag  1:
 E= -154.033325295367     Delta-E=        0.000017678246 Rises=F Damp=F
 DIIS: error= 3.67D-05 at cycle   1 NSaved=   1.
 NSaved= 1 IEnMin= 1 EnMin= -154.033325295367     IErMin= 1 ErrMin= 3.67D-05
 ErrMax= 3.67D-05  0.00D+00 EMaxC= 1.00D-01 BMatC= 3.62D-07 BMatP= 3.62D-07
 IDIUse=1 WtCom= 1.00D+00 WtEn= 0.00D+00
 Coeff-Com:  0.100D+01
 Coeff:      0.100D+01
 Gap=     0.260 Goal=   None    Shift=    0.000
 Gap=     0.220 Goal=   None    Shift=    0.000
 RMSDP=6.36D-06 MaxDP=1.87D-04 DE= 1.77D-05 OVMax= 9.34D-05

 Cycle  13  Pass 1  IDiag  1:
 E= -154.033325361049     Delta-E=       -0.000000065682 Rises=F Damp=F
 DIIS: error= 7.00D-06 at cycle   2 NSaved=   2.
 NSaved= 2 IEnMin= 2 EnMin= -154.033325361049     IErMin= 2 ErrMin= 7.00D-06
 ErrMax= 7.00D-06  0.00D+00 EMaxC= 1.00D-01 BMatC= 9.06D-09 BMatP= 3.62D-07
 IDIUse=1 WtCom= 1.00D+00 WtEn= 0.00D+00
 Coeff-Com: -0.514D-01 0.105D+01
 Coeff:     -0.514D-01 0.105D+01
 Gap=     0.260 Goal=   None    Shift=    0.000
 Gap=     0.220 Goal=   None    Shift=    0.000
 RMSDP=7.27D-07 MaxDP=2.22D-05 DE=-6.57D-08 OVMax= 6.99D-05

 Cycle  14  Pass 1  IDiag  1:
 E= -154.033325365328     Delta-E=       -0.000000004279 Rises=F Damp=F
 DIIS: error= 6.81D-06 at cycle   3 NSaved=   3.
 NSaved= 3 IEnMin= 3 EnMin= -154.033325365328     IErMin= 3 ErrMin= 6.81D-06
 ErrMax= 6.81D-06  0.00D+00 EMaxC= 1.00D-01 BMatC= 8.58D-09 BMatP= 9.06D-09
 IDIUse=1 WtCom= 1.00D+00 WtEn= 0.00D+00
 Coeff-Com: -0.482D-01 0.542D+00 0.506D+00
 Coeff:     -0.482D-01 0.542D+00 0.506D+00
 Gap=     0.260 Goal=   None    Shift=    0.000
 Gap=     0.220 Goal=   None    Shift=    0.000
 RMSDP=3.26D-07 MaxDP=8.48D-06 DE=-4.28D-09 OVMax= 2.70D-05

 Cycle  15  Pass 1  IDiag  1:
 E= -154.033325367900     Delta-E=       -0.000000002572 Rises=F Damp=F
 DIIS: error= 2.94D-06 at cycle   4 NSaved=   4.
 NSaved= 4 IEnMin= 4 EnMin= -154.033325367900     IErMin= 4 ErrMin= 2.94D-06
 ErrMax= 2.94D-06  0.00D+00 EMaxC= 1.00D-01 BMatC= 1.02D-09 BMatP= 8.58D-09
 IDIUse=1 WtCom= 1.00D+00 WtEn= 0.00D+00
 Coeff-Com: -0.320D-02-0.642D-01 0.136D+00 0.931D+00
 Coeff:     -0.320D-02-0.642D-01 0.136D+00 0.931D+00
 Gap=     0.260 Goal=   None    Shift=    0.000
 Gap=     0.220 Goal=   None    Shift=    0.000
 RMSDP=2.27D-07 MaxDP=6.22D-06 DE=-2.57D-09 OVMax= 2.95D-05

 Cycle  16  Pass 1  IDiag  1:
 E= -154.033325369164     Delta-E=       -0.000000001264 Rises=F Damp=F
 DIIS: error= 3.56D-06 at cycle   5 NSaved=   5.
 NSaved= 5 IEnMin= 5 EnMin= -154.033325369164     IErMin= 4 ErrMin= 2.94D-06
 ErrMax= 3.56D-06  0.00D+00 EMaxC= 1.00D-01 BMatC= 5.54D-10 BMatP= 1.02D-09
 IDIUse=1 WtCom= 1.00D+00 WtEn= 0.00D+00
 Coeff-Com:  0.917D-02-0.143D+00-0.101D+00 0.424D+00 0.811D+00
 Coeff:      0.917D-02-0.143D+00-0.101D+00 0.424D+00 0.811D+00
 Gap=     0.260 Goal=   None    Shift=    0.000
 Gap=     0.220 Goal=   None    Shift=    0.000
 RMSDP=2.46D-07 MaxDP=7.77D-06 DE=-1.26D-09 OVMax= 3.19D-05

 Cycle  17  Pass 1  IDiag  1:
 E= -154.033325369846     Delta-E=       -0.000000000682 Rises=F Damp=F
 DIIS: error= 1.75D-06 at cycle   6 NSaved=   6.
 NSaved= 6 IEnMin= 6 EnMin= -154.033325369846     IErMin= 6 ErrMin= 1.75D-06
 ErrMax= 1.75D-06  0.00D+00 EMaxC= 1.00D-01 BMatC= 1.98D-10 BMatP= 5.54D-10
 IDIUse=1 WtCom= 1.00D+00 WtEn= 0.00D+00
 Coeff-Com:  0.667D-02-0.488D-01-0.141D+00-0.218D+00 0.329D+00 0.107D+01
 Coeff:      0.667D-02-0.488D-01-0.141D+00-0.218D+00 0.329D+00 0.107D+01
 Gap=     0.260 Goal=   None    Shift=    0.000
 Gap=     0.220 Goal=   None    Shift=    0.000
 RMSDP=2.07D-07 MaxDP=5.01D-06 DE=-6.82D-10 OVMax= 2.69D-05

 Cycle  18  Pass 1  IDiag  1:
 E= -154.033325370303     Delta-E=       -0.000000000457 Rises=F Damp=F
 DIIS: error= 9.91D-07 at cycle   7 NSaved=   7.
 NSaved= 7 IEnMin= 7 EnMin= -154.033325370303     IErMin= 7 ErrMin= 9.91D-07
 ErrMax= 9.91D-07  0.00D+00 EMaxC= 1.00D-01 BMatC= 5.87D-11 BMatP= 1.98D-10
 IDIUse=1 WtCom= 1.00D+00 WtEn= 0.00D+00
 Coeff-Com: -0.188D-02 0.415D-01 0.114D-01-0.178D+00-0.271D+00 0.267D+00
 Coeff-Com:  0.113D+01
 Coeff:     -0.188D-02 0.415D-01 0.114D-01-0.178D+00-0.271D+00 0.267D+00
 Coeff:      0.113D+01
 Gap=     0.260 Goal=   None    Shift=    0.000
 Gap=     0.220 Goal=   None    Shift=    0.000
 RMSDP=1.44D-07 MaxDP=3.92D-06 DE=-4.57D-10 OVMax= 1.89D-05

 Cycle  19  Pass 1  IDiag  1:
 E= -154.033325370443     Delta-E=       -0.000000000141 Rises=F Damp=F
 DIIS: error= 4.65D-07 at cycle   8 NSaved=   8.
 NSaved= 8 IEnMin= 8 EnMin= -154.033325370443     IErMin= 8 ErrMin= 4.65D-07
 ErrMax= 4.65D-07  0.00D+00 EMaxC= 1.00D-01 BMatC= 2.13D-11 BMatP= 5.87D-11
 IDIUse=1 WtCom= 1.00D+00 WtEn= 0.00D+00
 Coeff-Com: -0.303D-02 0.347D-01 0.576D-01-0.104D-01-0.251D+00-0.187D+00
 Coeff-Com:  0.521D+00 0.839D+00
 Coeff:     -0.303D-02 0.347D-01 0.576D-01-0.104D-01-0.251D+00-0.187D+00
 Coeff:      0.521D+00 0.839D+00
 Gap=     0.260 Goal=   None    Shift=    0.000
 Gap=     0.220 Goal=   None    Shift=    0.000
 RMSDP=5.33D-08 MaxDP=1.30D-06 DE=-1.41D-10 OVMax= 7.36D-06

 Cycle  20  Pass 1  IDiag  1:
 E= -154.033325370472     Delta-E=       -0.000000000029 Rises=F Damp=F
 DIIS: error= 1.52D-07 at cycle   9 NSaved=   9.
 NSaved= 9 IEnMin= 9 EnMin= -154.033325370472     IErMin= 9 ErrMin= 1.52D-07
 ErrMax= 1.52D-07  0.00D+00 EMaxC= 1.00D-01 BMatC= 4.89D-12 BMatP= 2.13D-11
 IDIUse=1 WtCom= 1.00D+00 WtEn= 0.00D+00
 Coeff-Com: -0.297D-03-0.464D-02 0.186D-01 0.621D-01 0.796D-02-0.146D+00
 Coeff-Com: -0.270D+00 0.284D+00 0.105D+01
 Coeff:     -0.297D-03-0.464D-02 0.186D-01 0.621D-01 0.796D-02-0.146D+00
 Coeff:     -0.270D+00 0.284D+00 0.105D+01
 Gap=     0.260 Goal=   None    Shift=    0.000
 Gap=     0.220 Goal=   None    Shift=    0.000
 RMSDP=3.29D-08 MaxDP=8.34D-07 DE=-2.86D-11 OVMax= 3.81D-06

 Cycle  21  Pass 1  IDiag  1:
 E= -154.033325370479     Delta-E=       -0.000000000007 Rises=F Damp=F
 DIIS: error= 4.97D-08 at cycle  10 NSaved=  10.
 NSaved=10 IEnMin=10 EnMin= -154.033325370479     IErMin=10 ErrMin= 4.97D-08
 ErrMax= 4.97D-08  0.00D+00 EMaxC= 1.00D-01 BMatC= 4.72D-13 BMatP= 4.89D-12
 IDIUse=1 WtCom= 1.00D+00 WtEn= 0.00D+00
 Coeff-Com:  0.439D-03-0.575D-02-0.874D-02 0.177D-02 0.415D-01 0.302D-01
 Coeff-Com: -0.863D-01-0.140D+00 0.402D-01 0.113D+01
 Coeff:      0.439D-03-0.575D-02-0.874D-02 0.177D-02 0.415D-01 0.302D-01
 Coeff:     -0.863D-01-0.140D+00 0.402D-01 0.113D+01
 Gap=     0.260 Goal=   None    Shift=    0.000
 Gap=     0.220 Goal=   None    Shift=    0.000
 RMSDP=1.14D-08 MaxDP=3.39D-07 DE=-7.22D-12 OVMax= 1.01D-06

 Cycle  22  Pass 1  IDiag  1:
 E= -154.033325370480     Delta-E=       -0.000000000001 Rises=F Damp=F
 DIIS: error= 2.64D-08 at cycle  11 NSaved=  11.
 NSaved=11 IEnMin=11 EnMin= -154.033325370480     IErMin=11 ErrMin= 2.64D-08
 ErrMax= 2.64D-08  0.00D+00 EMaxC= 1.00D-01 BMatC= 1.01D-13 BMatP= 4.72D-13
 IDIUse=1 WtCom= 1.00D+00 WtEn= 0.00D+00
 Coeff-Com: -0.569D-04 0.213D-02-0.973D-03-0.131D-01-0.502D-02 0.150D-01
 Coeff-Com:  0.681D-01-0.255D-01-0.178D+00-0.231D+00 0.137D+01
 Coeff:     -0.569D-04 0.213D-02-0.973D-03-0.131D-01-0.502D-02 0.150D-01
 Coeff:      0.681D-01-0.255D-01-0.178D+00-0.231D+00 0.137D+01
 Gap=     0.260 Goal=   None    Shift=    0.000
 Gap=     0.220 Goal=   None    Shift=    0.000
 RMSDP=6.59D-09 MaxDP=2.02D-07 DE=-7.96D-13 OVMax= 5.82D-07

 SCF Done:  E(UM062X) =  -154.033325370     A.U. after   22 cycles
            NFock= 22  Conv=0.66D-08     -V/T= 2.0064
 <Sx>= 0.0000 <Sy>= 0.0000 <Sz>= 0.5000 <S**2>= 0.8133 S= 0.5312
 <L.S>= 0.000000000000E+00
 KE= 1.530575634814D+02 PE=-5.218187993508D+02 EE= 1.321638418838D+02
 Annihilation of the first spin contaminant:
 S**2 before annihilation     0.8133,   after     0.7525
 Leave Link  502 at Fri Sep 25 23:35:08 2020, MaxMem=   268435456 cpu:             168.4 elap:              25.8
 (Enter /applis/site/cecic/gaussian16/B.01/nehalem/g16/l601.exe)
 Copying SCF densities to generalized density rwf, IOpCl= 1 IROHF=0.

 **********************************************************************

            Population analysis using the SCF Density.

 **********************************************************************

 Alpha  occ. eigenvalues --  -10.58616 -10.58525 -10.56695 -10.56629  -0.92167
 Alpha  occ. eigenvalues --   -0.85126  -0.74706  -0.57786  -0.54730  -0.53764
 Alpha  occ. eigenvalues --   -0.43189  -0.41621  -0.31285  -0.29391
 Alpha virt. eigenvalues --   -0.03343   0.06122   0.08947   0.11604   0.15141
 Alpha virt. eigenvalues --    0.17490   0.20444   0.24208   0.27593   0.30460
 Alpha virt. eigenvalues --    0.31184   0.33195   0.34777   0.36250   0.40208
 Alpha virt. eigenvalues --    0.43370   0.43830   0.47807   0.49454   0.50191
 Alpha virt. eigenvalues --    0.52676   0.52738   0.56251   0.59036   0.59678
 Alpha virt. eigenvalues --    0.63539   0.65484   0.68717   0.72132   0.79368
 Alpha virt. eigenvalues --    0.80012   0.80373   0.85276   0.90539   0.91961
 Alpha virt. eigenvalues --    0.92836   0.94032   0.99260   1.05185   1.07963
 Alpha virt. eigenvalues --    1.08754   1.15743   1.17818   1.23072   1.26311
 Alpha virt. eigenvalues --    1.28514   1.32528   1.33719   1.35071   1.35310
 Alpha virt. eigenvalues --    1.42138   1.46423   1.54112   1.55902   1.72842
 Alpha virt. eigenvalues --    1.80488   1.99032   2.06854   2.11619   2.21376
 Alpha virt. eigenvalues --    2.22116   2.22807   2.23481   2.34679   2.37368
 Alpha virt. eigenvalues --    2.38253   2.41001   2.44270   2.44680   2.48396
 Alpha virt. eigenvalues --    2.50300   2.54190   2.55548   2.62272   2.64580
 Alpha virt. eigenvalues --    2.67134   2.71603   2.72149   2.73644   2.75458
 Alpha virt. eigenvalues --    2.77644   2.79085   2.79765   2.80182   2.84352
 Alpha virt. eigenvalues --    2.85319   2.86596   2.87878   2.93204   2.93564
 Alpha virt. eigenvalues --    2.96212   2.99253   3.01769   3.07788   3.09301
 Alpha virt. eigenvalues --    3.15595   3.17004   3.19513   3.22538   3.25710
 Alpha virt. eigenvalues --    3.32620   3.34856   3.35354   3.37000   3.41061
 Alpha virt. eigenvalues --    3.42479   3.49998   3.50699   3.55814   3.60712
 Alpha virt. eigenvalues --    3.67942   3.68780   3.69611   3.78483   3.78984
 Alpha virt. eigenvalues --    3.87731   3.91684   3.92772   3.95545   3.96848
 Alpha virt. eigenvalues --    4.11972   4.14304   4.21174   4.28261   4.29267
 Alpha virt. eigenvalues --    4.56621   4.70912   4.73872   4.74750   4.81393
 Alpha virt. eigenvalues --    4.81833   4.89128   4.91638   4.97116   4.97539
 Alpha virt. eigenvalues --    5.13480   5.20291   5.24314   5.46292   5.48542
 Alpha virt. eigenvalues --    5.52455   5.77502   5.87202   6.11312   7.84652
 Alpha virt. eigenvalues --   13.06873  14.27727  14.85763
  Beta  occ. eigenvalues --  -10.58181 -10.57699 -10.56829 -10.56817  -0.91187
  Beta  occ. eigenvalues --   -0.84006  -0.72987  -0.56941  -0.53577  -0.52761
  Beta  occ. eigenvalues --   -0.42536  -0.36070  -0.30191
  Beta virt. eigenvalues --   -0.08196  -0.02002   0.07970   0.08655   0.11100
  Beta virt. eigenvalues --    0.14759   0.17889   0.20146   0.23598   0.27292
  Beta virt. eigenvalues --    0.30550   0.31135   0.33158   0.35038   0.36384
  Beta virt. eigenvalues --    0.39062   0.43623   0.43686   0.48218   0.49135
  Beta virt. eigenvalues --    0.49617   0.53012   0.53340   0.56015   0.59539
  Beta virt. eigenvalues --    0.60045   0.64224   0.64849   0.68490   0.72842
  Beta virt. eigenvalues --    0.79933   0.79997   0.80244   0.85268   0.90632
  Beta virt. eigenvalues --    0.91897   0.92774   0.94831   0.99607   1.05456
  Beta virt. eigenvalues --    1.07867   1.08705   1.15745   1.18025   1.23055
  Beta virt. eigenvalues --    1.26464   1.28694   1.32580   1.33155   1.35017
  Beta virt. eigenvalues --    1.35177   1.42654   1.46050   1.54378   1.56125
  Beta virt. eigenvalues --    1.72484   1.80420   1.99377   2.07361   2.12317
  Beta virt. eigenvalues --    2.21957   2.22328   2.24032   2.24508   2.35268
  Beta virt. eigenvalues --    2.38589   2.39451   2.41125   2.45143   2.45289
  Beta virt. eigenvalues --    2.48819   2.50942   2.56448   2.56703   2.62648
  Beta virt. eigenvalues --    2.65881   2.67428   2.72303   2.72596   2.74632
  Beta virt. eigenvalues --    2.75326   2.78187   2.80092   2.80990   2.81216
  Beta virt. eigenvalues --    2.84703   2.86688   2.88522   2.89443   2.94004
  Beta virt. eigenvalues --    2.94545   2.97095   3.01712   3.01915   3.08689
  Beta virt. eigenvalues --    3.11325   3.16172   3.17492   3.22508   3.23709
  Beta virt. eigenvalues --    3.26926   3.32537   3.35693   3.35728   3.37194
  Beta virt. eigenvalues --    3.42344   3.43563   3.49884   3.50907   3.57041
  Beta virt. eigenvalues --    3.60880   3.68696   3.69225   3.69776   3.78700
  Beta virt. eigenvalues --    3.79947   3.87873   3.91848   3.92618   3.95381
  Beta virt. eigenvalues --    3.97488   4.12683   4.14507   4.22004   4.28650
  Beta virt. eigenvalues --    4.30140   4.58390   4.71287   4.74395   4.75240
  Beta virt. eigenvalues --    4.82090   4.83568   4.89107   4.92516   4.95968
  Beta virt. eigenvalues --    4.98789   5.14539   5.22051   5.25379   5.46073
  Beta virt. eigenvalues --    5.49205   5.52584   5.78175   5.89112   6.11910
  Beta virt. eigenvalues --    7.84773  13.07060  14.27817  14.86194
          Condensed to atoms (all electrons):
               1          2          3          4          5          6
     1  C    5.177753  -0.149369  -0.007342   0.395473   0.421264  -0.000250
     2  C   -0.149369   5.003452   0.747121   0.006420  -0.006996  -0.071603
     3  C   -0.007342   0.747121   5.255531   0.000359  -0.000300   0.397697
     4  H    0.395473   0.006420   0.000359   0.541552  -0.032913   0.000091
     5  H    0.421264  -0.006996  -0.000300  -0.032913   0.535981  -0.000043
     6  H   -0.000250  -0.071603   0.397697   0.000091  -0.000043   0.509378
     7  C    0.642922   0.277552  -0.127650  -0.055955  -0.065377  -0.005789
               7
     1  C    0.642922
     2  C    0.277552
     3  C   -0.127650
     4  H   -0.055955
     5  H   -0.065377
     6  H   -0.005789
     7  C    5.245729
          Atomic-Atomic Spin Densities.
               1          2          3          4          5          6
     1  C   -0.196882  -0.017220  -0.002126  -0.015363   0.032377  -0.000417
     2  C   -0.017220  -0.288851  -0.054420   0.012786  -0.013247  -0.008065
     3  C   -0.002126  -0.054420   1.029432   0.000935  -0.000661   0.007640
     4  H   -0.015363   0.012786   0.000935   0.057342  -0.010128   0.000055
     5  H    0.032377  -0.013247  -0.000661  -0.010128   0.053424  -0.000034
     6  H   -0.000417  -0.008065   0.007640   0.000055  -0.000034   0.034986
     7  C    0.008720  -0.068997  -0.051312  -0.002993  -0.020706  -0.015352
               7
     1  C    0.008720
     2  C   -0.068997
     3  C   -0.051312
     4  H   -0.002993
     5  H   -0.020706
     6  H   -0.015352
     7  C    0.747603
 Mulliken charges and spin densities:
               1          2
     1  C   -0.480451  -0.190910
     2  C    0.193423  -0.438015
     3  C   -0.265416   0.929489
     4  H    0.144973   0.042634
     5  H    0.148384   0.041025
     6  H    0.170520   0.018813
     7  C    0.088567   0.596963
 Sum of Mulliken charges =  -0.00000   1.00000
 Mulliken charges and spin densities with hydrogens summed into heavy atoms:
               1          2
     1  C   -0.187094  -0.107251
     2  C    0.193423  -0.438015
     3  C   -0.094896   0.948302
     7  C    0.088567   0.596963
 Electronic spatial extent (au):  <R**2>=            640.1076
 Charge=             -0.0000 electrons
 Dipole moment (field-independent basis, Debye):
    X=              0.7462    Y=              0.0067    Z=             -1.1311  Tot=              1.3551
 Quadrupole moment (field-independent basis, Debye-Ang):
   XX=            -22.7212   YY=            -26.0920   ZZ=            -23.6944
   XY=              0.0240   XZ=              3.5798   YZ=              0.0324
 Traceless Quadrupole moment (field-independent basis, Debye-Ang):
   XX=              1.4480   YY=             -1.9228   ZZ=              0.4748
   XY=              0.0240   XZ=              3.5798   YZ=              0.0324
 Octapole moment (field-independent basis, Debye-Ang**2):
  XXX=             -0.5400  YYY=             -0.0137  ZZZ=           -129.1952  XYY=             -0.5696
  XXY=              0.0053  XXZ=            -44.7670  XZZ=             16.1147  YZZ=              0.1459
  YYZ=            -49.1111  XYZ=              0.0370
 Hexadecapole moment (field-independent basis, Debye-Ang**3):
 XXXX=            -35.3156 YYYY=            -30.6390 ZZZZ=           -849.4102 XXXY=             -0.0024
 XXXZ=             -2.1892 YYYX=             -0.0321 YYYZ=             -0.0607 ZZZX=             69.4243
 ZZZY=              0.6312 XXYY=            -11.6783 XXZZ=           -145.5734 YYZZ=           -167.5756
 XXYZ=              0.0250 YYXZ=             -2.5021 ZZXY=              0.1811
 N-N= 8.256406861504D+01 E-N=-5.218187995597D+02  KE= 1.530575634814D+02
                          Isotropic Fermi Contact Couplings
        Atom                 a.u.       MegaHertz       Gauss      10(-4) cm-1
     1  C(13)             -0.04074     -45.79567     -16.34103     -15.27579
     2  C(13)             -0.03332     -37.46350     -13.36791     -12.49648
     3  C(13)              0.46705     525.05788     187.35371     175.14046
     4  H(1)               0.01663      74.34369      26.52768      24.79838
     5  H(1)               0.01758      78.59456      28.04449      26.21632
     6  H(1)               0.01436      64.19976      22.90807      21.41474
     7  C(13)              0.08597      96.65181      34.48777      32.23958
 --------------------------------------------------------
       Center         ----  Spin Dipole Couplings  ----
                      3XX-RR        3YY-RR        3ZZ-RR
 --------------------------------------------------------
     1   Atom        0.069626     -0.160596      0.090971
     2   Atom       -0.134079     -0.104585      0.238664
     3   Atom        0.396841     -0.183391     -0.213450
     4   Atom       -0.006987     -0.004997      0.011983
     5   Atom       -0.006597     -0.004928      0.011525
     6   Atom        0.042989     -0.043341      0.000352
     7   Atom        0.427792     -0.141118     -0.286674
 --------------------------------------------------------
                        XY            XZ            YZ
 --------------------------------------------------------
     1   Atom        0.001590      0.001344      0.000029
     2   Atom       -0.000129     -0.028776     -0.000346
     3   Atom        0.003605     -0.486415     -0.003395
     4   Atom       -0.000026      0.002307      0.000021
     5   Atom       -0.000024     -0.002755     -0.000023
     6   Atom        0.000708      0.045329      0.000428
     7   Atom        0.003762      0.040996      0.000286
 --------------------------------------------------------


 ---------------------------------------------------------------------------------
              Anisotropic Spin Dipole Couplings in Principal Axis System
 ---------------------------------------------------------------------------------

       Atom             a.u.   MegaHertz   Gauss  10(-4) cm-1        Axes

              Baa    -0.1606   -21.552    -7.690    -7.189 -0.0069  1.0000 -0.0001
     1 C(13)  Bbb     0.0696     9.333     3.330     3.113  0.9980  0.0069 -0.0626
              Bcc     0.0911    12.219     4.360     4.076  0.0626  0.0005  0.9980
 
              Baa    -0.1363   -18.289    -6.526    -6.100  0.9971  0.0049  0.0765
     2 C(13)  Bbb    -0.1046   -14.034    -5.008    -4.681 -0.0049  1.0000  0.0006
              Bcc     0.2409    32.323    11.534    10.782 -0.0765 -0.0010  0.9971
 
              Baa    -0.4825   -64.749   -23.104   -21.598  0.4840  0.0041  0.8750
     3 C(13)  Bbb    -0.1834   -24.612    -8.782    -8.210 -0.0069  1.0000 -0.0009
              Bcc     0.6659    89.361    31.886    29.808  0.8750  0.0056 -0.4840
 
              Baa    -0.0073    -3.875    -1.383    -1.293  0.9928  0.0124 -0.1190
     4 H(1)   Bbb    -0.0050    -2.666    -0.951    -0.889 -0.0124  0.9999  0.0005
              Bcc     0.0123     6.541     2.334     2.182  0.1190  0.0010  0.9929
 
              Baa    -0.0070    -3.739    -1.334    -1.247  0.9890  0.0131  0.1471
     5 H(1)   Bbb    -0.0049    -2.629    -0.938    -0.877 -0.0131  0.9999 -0.0008
              Bcc     0.0119     6.368     2.272     2.124 -0.1471 -0.0011  0.9891
 
              Baa    -0.0433   -23.128    -8.253    -7.715 -0.0067  1.0000 -0.0028
     6 H(1)   Bbb    -0.0284   -15.164    -5.411    -5.058 -0.5359 -0.0012  0.8443
              Bcc     0.0718    38.292    13.664    12.773  0.8443  0.0072  0.5359
 
              Baa    -0.2890   -38.784   -13.839   -12.937 -0.0571 -0.0005  0.9984
     7 C(13)  Bbb    -0.1411   -18.940    -6.758    -6.318 -0.0066  1.0000  0.0001
              Bcc     0.4302    57.724    20.597    19.255  0.9983  0.0066  0.0571
 

 ---------------------------------------------------------------------------------

 No NMR shielding tensors so no spin-rotation constants.
 Leave Link  601 at Fri Sep 25 23:35:08 2020, MaxMem=   268435456 cpu:               2.0 elap:               0.4
 (Enter /applis/site/cecic/gaussian16/B.01/nehalem/g16/l701.exe)
 ... and contract with generalized density number  0.
 Compute integral first derivatives.
 Leave Link  701 at Fri Sep 25 23:35:09 2020, MaxMem=   268435456 cpu:               1.3 elap:               0.2
 (Enter /applis/site/cecic/gaussian16/B.01/nehalem/g16/l702.exe)
 L702 exits ... SP integral derivatives will be done elsewhere.
 Leave Link  702 at Fri Sep 25 23:35:09 2020, MaxMem=   268435456 cpu:               0.5 elap:               0.1
 (Enter /applis/site/cecic/gaussian16/B.01/nehalem/g16/l703.exe)
 Integral derivatives from FoFJK, PRISM(SPDF).
 Compute integral first derivatives, UseDBF=F ICtDFT=           0.
 Calling FoFJK, ICntrl=      2127 FMM=F ISym2X=0 I1Cent= 0 IOpClX= 1 NMat=1 NMatS=1 NMatT=0.
 FoFJK:  IHMeth= 1 ICntrl=    2127 DoSepK=F KAlg= 0 I1Cent=           0 FoldK=F
 IRaf=         0 NMat=       1 IRICut=       1 DoRegI=T DoRafI=F ISym2E= 0 IDoP0=0 IntGTp=1.
 FoFCou: FMM=F IPFlag=           0 FMFlag=      100000 FMFlg1=         800
         NFxFlg=           0 DoJE=F BraDBF=F KetDBF=F FulRan=T
         wScrn=  0.000000 ICntrl=      2127 IOpCl=  1 I1Cent=           0 NGrid=           0
         NMat0=    1 NMatS0=      1 NMatT0=    0 NMatD0=    1 NMtDS0=    0 NMtDT0=    0
 Symmetry not used in FoFCou.
 Leave Link  703 at Fri Sep 25 23:35:11 2020, MaxMem=   268435456 cpu:              21.3 elap:               2.7
 (Enter /applis/site/cecic/gaussian16/B.01/nehalem/g16/l716.exe)
 Dipole        = 2.93570814D-01 2.62822504D-03-4.45020077D-01
 -------------------------------------------------------------------
 Center     Atomic                   Forces (Hartrees/Bohr)
 Number     Number              X              Y              Z
 -------------------------------------------------------------------
      1        6           0.000567445    0.000000634    0.003385420
      2        6          -0.010373478   -0.000076249    0.051211338
      3        6           0.023250139    0.000208326   -0.059382812
      4        1          -0.002260753   -0.000001982   -0.001986453
      5        1           0.002126211    0.000005045   -0.001826052
      6        1          -0.010175557   -0.000098604    0.015652206
      7        6          -0.003134006   -0.000037171   -0.007053647
 -------------------------------------------------------------------
 Cartesian Forces:  Max     0.059382812 RMS     0.018560022
 Leave Link  716 at Fri Sep 25 23:35:12 2020, MaxMem=   268435456 cpu:               0.5 elap:               0.1
 (Enter /applis/site/cecic/gaussian16/B.01/nehalem/g16/l103.exe)

 GradGradGradGradGradGradGradGradGradGradGradGradGradGradGradGradGradGrad
 Berny optimization.
 FormGI is forming the generalized inverse of G from B-inverse, IUseBI=4.
 Internal  Forces:  Max     0.043724949 RMS     0.014321413
 Search for a local minimum.
 Step number   1 out of a maximum of  100
 All quantities printed in internal units (Hartrees-Bohrs-Radians)
 RMS Force = .14321D-01 SwitMx=.10000D-02 MixMth= 1
 Mixed Optimization -- RFO/linear search
 Second derivative matrix not updated -- first step.
 The second derivative matrix:
                          R1        R2        R3        R4        R5
           R1           0.35466
           R2           0.00000   0.35466
           R3           0.00000   0.00000   0.65763
           R4           0.00000   0.00000   0.00000   0.65772
           R5           0.00000   0.00000   0.00000   0.00000   0.72575
           R6           0.00000   0.00000   0.00000   0.00000   0.00000
           A1           0.00000   0.00000   0.00000   0.00000   0.00000
           A2           0.00000   0.00000   0.00000   0.00000   0.00000
           A3           0.00000   0.00000   0.00000   0.00000   0.00000
           A4           0.00000   0.00000   0.00000   0.00000   0.00000
           A5           0.00000   0.00000   0.00000   0.00000   0.00000
           A6           0.00000   0.00000   0.00000   0.00000   0.00000
           A7           0.00000   0.00000   0.00000   0.00000   0.00000
           A8           0.00000   0.00000   0.00000   0.00000   0.00000
           D1           0.00000   0.00000   0.00000   0.00000   0.00000
           D2           0.00000   0.00000   0.00000   0.00000   0.00000
           D3           0.00000   0.00000   0.00000   0.00000   0.00000
                          R6        A1        A2        A3        A4
           R6           0.35464
           A1           0.00000   0.16000
           A2           0.00000   0.00000   0.16000
           A3           0.00000   0.00000   0.00000   0.16000
           A4           0.00000   0.00000   0.00000   0.00000   0.16000
           A5           0.00000   0.00000   0.00000   0.00000   0.00000
           A6           0.00000   0.00000   0.00000   0.00000   0.00000
           A7           0.00000   0.00000   0.00000   0.00000   0.00000
           A8           0.00000   0.00000   0.00000   0.00000   0.00000
           D1           0.00000   0.00000   0.00000   0.00000   0.00000
           D2           0.00000   0.00000   0.00000   0.00000   0.00000
           D3           0.00000   0.00000   0.00000   0.00000   0.00000
                          A5        A6        A7        A8        D1
           A5           0.03655
           A6           0.00000   0.03655
           A7           0.00000   0.00000   0.03655
           A8           0.00000   0.00000   0.00000   0.03655
           D1           0.00000   0.00000   0.00000   0.00000   0.00230
           D2           0.00000   0.00000   0.00000   0.00000   0.00000
           D3           0.00000   0.00000   0.00000   0.00000   0.00000
                          D2        D3
           D2           0.00230
           D3           0.00000   0.00309
 ITU=  0
     Eigenvalues ---    0.00230   0.00282   0.03491   0.03655   0.03655
     Eigenvalues ---    0.03655   0.16000   0.16000   0.16000   0.35464
     Eigenvalues ---    0.35466   0.35466   0.65763   0.65772   0.72575
 RFO step:  Lambda=-1.22554863D-02 EMin= 2.30000000D-03
 Linear search not attempted -- first point.
 Iteration  1 RMS(Cart)=  0.12284512 RMS(Int)=  0.01797006
 Iteration  2 RMS(Cart)=  0.02005067 RMS(Int)=  0.00043066
 Iteration  3 RMS(Cart)=  0.00058801 RMS(Int)=  0.00000737
 Iteration  4 RMS(Cart)=  0.00000032 RMS(Int)=  0.00000736
 ITry= 1 IFail=0 DXMaxC= 3.42D-01 DCOld= 1.00D+10 DXMaxT= 3.00D-01 DXLimC= 3.00D+00 Rises=F
 Variable       Old X    -DE/DX   Delta X   Delta X   Delta X     New X
                                 (Linear)    (Quad)   (Total)
    R1        2.04926  -0.00097   0.00000  -0.00263  -0.00263   2.04662
    R2        2.04926  -0.00093   0.00000  -0.00253  -0.00253   2.04673
    R3        2.46652   0.00043   0.00000   0.00064   0.00064   2.46716
    R4        2.46645  -0.04372   0.00000  -0.06526  -0.06526   2.40119
    R5        2.42186   0.00748   0.00000   0.01014   0.01014   2.43200
    R6        2.04928  -0.00099   0.00000  -0.00271  -0.00271   2.04657
    A1        2.09439  -0.00375   0.00000  -0.02179  -0.02179   2.07260
    A2        2.09425   0.00209   0.00000   0.01212   0.01212   2.10637
    A3        2.09454   0.00167   0.00000   0.00967   0.00967   2.10421
    A4        2.09448   0.03820   0.00000   0.22178   0.22178   2.31627
    A5        3.14137   0.00590   0.00000   0.12093   0.12093   3.26230
    A6        3.14115  -0.00064   0.00000  -0.01312  -0.01312   3.12803
    A7        3.14159  -0.00000   0.00000  -0.00010  -0.00010   3.14148
    A8        3.14160  -0.00000   0.00000  -0.00009  -0.00009   3.14151
    D1        0.00195  -0.00001   0.00000  -0.00094  -0.00095   0.00100
    D2       -3.13972  -0.00001   0.00000  -0.00084  -0.00082  -3.14054
    D3        3.14152   0.00000   0.00000   0.00017   0.00016  -3.14151
         Item               Value     Threshold  Converged?
 Maximum Force            0.043725     0.000450     NO 
 RMS     Force            0.014321     0.000300     NO 
 Maximum Displacement     0.341640     0.001800     NO 
 RMS     Displacement     0.135553     0.001200     NO 
 Predicted change in Energy=-6.551074D-03
 Lowest energy point so far.  Saving SCF results.
 GradGradGradGradGradGradGradGradGradGradGradGradGradGradGradGradGradGrad

 Leave Link  103 at Fri Sep 25 23:35:12 2020, MaxMem=   268435456 cpu:               0.8 elap:               0.2
 (Enter /applis/site/cecic/gaussian16/B.01/nehalem/g16/l202.exe)
                          Input orientation:                          
 ---------------------------------------------------------------------
 Center     Atomic      Atomic             Coordinates (Angstroms)
 Number     Number       Type             X           Y           Z
 ---------------------------------------------------------------------
      1          6           0       -0.016013   -0.000200   -0.021392
      2          6           0        0.129951    0.001184    2.566958
      3          6           0        0.056870    0.000721    3.835508
      4          1           0        0.886791    0.005828   -0.619601
      5          1           0       -0.974767   -0.006678   -0.525195
      6          1           0        0.809032    0.006620    4.614676
      7          6           0        0.048719    0.000414    1.282565
 ---------------------------------------------------------------------
                    Distance matrix (angstroms):
                    1          2          3          4          5
     1  C    0.000000
     2  C    2.592462   0.000000
     3  C    3.857589   1.270654   0.000000
     4  H    1.083027   3.275208   4.531755   0.000000
     5  H    1.083083   3.283576   4.481078   1.863992   0.000000
     6  H    4.708914   2.157390   1.082998   5.234855   5.440624
     7  C    1.305563   1.286959   2.552956   2.078613   2.077395
                    6          7
     6  H    0.000000
     7  C    3.417759   0.000000
 Symmetry turned off by external request.
 Stoichiometry    C4H3(2)
 Framework group  C1[X(C4H3)]
 Deg. of freedom    15
 Full point group                 C1      NOp   1
 Rotational constants (GHZ):         223.3166436           4.2441681           4.1650114
 Leave Link  202 at Fri Sep 25 23:35:12 2020, MaxMem=   268435456 cpu:               0.5 elap:               0.1
 (Enter /applis/site/cecic/gaussian16/B.01/nehalem/g16/l301.exe)
 Standard basis: CC-pVTZ (5D, 7F)
 Ernie: Thresh=  0.10000D-02 Tol=  0.10000D-05 Strict=F.
 Ernie:  12 primitive shells out of 128 were deleted.
   162 basis functions,   259 primitive gaussians,   185 cartesian basis functions
    14 alpha electrons       13 beta electrons
       nuclear repulsion energy        82.8893271006 Hartrees.
 IExCor= 4336 DFT=T Ex+Corr=M062X ExCW=0 ScaHFX=  0.540000
 ScaDFX=  1.000000  1.000000  1.000000  1.000000 ScalE2=  1.000000  1.000000
 IRadAn=      5 IRanWt=     -1 IRanGd=            0 ICorTp=0 IEmpDi=  4
 NAtoms=    7 NActive=    7 NUniq=    7 SFac= 1.00D+00 NAtFMM=   60 NAOKFM=F Big=F
 Integral buffers will be    131072 words long.
 Raffenetti 2 integral format.
 Two-electron integral symmetry is turned off.
 Leave Link  301 at Fri Sep 25 23:35:12 2020, MaxMem=   268435456 cpu:               0.5 elap:               0.1
 (Enter /applis/site/cecic/gaussian16/B.01/nehalem/g16/l302.exe)
 NPDir=0 NMtPBC=     1 NCelOv=     1 NCel=       1 NClECP=     1 NCelD=      1
         NCelK=      1 NCelE2=     1 NClLst=     1 CellRange=     0.0.
 One-electron integrals computed using PRISM.
 NBasis=   162 RedAO= T EigKep=  3.05D-05  NBF=   162
 NBsUse=   162 1.00D-06 EigRej= -1.00D+00 NBFU=   162
 Precomputing XC quadrature grid using
 IXCGrd= 4 IRadAn=           5 IRanWt=          -1 IRanGd=           0 AccXCQ= 0.00D+00.
 Generated NRdTot=       0 NPtTot=           0 NUsed=           0 NTot=          32
 NSgBfM=   185   185   185   185   185 MxSgAt=     7 MxSgA2=     7.
 Leave Link  302 at Fri Sep 25 23:35:12 2020, MaxMem=   268435456 cpu:               1.5 elap:               0.3
 (Enter /applis/site/cecic/gaussian16/B.01/nehalem/g16/l303.exe)
 DipDrv:  MaxL=1.
 Leave Link  303 at Fri Sep 25 23:35:12 2020, MaxMem=   268435456 cpu:               0.6 elap:               0.1
 (Enter /applis/site/cecic/gaussian16/B.01/nehalem/g16/l401.exe)
 Initial guess from the checkpoint file:  "input.chk"
 B after Tr=     0.025173    0.000128   -0.040789
         Rot=    0.999973    0.000088   -0.007358    0.000028 Ang=   0.84 deg.
 Guess basis will be translated and rotated to current coordinates.
 JPrj=2 DoOrth=T DoCkMO=T.
 Initial guess <Sx>= 0.0000 <Sy>= 0.0000 <Sz>= 0.5000 <S**2>= 0.8116 S= 0.5303
 Generating alternative initial guess.
 ExpMin= 1.03D-01 ExpMax= 8.24D+03 ExpMxC= 2.81D+02 IAcc=3 IRadAn=         5 AccDes= 0.00D+00
 Harris functional with IExCor= 1009 and IRadAn=       5 diagonalized for initial guess.
 HarFok:  IExCor= 1009 AccDes= 0.00D+00 IRadAn=         5 IDoV= 1 UseB2=F ITyADJ=14
 ICtDFT=  3500011 ScaDFX=  1.000000  1.000000  1.000000  1.000000
 FoFCou: FMM=F IPFlag=           0 FMFlag=      100000 FMFlg1=           0
         NFxFlg=           0 DoJE=T BraDBF=F KetDBF=T FulRan=T
         wScrn=  0.000000 ICntrl=       500 IOpCl=  0 I1Cent=   200000004 NGrid=           0
         NMat0=    1 NMatS0=      1 NMatT0=    0 NMatD0=    1 NMtDS0=    0 NMtDT0=    0
 Symmetry not used in FoFCou.
 Harris En= -153.990388176989    
 Leave Link  401 at Fri Sep 25 23:35:13 2020, MaxMem=   268435456 cpu:               4.0 elap:               0.5
 (Enter /applis/site/cecic/gaussian16/B.01/nehalem/g16/l502.exe)
 Keep R1 and R2 ints in memory in canonical form, NReq=182448050.
 FoFCou: FMM=F IPFlag=           0 FMFlag=           0 FMFlg1=           0
         NFxFlg=           0 DoJE=F BraDBF=F KetDBF=F FulRan=T
         wScrn=  0.000000 ICntrl=       600 IOpCl=  0 I1Cent=           0 NGrid=           0
         NMat0=    1 NMatS0=  13203 NMatT0=    0 NMatD0=    1 NMtDS0=    0 NMtDT0=    0
 Symmetry not used in FoFCou.
 Two-electron integral symmetry not used.
 UHF open shell SCF:
 Using DIIS extrapolation, IDIIS=  1040.
 NGot=   268435456 LenX=    94031820 LenY=    93997154
 Requested convergence on RMS density matrix=1.00D-08 within 128 cycles.
 Requested convergence on MAX density matrix=1.00D-06.
 Requested convergence on             energy=1.00D-06.
 No special actions if energy rises.
 Integral accuracy reduced to 1.0D-05 until final iterations.

 Cycle   1  Pass 0  IDiag  1:
 E= -154.030518239660    
 DIIS: error= 8.79D-03 at cycle   1 NSaved=   1.
 NSaved= 1 IEnMin= 1 EnMin= -154.030518239660     IErMin= 1 ErrMin= 8.79D-03
 ErrMax= 8.79D-03  0.00D+00 EMaxC= 1.00D-01 BMatC= 4.55D-02 BMatP= 4.55D-02
 IDIUse=3 WtCom= 9.12D-01 WtEn= 8.79D-02
 Coeff-Com:  0.100D+01
 Coeff-En:   0.100D+01
 Coeff:      0.100D+01
 Gap=     1.184 Goal=   None    Shift=    0.000
 Gap=     1.191 Goal=   None    Shift=    0.000
 GapD=    1.184 DampG=2.000 DampE=1.000 DampFc=2.0000 IDamp=-1.
 RMSDP=8.60D-04 MaxDP=2.37D-02              OVMax= 3.91D-02

 Cycle   2  Pass 0  IDiag  1:
 E= -154.041189366116     Delta-E=       -0.010671126457 Rises=F Damp=F
 DIIS: error= 2.26D-03 at cycle   2 NSaved=   2.
 NSaved= 2 IEnMin= 2 EnMin= -154.041189366116     IErMin= 2 ErrMin= 2.26D-03
 ErrMax= 2.26D-03  0.00D+00 EMaxC= 1.00D-01 BMatC= 2.16D-03 BMatP= 4.55D-02
 IDIUse=3 WtCom= 9.77D-01 WtEn= 2.26D-02
 Coeff-Com: -0.161D-01 0.102D+01
 Coeff-En:   0.000D+00 0.100D+01
 Coeff:     -0.157D-01 0.102D+01
 Gap=     0.251 Goal=   None    Shift=    0.000
 Gap=     0.233 Goal=   None    Shift=    0.000
 RMSDP=3.36D-04 MaxDP=8.26D-03 DE=-1.07D-02 OVMax= 2.89D-02

 Cycle   3  Pass 0  IDiag  1:
 E= -154.041705477968     Delta-E=       -0.000516111851 Rises=F Damp=F
 DIIS: error= 3.18D-03 at cycle   3 NSaved=   3.
 NSaved= 3 IEnMin= 3 EnMin= -154.041705477968     IErMin= 2 ErrMin= 2.26D-03
 ErrMax= 3.18D-03  0.00D+00 EMaxC= 1.00D-01 BMatC= 1.99D-03 BMatP= 2.16D-03
 IDIUse=3 WtCom= 9.68D-01 WtEn= 3.18D-02
 Coeff-Com: -0.483D-01 0.516D+00 0.532D+00
 Coeff-En:   0.000D+00 0.102D+00 0.898D+00
 Coeff:     -0.468D-01 0.503D+00 0.544D+00
 Gap=     0.252 Goal=   None    Shift=    0.000
 Gap=     0.232 Goal=   None    Shift=    0.000
 RMSDP=1.66D-04 MaxDP=4.77D-03 DE=-5.16D-04 OVMax= 1.78D-02

 Cycle   4  Pass 0  IDiag  1:
 E= -154.042281481829     Delta-E=       -0.000576003861 Rises=F Damp=F
 DIIS: error= 9.20D-04 at cycle   4 NSaved=   4.
 NSaved= 4 IEnMin= 4 EnMin= -154.042281481829     IErMin= 4 ErrMin= 9.20D-04
 ErrMax= 9.20D-04  0.00D+00 EMaxC= 1.00D-01 BMatC= 2.29D-04 BMatP= 1.99D-03
 IDIUse=3 WtCom= 9.91D-01 WtEn= 9.20D-03
 Coeff-Com: -0.102D-01 0.106D-01 0.216D+00 0.783D+00
 Coeff-En:   0.000D+00 0.000D+00 0.000D+00 0.100D+01
 Coeff:     -0.101D-01 0.105D-01 0.214D+00 0.785D+00
 Gap=     0.251 Goal=   None    Shift=    0.000
 Gap=     0.232 Goal=   None    Shift=    0.000
 RMSDP=8.72D-05 MaxDP=2.33D-03 DE=-5.76D-04 OVMax= 8.89D-03

 Cycle   5  Pass 0  IDiag  1:
 E= -154.042399132709     Delta-E=       -0.000117650880 Rises=F Damp=F
 DIIS: error= 8.36D-04 at cycle   5 NSaved=   5.
 NSaved= 5 IEnMin= 5 EnMin= -154.042399132709     IErMin= 5 ErrMin= 8.36D-04
 ErrMax= 8.36D-04  0.00D+00 EMaxC= 1.00D-01 BMatC= 6.38D-05 BMatP= 2.29D-04
 IDIUse=3 WtCom= 9.92D-01 WtEn= 8.36D-03
 Coeff-Com:  0.761D-02-0.140D+00-0.230D-01 0.392D+00 0.764D+00
 Coeff-En:   0.000D+00 0.000D+00 0.000D+00 0.000D+00 0.100D+01
 Coeff:      0.755D-02-0.139D+00-0.228D-01 0.389D+00 0.766D+00
 Gap=     0.251 Goal=   None    Shift=    0.000
 Gap=     0.231 Goal=   None    Shift=    0.000
 RMSDP=5.61D-05 MaxDP=1.50D-03 DE=-1.18D-04 OVMax= 7.89D-03

 Cycle   6  Pass 0  IDiag  1:
 E= -154.042454493220     Delta-E=       -0.000055360512 Rises=F Damp=F
 DIIS: error= 3.21D-04 at cycle   6 NSaved=   6.
 NSaved= 6 IEnMin= 6 EnMin= -154.042454493220     IErMin= 6 ErrMin= 3.21D-04
 ErrMax= 3.21D-04  0.00D+00 EMaxC= 1.00D-01 BMatC= 2.01D-05 BMatP= 6.38D-05
 IDIUse=3 WtCom= 9.97D-01 WtEn= 3.21D-03
 Coeff-Com:  0.556D-02-0.490D-01-0.552D-01-0.102D+00 0.296D+00 0.905D+00
 Coeff-En:   0.000D+00 0.000D+00 0.000D+00 0.000D+00 0.000D+00 0.100D+01
 Coeff:      0.554D-02-0.488D-01-0.551D-01-0.102D+00 0.295D+00 0.905D+00
 Gap=     0.251 Goal=   None    Shift=    0.000
 Gap=     0.231 Goal=   None    Shift=    0.000
 RMSDP=4.30D-05 MaxDP=1.20D-03 DE=-5.54D-05 OVMax= 5.51D-03

 Cycle   7  Pass 0  IDiag  1:
 E= -154.042479104824     Delta-E=       -0.000024611604 Rises=F Damp=F
 DIIS: error= 2.45D-04 at cycle   7 NSaved=   7.
 NSaved= 7 IEnMin= 7 EnMin= -154.042479104824     IErMin= 7 ErrMin= 2.45D-04
 ErrMax= 2.45D-04  0.00D+00 EMaxC= 1.00D-01 BMatC= 5.95D-06 BMatP= 2.01D-05
 IDIUse=3 WtCom= 9.98D-01 WtEn= 2.45D-03
 Coeff-Com: -0.153D-02 0.459D-01 0.153D-02-0.229D+00-0.186D+00 0.197D+00
 Coeff-Com:  0.117D+01
 Coeff-En:   0.000D+00 0.000D+00 0.000D+00 0.000D+00 0.000D+00 0.000D+00
 Coeff-En:   0.100D+01
 Coeff:     -0.152D-02 0.458D-01 0.153D-02-0.229D+00-0.185D+00 0.196D+00
 Coeff:      0.117D+01
 Gap=     0.251 Goal=   None    Shift=    0.000
 Gap=     0.231 Goal=   None    Shift=    0.000
 RMSDP=3.93D-05 MaxDP=1.08D-03 DE=-2.46D-05 OVMax= 6.06D-03

 Cycle   8  Pass 0  IDiag  1:
 E= -154.042492418838     Delta-E=       -0.000013314014 Rises=F Damp=F
 DIIS: error= 1.31D-04 at cycle   8 NSaved=   8.
 NSaved= 8 IEnMin= 8 EnMin= -154.042492418838     IErMin= 8 ErrMin= 1.31D-04
 ErrMax= 1.31D-04  0.00D+00 EMaxC= 1.00D-01 BMatC= 2.62D-06 BMatP= 5.95D-06
 IDIUse=3 WtCom= 9.99D-01 WtEn= 1.31D-03
 Coeff-Com: -0.241D-02 0.348D-01 0.249D-01-0.728D-01-0.157D+00-0.234D+00
 Coeff-Com:  0.549D+00 0.858D+00
 Coeff-En:   0.000D+00 0.000D+00 0.000D+00 0.000D+00 0.000D+00 0.000D+00
 Coeff-En:   0.000D+00 0.100D+01
 Coeff:     -0.241D-02 0.347D-01 0.248D-01-0.727D-01-0.157D+00-0.234D+00
 Coeff:      0.548D+00 0.858D+00
 Gap=     0.251 Goal=   None    Shift=    0.000
 Gap=     0.231 Goal=   None    Shift=    0.000
 RMSDP=1.88D-05 MaxDP=5.32D-04 DE=-1.33D-05 OVMax= 2.99D-03

 Cycle   9  Pass 0  IDiag  1:
 E= -154.042495839573     Delta-E=       -0.000003420734 Rises=F Damp=F
 DIIS: error= 6.55D-05 at cycle   9 NSaved=   9.
 NSaved= 9 IEnMin= 9 EnMin= -154.042495839573     IErMin= 9 ErrMin= 6.55D-05
 ErrMax= 6.55D-05  0.00D+00 EMaxC= 1.00D-01 BMatC= 4.57D-07 BMatP= 2.62D-06
 IDIUse=1 WtCom= 1.00D+00 WtEn= 0.00D+00
 Coeff-Com: -0.127D-03-0.694D-02 0.109D-01 0.598D-01 0.157D-01-0.165D+00
 Coeff-Com: -0.249D+00 0.245D+00 0.109D+01
 Coeff:     -0.127D-03-0.694D-02 0.109D-01 0.598D-01 0.157D-01-0.165D+00
 Coeff:     -0.249D+00 0.245D+00 0.109D+01
 Gap=     0.251 Goal=   None    Shift=    0.000
 Gap=     0.230 Goal=   None    Shift=    0.000
 RMSDP=1.47D-05 MaxDP=3.91D-04 DE=-3.42D-06 OVMax= 2.05D-03

 Cycle  10  Pass 0  IDiag  1:
 E= -154.042496753002     Delta-E=       -0.000000913429 Rises=F Damp=F
 DIIS: error= 1.69D-05 at cycle  10 NSaved=  10.
 NSaved=10 IEnMin=10 EnMin= -154.042496753002     IErMin=10 ErrMin= 1.69D-05
 ErrMax= 1.69D-05  0.00D+00 EMaxC= 1.00D-01 BMatC= 4.76D-08 BMatP= 4.57D-07
 IDIUse=1 WtCom= 1.00D+00 WtEn= 0.00D+00
 Coeff-Com:  0.304D-03-0.529D-02-0.243D-02 0.144D-01 0.156D-01 0.285D-01
 Coeff-Com: -0.812D-01-0.153D+00 0.139D+00 0.104D+01
 Coeff:      0.304D-03-0.529D-02-0.243D-02 0.144D-01 0.156D-01 0.285D-01
 Coeff:     -0.812D-01-0.153D+00 0.139D+00 0.104D+01
 Gap=     0.251 Goal=   None    Shift=    0.000
 Gap=     0.230 Goal=   None    Shift=    0.000
 RMSDP=2.82D-06 MaxDP=8.92D-05 DE=-9.13D-07 OVMax= 4.77D-04

 Initial convergence to 1.0D-05 achieved.  Increase integral accuracy.
 Cycle  11  Pass 1  IDiag  1:
 E= -154.042494490732     Delta-E=        0.000002262270 Rises=F Damp=F
 DIIS: error= 2.33D-05 at cycle   1 NSaved=   1.
 NSaved= 1 IEnMin= 1 EnMin= -154.042494490732     IErMin= 1 ErrMin= 2.33D-05
 ErrMax= 2.33D-05  0.00D+00 EMaxC= 1.00D-01 BMatC= 2.68D-07 BMatP= 2.68D-07
 IDIUse=1 WtCom= 1.00D+00 WtEn= 0.00D+00
 Coeff-Com:  0.100D+01
 Coeff:      0.100D+01
 Gap=     0.251 Goal=   None    Shift=    0.000
 Gap=     0.230 Goal=   None    Shift=    0.000
 RMSDP=2.82D-06 MaxDP=8.92D-05 DE= 2.26D-06 OVMax= 5.34D-05

 Cycle  12  Pass 1  IDiag  1:
 E= -154.042494535401     Delta-E=       -0.000000044670 Rises=F Damp=F
 DIIS: error= 5.72D-06 at cycle   2 NSaved=   2.
 NSaved= 2 IEnMin= 2 EnMin= -154.042494535401     IErMin= 2 ErrMin= 5.72D-06
 ErrMax= 5.72D-06  0.00D+00 EMaxC= 1.00D-01 BMatC= 4.34D-09 BMatP= 2.68D-07
 IDIUse=1 WtCom= 1.00D+00 WtEn= 0.00D+00
 Coeff-Com: -0.567D-01 0.106D+01
 Coeff:     -0.567D-01 0.106D+01
 Gap=     0.251 Goal=   None    Shift=    0.000
 Gap=     0.230 Goal=   None    Shift=    0.000
 RMSDP=1.28D-06 MaxDP=3.94D-05 DE=-4.47D-08 OVMax= 5.22D-05

 Cycle  13  Pass 1  IDiag  1:
 E= -154.042494538198     Delta-E=       -0.000000002797 Rises=F Damp=F
 DIIS: error= 3.87D-06 at cycle   3 NSaved=   3.
 NSaved= 3 IEnMin= 3 EnMin= -154.042494538198     IErMin= 3 ErrMin= 3.87D-06
 ErrMax= 3.87D-06  0.00D+00 EMaxC= 1.00D-01 BMatC= 1.61D-09 BMatP= 4.34D-09
 IDIUse=1 WtCom= 1.00D+00 WtEn= 0.00D+00
 Coeff-Com: -0.258D-01 0.301D+00 0.725D+00
 Coeff:     -0.258D-01 0.301D+00 0.725D+00
 Gap=     0.251 Goal=   None    Shift=    0.000
 Gap=     0.230 Goal=   None    Shift=    0.000
 RMSDP=2.08D-07 MaxDP=6.13D-06 DE=-2.80D-09 OVMax= 2.54D-05

 Cycle  14  Pass 1  IDiag  1:
 E= -154.042494539084     Delta-E=       -0.000000000886 Rises=F Damp=F
 DIIS: error= 3.89D-06 at cycle   4 NSaved=   4.
 NSaved= 4 IEnMin= 4 EnMin= -154.042494539084     IErMin= 3 ErrMin= 3.87D-06
 ErrMax= 3.89D-06  0.00D+00 EMaxC= 1.00D-01 BMatC= 7.67D-10 BMatP= 1.61D-09
 IDIUse=1 WtCom= 1.00D+00 WtEn= 0.00D+00
 Coeff-Com:  0.525D-02-0.180D+00 0.356D+00 0.819D+00
 Coeff:      0.525D-02-0.180D+00 0.356D+00 0.819D+00
 Gap=     0.251 Goal=   None    Shift=    0.000
 Gap=     0.230 Goal=   None    Shift=    0.000
 RMSDP=3.00D-07 MaxDP=9.64D-06 DE=-8.86D-10 OVMax= 3.02D-05

 Cycle  15  Pass 1  IDiag  1:
 E= -154.042494539856     Delta-E=       -0.000000000772 Rises=F Damp=F
 DIIS: error= 1.77D-06 at cycle   5 NSaved=   5.
 NSaved= 5 IEnMin= 5 EnMin= -154.042494539856     IErMin= 5 ErrMin= 1.77D-06
 ErrMax= 1.77D-06  0.00D+00 EMaxC= 1.00D-01 BMatC= 2.05D-10 BMatP= 7.67D-10
 IDIUse=1 WtCom= 1.00D+00 WtEn= 0.00D+00
 Coeff-Com:  0.887D-02-0.118D+00-0.150D+00 0.138D+00 0.112D+01
 Coeff:      0.887D-02-0.118D+00-0.150D+00 0.138D+00 0.112D+01
 Gap=     0.251 Goal=   None    Shift=    0.000
 Gap=     0.230 Goal=   None    Shift=    0.000
 RMSDP=1.71D-07 MaxDP=4.47D-06 DE=-7.72D-10 OVMax= 2.12D-05

 Cycle  16  Pass 1  IDiag  1:
 E= -154.042494540300     Delta-E=       -0.000000000443 Rises=F Damp=F
 DIIS: error= 1.37D-06 at cycle   6 NSaved=   6.
 NSaved= 6 IEnMin= 6 EnMin= -154.042494540300     IErMin= 6 ErrMin= 1.37D-06
 ErrMax= 1.37D-06  0.00D+00 EMaxC= 1.00D-01 BMatC= 1.19D-10 BMatP= 2.05D-10
 IDIUse=1 WtCom= 1.00D+00 WtEn= 0.00D+00
 Coeff-Com:  0.240D-02 0.152D-01-0.246D+00-0.302D+00 0.608D+00 0.922D+00
 Coeff:      0.240D-02 0.152D-01-0.246D+00-0.302D+00 0.608D+00 0.922D+00
 Gap=     0.251 Goal=   None    Shift=    0.000
 Gap=     0.230 Goal=   None    Shift=    0.000
 RMSDP=1.52D-07 MaxDP=4.60D-06 DE=-4.43D-10 OVMax= 2.10D-05

 Cycle  17  Pass 1  IDiag  1:
 E= -154.042494540515     Delta-E=       -0.000000000215 Rises=F Damp=F
 DIIS: error= 5.91D-07 at cycle   7 NSaved=   7.
 NSaved= 7 IEnMin= 7 EnMin= -154.042494540515     IErMin= 7 ErrMin= 5.91D-07
 ErrMax= 5.91D-07  0.00D+00 EMaxC= 1.00D-01 BMatC= 3.59D-11 BMatP= 1.19D-10
 IDIUse=1 WtCom= 1.00D+00 WtEn= 0.00D+00
 Coeff-Com: -0.196D-02 0.543D-01-0.529D-01-0.207D+00-0.163D+00 0.496D+00
 Coeff-Com:  0.874D+00
 Coeff:     -0.196D-02 0.543D-01-0.529D-01-0.207D+00-0.163D+00 0.496D+00
 Coeff:      0.874D+00
 Gap=     0.251 Goal=   None    Shift=    0.000
 Gap=     0.230 Goal=   None    Shift=    0.000
 RMSDP=8.30D-08 MaxDP=2.12D-06 DE=-2.15D-10 OVMax= 1.09D-05

 Cycle  18  Pass 1  IDiag  1:
 E= -154.042494540574     Delta-E=       -0.000000000060 Rises=F Damp=F
 DIIS: error= 2.04D-07 at cycle   8 NSaved=   8.
 NSaved= 8 IEnMin= 8 EnMin= -154.042494540574     IErMin= 8 ErrMin= 2.04D-07
 ErrMax= 2.04D-07  0.00D+00 EMaxC= 1.00D-01 BMatC= 7.30D-12 BMatP= 3.59D-11
 IDIUse=1 WtCom= 1.00D+00 WtEn= 0.00D+00
 Coeff-Com: -0.153D-02 0.203D-01 0.489D-01-0.297D-02-0.244D+00-0.581D-01
 Coeff-Com:  0.347D+00 0.891D+00
 Coeff:     -0.153D-02 0.203D-01 0.489D-01-0.297D-02-0.244D+00-0.581D-01
 Coeff:      0.347D+00 0.891D+00
 Gap=     0.251 Goal=   None    Shift=    0.000
 Gap=     0.230 Goal=   None    Shift=    0.000
 RMSDP=3.37D-08 MaxDP=1.02D-06 DE=-5.95D-11 OVMax= 4.99D-06

 Cycle  19  Pass 1  IDiag  1:
 E= -154.042494540585     Delta-E=       -0.000000000011 Rises=F Damp=F
 DIIS: error= 6.40D-08 at cycle   9 NSaved=   9.
 NSaved= 9 IEnMin= 9 EnMin= -154.042494540585     IErMin= 9 ErrMin= 6.40D-08
 ErrMax= 6.40D-08  0.00D+00 EMaxC= 1.00D-01 BMatC= 1.23D-12 BMatP= 7.30D-12
 IDIUse=1 WtCom= 1.00D+00 WtEn= 0.00D+00
 Coeff-Com: -0.185D-03-0.299D-02 0.293D-01 0.347D-01-0.629D-01-0.116D+00
 Coeff-Com: -0.192D-01 0.342D+00 0.796D+00
 Coeff:     -0.185D-03-0.299D-02 0.293D-01 0.347D-01-0.629D-01-0.116D+00
 Coeff:     -0.192D-01 0.342D+00 0.796D+00
 Gap=     0.251 Goal=   None    Shift=    0.000
 Gap=     0.230 Goal=   None    Shift=    0.000
 RMSDP=9.29D-09 MaxDP=2.44D-07 DE=-1.06D-11 OVMax= 1.37D-06

 SCF Done:  E(UM062X) =  -154.042494541     A.U. after   19 cycles
            NFock= 19  Conv=0.93D-08     -V/T= 2.0059
 <Sx>= 0.0000 <Sy>= 0.0000 <Sz>= 0.5000 <S**2>= 0.8077 S= 0.5284
 <L.S>= 0.000000000000E+00
 KE= 1.531372669968D+02 PE=-5.225704216830D+02 EE= 1.325013330449D+02
 Annihilation of the first spin contaminant:
 S**2 before annihilation     0.8077,   after     0.7522
 Leave Link  502 at Fri Sep 25 23:35:35 2020, MaxMem=   268435456 cpu:             141.7 elap:              21.6
 (Enter /applis/site/cecic/gaussian16/B.01/nehalem/g16/l701.exe)
 ... and contract with generalized density number  0.
 Compute integral first derivatives.
 Leave Link  701 at Fri Sep 25 23:35:35 2020, MaxMem=   268435456 cpu:               1.3 elap:               0.2
 (Enter /applis/site/cecic/gaussian16/B.01/nehalem/g16/l702.exe)
 L702 exits ... SP integral derivatives will be done elsewhere.
 Leave Link  702 at Fri Sep 25 23:35:35 2020, MaxMem=   268435456 cpu:               0.5 elap:               0.1
 (Enter /applis/site/cecic/gaussian16/B.01/nehalem/g16/l703.exe)
 Integral derivatives from FoFJK, PRISM(SPDF).
 Compute integral first derivatives, UseDBF=F ICtDFT=           0.
 Calling FoFJK, ICntrl=      2127 FMM=F ISym2X=0 I1Cent= 0 IOpClX= 1 NMat=1 NMatS=1 NMatT=0.
 FoFJK:  IHMeth= 1 ICntrl=    2127 DoSepK=F KAlg= 0 I1Cent=           0 FoldK=F
 IRaf=         0 NMat=       1 IRICut=       1 DoRegI=T DoRafI=F ISym2E= 0 IDoP0=0 IntGTp=1.
 FoFCou: FMM=F IPFlag=           0 FMFlag=      100000 FMFlg1=         800
         NFxFlg=           0 DoJE=F BraDBF=F KetDBF=F FulRan=T
         wScrn=  0.000000 ICntrl=      2127 IOpCl=  1 I1Cent=           0 NGrid=           0
         NMat0=    1 NMatS0=      1 NMatT0=    0 NMatD0=    1 NMtDS0=    0 NMtDT0=    0
 Symmetry not used in FoFCou.
 Leave Link  703 at Fri Sep 25 23:35:38 2020, MaxMem=   268435456 cpu:              21.1 elap:               2.7
 (Enter /applis/site/cecic/gaussian16/B.01/nehalem/g16/l716.exe)
 Dipole        = 2.42323525D-01 1.90206132D-03-3.42610271D-01
 -------------------------------------------------------------------
 Center     Atomic                   Forces (Hartrees/Bohr)
 Number     Number              X              Y              Z
 -------------------------------------------------------------------
      1        6           0.001150794    0.000013224    0.005660832
      2        6          -0.010338441   -0.000081657    0.031220069
      3        6           0.022336051    0.000183913   -0.022003997
      4        1          -0.000331111    0.000000587   -0.001589258
      5        1           0.000117389   -0.000006467   -0.001381639
      6        1          -0.011212771   -0.000094523    0.004236179
      7        6          -0.001721911   -0.000015078   -0.016142186
 -------------------------------------------------------------------
 Cartesian Forces:  Max     0.031220069 RMS     0.010932335
 Leave Link  716 at Fri Sep 25 23:35:38 2020, MaxMem=   268435456 cpu:               0.5 elap:               0.1
 (Enter /applis/site/cecic/gaussian16/B.01/nehalem/g16/l103.exe)

 GradGradGradGradGradGradGradGradGradGradGradGradGradGradGradGradGradGrad
 Berny optimization.
 Using GEDIIS/GDIIS optimizer.
 FormGI is forming the generalized inverse of G from B-inverse, IUseBI=4.
 Internal  Forces:  Max     0.022532859 RMS     0.007927172
 Search for a local minimum.
 Step number   2 out of a maximum of  100
 All quantities printed in internal units (Hartrees-Bohrs-Radians)
 RMS Force = .79272D-02 SwitMx=.10000D-02 MixMth= 1
 Mixed Optimization -- RFO/linear search
 Update second derivatives using D2CorX and points    1    2
 DE= -9.17D-03 DEPred=-6.55D-03 R= 1.40D+00
 TightC=F SS=  1.41D+00  RLast= 2.63D-01 DXNew= 5.0454D-01 7.8852D-01
 Trust test= 1.40D+00 RLast= 2.63D-01 DXMaxT set to 5.05D-01
 The second derivative matrix:
                          R1        R2        R3        R4        R5
           R1           0.35499
           R2           0.00031   0.35494
           R3          -0.00079  -0.00073   0.65927
           R4           0.00307   0.00278  -0.01170   0.60269
           R5           0.00216   0.00203  -0.00341   0.05286   0.72696
           R6          -0.00105  -0.00099   0.00200  -0.01935  -0.00310
           A1           0.00020   0.00018  -0.00084  -0.00533   0.00409
           A2          -0.00008  -0.00007   0.00040   0.00350  -0.00215
           A3          -0.00012  -0.00011   0.00044   0.00183  -0.00194
           A4          -0.00117  -0.00102   0.00690   0.06769  -0.03845
           A5          -0.00161  -0.00149   0.00381  -0.01521  -0.01038
           A6          -0.00027  -0.00025   0.00048  -0.00547  -0.00056
           A7           0.00000   0.00000  -0.00000   0.00001   0.00001
           A8           0.00000   0.00000  -0.00000   0.00000   0.00001
           D1           0.00000   0.00000  -0.00000   0.00002   0.00001
           D2           0.00000   0.00000  -0.00000   0.00002   0.00001
           D3          -0.00000  -0.00000   0.00000  -0.00003  -0.00001
                          R6        A1        A2        A3        A4
           R6           0.35689
           A1          -0.00144   0.15950
           A2           0.00072   0.00032   0.15981
           A3           0.00072   0.00018  -0.00012   0.15994
           A4           0.01272   0.00603  -0.00369  -0.00234   0.09032
           A5           0.00508  -0.00098   0.00038   0.00059   0.00593
           A6           0.00050  -0.00041   0.00021   0.00020   0.00376
           A7          -0.00000   0.00000  -0.00000  -0.00000  -0.00000
           A8          -0.00000   0.00000  -0.00000  -0.00000   0.00000
           D1          -0.00000   0.00000  -0.00000  -0.00000  -0.00001
           D2          -0.00000   0.00000  -0.00000  -0.00000  -0.00001
           D3           0.00000  -0.00000   0.00000   0.00000   0.00002
                          A5        A6        A7        A8        D1
           A5           0.04436
           A6           0.00128   0.03666
           A7          -0.00001  -0.00000   0.03655
           A8          -0.00000  -0.00000   0.00000   0.03655
           D1          -0.00001  -0.00000   0.00000   0.00000   0.00230
           D2          -0.00001  -0.00000   0.00000   0.00000   0.00000
           D3           0.00001   0.00000  -0.00000  -0.00000  -0.00000
                          D2        D3
           D2           0.00230
           D3          -0.00000   0.00309
 ITU=  1  0
 Use linear search instead of GDIIS.
     Eigenvalues ---    0.00230   0.00282   0.03498   0.03611   0.03655
     Eigenvalues ---    0.04234   0.07846   0.16000   0.16004   0.35443
     Eigenvalues ---    0.35466   0.35735   0.59498   0.66001   0.74793
 RFO step:  Lambda=-3.63445390D-03 EMin= 2.30000635D-03
 Quartic linear search produced a step of  1.20725.
 Iteration  1 RMS(Cart)=  0.06823419 RMS(Int)=  0.04249988
 Iteration  2 RMS(Cart)=  0.06452226 RMS(Int)=  0.00610186
 Iteration  3 RMS(Cart)=  0.00567492 RMS(Int)=  0.00000470
 Iteration  4 RMS(Cart)=  0.00000491 RMS(Int)=  0.00000333
 Iteration  5 RMS(Cart)=  0.00000000 RMS(Int)=  0.00000333
 ITry= 1 IFail=0 DXMaxC= 2.88D-01 DCOld= 1.00D+10 DXMaxT= 5.05D-01 DXLimC= 3.00D+00 Rises=F
 Variable       Old X    -DE/DX   Delta X   Delta X   Delta X     New X
                                 (Linear)    (Quad)   (Total)
    R1        2.04662   0.00060  -0.00318   0.00604   0.00286   2.04948
    R2        2.04673   0.00054  -0.00305   0.00555   0.00250   2.04923
    R3        2.46716  -0.00273   0.00077  -0.00968  -0.00891   2.45824
    R4        2.40119  -0.01838  -0.07879  -0.00312  -0.08191   2.31928
    R5        2.43200   0.01348   0.01224   0.03170   0.04394   2.47594
    R6        2.04657  -0.00474  -0.00327  -0.02678  -0.03005   2.01652
    A1        2.07260  -0.00190  -0.02631  -0.00658  -0.03289   2.03971
    A2        2.10637   0.00118   0.01464   0.00538   0.02002   2.12639
    A3        2.10421   0.00072   0.01167   0.00120   0.01287   2.11708
    A4        2.31627   0.02253   0.26775   0.10999   0.37774   2.69400
    A5        3.26230  -0.00168   0.14600  -0.18881  -0.04281   3.21950
    A6        3.12803  -0.00151  -0.01583  -0.07257  -0.08840   3.03963
[...]
 A-vector RMS=  8.5037188D-07 Max=  1.2434569D-05 conv= 1.00D-05.
 RLE energy=       -0.6053616130
 DE(Corr)= -0.60535878     E(CORR)=     -153.74429743     Delta=-4.73D-06
 NORM(A)=   0.11719781D+01
 Iteration Nr.  15
 **********************
 DD1Dir will call FoFJK   5 times, MxPair=        54
 NAB=    90 NAA=    45 NBB=    36 NumPrc=  8.
 DD1Dir:  Pass   1 NRAB=    27 NRAA=     0 NRBB=     0 NR=    54.
 DD1Dir:  Pass   2 NRAB=    27 NRAA=     0 NRBB=     0 NR=    54.
 DD1Dir:  Pass   3 NRAB=    27 NRAA=     0 NRBB=     0 NR=    54.
 DD1Dir:  Pass   4 NRAB=     9 NRAA=    36 NRBB=     0 NR=    54.
 DD1Dir:  Pass   5 NRAB=     0 NRAA=     9 NRBB=    36 NR=    45.
 A-vector RMS=  3.4619315D-07 Max=  5.3089665D-06 conv= 1.00D-05.
 RLE energy=       -0.6053620008
 DE(Corr)= -0.60536116     E(CORR)=     -153.74429981     Delta=-2.38D-06
 NORM(A)=   0.11719852D+01
 Iteration Nr.  16
 **********************
 DD1Dir will call FoFJK   5 times, MxPair=        54
 NAB=    90 NAA=    45 NBB=    36 NumPrc=  8.
 DD1Dir:  Pass   1 NRAB=    27 NRAA=     0 NRBB=     0 NR=    54.
 DD1Dir:  Pass   2 NRAB=    27 NRAA=     0 NRBB=     0 NR=    54.
 DD1Dir:  Pass   3 NRAB=    27 NRAA=     0 NRBB=     0 NR=    54.
 DD1Dir:  Pass   4 NRAB=     9 NRAA=    36 NRBB=     0 NR=    54.
 DD1Dir:  Pass   5 NRAB=     0 NRAA=     9 NRBB=    36 NR=    45.
 A-vector RMS=  2.1227428D-07 Max=  2.8930192D-06 conv= 1.00D-05.
 RLE energy=       -0.6053622857
 DE(Corr)= -0.60536218     E(CORR)=     -153.74430083     Delta=-1.02D-06
 NORM(A)=   0.11719871D+01
 Iteration Nr.  17
 **********************
 DD1Dir will call FoFJK   5 times, MxPair=        54
 NAB=    90 NAA=    45 NBB=    36 NumPrc=  8.
 DD1Dir:  Pass   1 NRAB=    27 NRAA=     0 NRBB=     0 NR=    54.
 DD1Dir:  Pass   2 NRAB=    27 NRAA=     0 NRBB=     0 NR=    54.
 DD1Dir:  Pass   3 NRAB=    27 NRAA=     0 NRBB=     0 NR=    54.
 DD1Dir:  Pass   4 NRAB=     9 NRAA=    36 NRBB=     0 NR=    54.
 DD1Dir:  Pass   5 NRAB=     0 NRAA=     9 NRBB=    36 NR=    45.
 A-vector RMS=  1.0010515D-07 Max=  1.3700449D-06 conv= 1.00D-05.
 RLE energy=       -0.6053623082
 DE(Corr)= -0.60536226     E(CORR)=     -153.74430091     Delta=-8.09D-08
 NORM(A)=   0.11719879D+01
 CI/CC converged in   17 iterations to DelEn=-8.09D-08 Conv= 1.00D-07 ErrA1= 1.00D-07 Conv= 1.00D-05
 Wavefunction amplitudes converged. E(Corr)=     -153.74430091    
 Dominant configurations:
 ***********************
 Spin Case        I    J    A    B          Value
    AA           13        18           -0.112617D+00
    AA           13        24            0.118436D+00
    AA           13        27           -0.100301D+00
    BB           13        24            0.110134D+00
    BB           13        27           -0.104106D+00
 Largest amplitude= 1.18D-01
 Time for triples=    12470.39 seconds.
 T4(CCSD)= -0.35451107D-01
 T5(CCSD)=  0.18597346D-02
 CCSD(T)= -0.15377789228D+03

 S**2, projected HF & approx projected MPn energies after annihilation of
 unwanted spin states (see manual for definitions):

 spins       (S**2,0) (S**2,1)    PUHF        PMP2        PMP3        PMP4
 annihilated
 s+1         0.55962  0.67541 -153.183376 -153.729737 -153.754209
 s+1,s+2     0.76387  0.74967 -153.171930 -153.719013 -153.744521
 s+1 to s+3  0.74965  0.75021 -153.172744 -153.719656 -153.744895
 s+1 to s+4  0.75000  0.75000 -153.172722 -153.719635 -153.744875
 s+1 to s+5  0.75000  0.75000 -153.172722
 s+1 to s+6  0.75000  0.75000 -153.172722

 Discarding MO integrals.
 Leave Link  913 at Sat Sep 26 00:36:04 2020, MaxMem=   327680000 cpu:           21652.4 elap:            2786.2
 (Enter /applis/site/cecic/gaussian16/B.01/nehalem/g16/l601.exe)
 Copying SCF densities to generalized density rwf, IOpCl= 1 IROHF=0.

 **********************************************************************

            Population analysis using the SCF Density.

 **********************************************************************

 Orbital symmetries:
 Alpha Orbitals:
       Occupied  (A) (A) (A) (A) (A) (A) (A) (A) (A) (A) (A) (A)
                 (A) (A)
       Virtual   (A) (A) (A) (A) (A) (A) (A) (A) (A) (A) (A) (A)
                 (A) (A) (A) (A) (A) (A) (A) (A) (A) (A) (A) (A)
                 (A) (A) (A) (A) (A) (A) (A) (A) (A) (A) (A) (A)
                 (A) (A) (A) (A) (A) (A) (A) (A) (A) (A) (A) (A)
                 (A) (A) (A) (A) (A) (A) (A) (A) (A) (A) (A) (A)
                 (A) (A) (A) (A) (A) (A) (A) (A) (A) (A) (A) (A)
                 (A) (A) (A) (A) (A) (A) (A) (A) (A) (A) (A) (A)
                 (A) (A) (A) (A) (A) (A) (A) (A) (A) (A) (A) (A)
                 (A) (A) (A) (A) (A) (A) (A) (A) (A) (A) (A) (A)
                 (A) (A) (A) (A) (A) (A) (A) (A) (A) (A) (A) (A)
                 (A) (A) (A) (A) (A) (A) (A) (A) (A) (A) (A) (A)
                 (A) (A) (A) (A) (A) (A) (A) (A) (A) (A) (A) (A)
                 (A) (A) (A) (A) (A) (A) (A) (A) (A) (A) (A) (A)
                 (A) (A) (A) (A) (A) (A) (A) (A) (A) (A) (A) (A)
                 (A) (A) (A) (A) (A) (A) (A) (A) (A) (A) (A) (A)
                 (A) (A) (A) (A) (A) (A) (A) (A) (A) (A) (A) (A)
                 (A) (A) (A) (A) (A) (A) (A) (A) (A) (A) (A) (A)
                 (A) (A) (A) (A) (A) (A) (A) (A) (A) (A) (A) (A)
                 (A) (A) (A) (A) (A) (A) (A) (A) (A) (A) (A) (A)
                 (A) (A) (A) (A) (A) (A) (A) (A) (A) (A) (A)
 Beta  Orbitals:
       Occupied  (A) (A) (A) (A) (A) (A) (A) (A) (A) (A) (A) (A)
                 (A)
       Virtual   (A) (A) (A) (A) (A) (A) (A) (A) (A) (A) (A) (A)
                 (A) (A) (A) (A) (A) (A) (A) (A) (A) (A) (A) (A)
                 (A) (A) (A) (A) (A) (A) (A) (A) (A) (A) (A) (A)
                 (A) (A) (A) (A) (A) (A) (A) (A) (A) (A) (A) (A)
                 (A) (A) (A) (A) (A) (A) (A) (A) (A) (A) (A) (A)
                 (A) (A) (A) (A) (A) (A) (A) (A) (A) (A) (A) (A)
                 (A) (A) (A) (A) (A) (A) (A) (A) (A) (A) (A) (A)
                 (A) (A) (A) (A) (A) (A) (A) (A) (A) (A) (A) (A)
                 (A) (A) (A) (A) (A) (A) (A) (A) (A) (A) (A) (A)
                 (A) (A) (A) (A) (A) (A) (A) (A) (A) (A) (A) (A)
                 (A) (A) (A) (A) (A) (A) (A) (A) (A) (A) (A) (A)
                 (A) (A) (A) (A) (A) (A) (A) (A) (A) (A) (A) (A)
                 (A) (A) (A) (A) (A) (A) (A) (A) (A) (A) (A) (A)
                 (A) (A) (A) (A) (A) (A) (A) (A) (A) (A) (A) (A)
                 (A) (A) (A) (A) (A) (A) (A) (A) (A) (A) (A) (A)
                 (A) (A) (A) (A) (A) (A) (A) (A) (A) (A) (A) (A)
                 (A) (A) (A) (A) (A) (A) (A) (A) (A) (A) (A) (A)
                 (A) (A) (A) (A) (A) (A) (A) (A) (A) (A) (A) (A)
                 (A) (A) (A) (A) (A) (A) (A) (A) (A) (A) (A) (A)
                 (A) (A) (A) (A) (A) (A) (A) (A) (A) (A) (A) (A)
 The electronic state is 2-A.
 Alpha  occ. eigenvalues --  -11.26676 -11.25653 -11.23929 -11.23591  -1.10180
 Alpha  occ. eigenvalues --   -1.03039  -0.87472  -0.72420  -0.66657  -0.63310
 Alpha  occ. eigenvalues --   -0.49660  -0.48500  -0.37775  -0.34295
 Alpha virt. eigenvalues --    0.02939   0.03241   0.04505   0.07200   0.07264
 Alpha virt. eigenvalues --    0.08489   0.09036   0.10435   0.11014   0.11701
 Alpha virt. eigenvalues --    0.12853   0.13511   0.14908   0.15635   0.16844
 Alpha virt. eigenvalues --    0.18066   0.18719   0.19749   0.20655   0.23916
 Alpha virt. eigenvalues --    0.24315   0.24416   0.25970   0.27265   0.29169
 Alpha virt. eigenvalues --    0.29522   0.31171   0.32235   0.33117   0.33628
 Alpha virt. eigenvalues --    0.35747   0.35873   0.36249   0.37586   0.38332
 Alpha virt. eigenvalues --    0.38438   0.39233   0.39502   0.41301   0.43273
 Alpha virt. eigenvalues --    0.43388   0.43636   0.45108   0.45643   0.46570
 Alpha virt. eigenvalues --    0.47446   0.49490   0.50623   0.53403   0.54178
 Alpha virt. eigenvalues --    0.57202   0.60076   0.61387   0.62482   0.62605
 Alpha virt. eigenvalues --    0.63812   0.67553   0.75219   0.77089   0.80741
 Alpha virt. eigenvalues --    0.82036   0.82658   0.83211   0.84907   0.85093
 Alpha virt. eigenvalues --    0.87506   0.88794   0.89124   0.89842   0.92339
 Alpha virt. eigenvalues --    0.92998   0.93871   0.94657   0.96011   0.96611
 Alpha virt. eigenvalues --    0.96702   0.98689   1.00089   1.00258   1.03042
 Alpha virt. eigenvalues --    1.03290   1.03904   1.05310   1.05973   1.06404
 Alpha virt. eigenvalues --    1.07646   1.08465   1.10374   1.10715   1.10766
 Alpha virt. eigenvalues --    1.11198   1.14535   1.17923   1.18654   1.18777
 Alpha virt. eigenvalues --    1.22487   1.22846   1.24093   1.26825   1.28728
 Alpha virt. eigenvalues --    1.29009   1.33669   1.36534   1.40576   1.41747
 Alpha virt. eigenvalues --    1.45529   1.47918   1.52276   1.53807   1.54669
 Alpha virt. eigenvalues --    1.55656   1.57280   1.60609   1.61442   1.66178
 Alpha virt. eigenvalues --    1.67757   1.71280   1.71348   1.74225   1.76382
 Alpha virt. eigenvalues --    1.77618   1.78208   1.83191   1.83391   1.87030
 Alpha virt. eigenvalues --    1.92099   1.92773   1.93854   1.95932   2.02755
 Alpha virt. eigenvalues --    2.03747   2.04078   2.09256   2.14659   2.15710
 Alpha virt. eigenvalues --    2.21779   2.22900   2.25646   2.30237   2.36480
 Alpha virt. eigenvalues --    2.46820   2.51143   2.51767   2.52930   2.64066
 Alpha virt. eigenvalues --    2.65903   2.70591   2.91335   2.97679   3.07820
 Alpha virt. eigenvalues --    3.11668   3.12274   3.20094   3.20633   3.21721
 Alpha virt. eigenvalues --    3.24673   3.28570   3.30655   3.30837   3.31166
 Alpha virt. eigenvalues --    3.31298   3.32330   3.34989   3.37797   3.40212
 Alpha virt. eigenvalues --    3.42693   3.43554   3.44065   3.48483   3.50878
 Alpha virt. eigenvalues --    3.51730   3.53055   3.54696   3.60300   3.63451
 Alpha virt. eigenvalues --    3.64084   3.70282   3.70803   3.73085   3.75555
 Alpha virt. eigenvalues --    3.79482   3.80209   3.80347   3.81330   3.81604
 Alpha virt. eigenvalues --    3.83814   3.89252   3.96146   3.96571   3.97117
 Alpha virt. eigenvalues --    4.00572   4.02691   4.04563   4.15364   4.15796
 Alpha virt. eigenvalues --    4.21743   4.24813   4.27294   4.33380   4.34863
 Alpha virt. eigenvalues --    4.38574   4.41036   4.42796   4.51841   4.61733
 Alpha virt. eigenvalues --    4.64303   4.68830   4.71944   4.72625   4.80764
 Alpha virt. eigenvalues --    4.91427   4.91821   4.95588   4.96174   4.99453
 Alpha virt. eigenvalues --    5.09257   5.16559   5.29818   5.31300   5.36166
 Alpha virt. eigenvalues --    5.41955   5.46090   5.46256   5.77932   5.90082
 Alpha virt. eigenvalues --    6.00726   6.03234   6.15304   6.24497   6.51784
 Alpha virt. eigenvalues --    6.62698   6.88513   6.94529   7.08209   7.21330
 Alpha virt. eigenvalues --   15.86876  16.47999  18.49690  20.91083
  Beta  occ. eigenvalues --  -11.26031 -11.25690 -11.23496 -11.22795  -1.07735
  Beta  occ. eigenvalues --   -1.01713  -0.83867  -0.70373  -0.65975  -0.60263
  Beta  occ. eigenvalues --   -0.48470  -0.43625  -0.37778
  Beta virt. eigenvalues --    0.02979   0.03242   0.04480   0.07284   0.07409
  Beta virt. eigenvalues --    0.07692   0.09011   0.09791   0.10484   0.11092
  Beta virt. eigenvalues --    0.11800   0.13619   0.13951   0.15305   0.15856
  Beta virt. eigenvalues --    0.16889   0.18582   0.18722   0.19667   0.20800
  Beta virt. eigenvalues --    0.24273   0.24666   0.25250   0.26208   0.27745
  Beta virt. eigenvalues --    0.29615   0.29947   0.31791   0.32896   0.34006
  Beta virt. eigenvalues --    0.35971   0.36144   0.36729   0.37403   0.38159
  Beta virt. eigenvalues --    0.38406   0.38614   0.40276   0.40866   0.41587
  Beta virt. eigenvalues --    0.42780   0.43855   0.44097   0.45493   0.45931
  Beta virt. eigenvalues --    0.47460   0.47509   0.48819   0.50087   0.53520
  Beta virt. eigenvalues --    0.55436   0.57533   0.61351   0.61892   0.62494
  Beta virt. eigenvalues --    0.64134   0.64896   0.67426   0.75145   0.80182
  Beta virt. eigenvalues --    0.80593   0.82848   0.83525   0.83657   0.84853
  Beta virt. eigenvalues --    0.87649   0.87685   0.89308   0.90487   0.90607
  Beta virt. eigenvalues --    0.91125   0.93251   0.94320   0.94950   0.95000
  Beta virt. eigenvalues --    0.97318   0.99005   0.99124   1.00434   1.01474
  Beta virt. eigenvalues --    1.03429   1.03635   1.04939   1.05810   1.06599
  Beta virt. eigenvalues --    1.07074   1.09097   1.09224   1.10025   1.10803
  Beta virt. eigenvalues --    1.11917   1.13372   1.14672   1.18492   1.18714
  Beta virt. eigenvalues --    1.19548   1.22336   1.23667   1.23826   1.28635
  Beta virt. eigenvalues --    1.28909   1.30335   1.34736   1.36658   1.41524
  Beta virt. eigenvalues --    1.42126   1.45869   1.48755   1.52976   1.55255
  Beta virt. eigenvalues --    1.55297   1.56101   1.57353   1.60533   1.61287
  Beta virt. eigenvalues --    1.66604   1.69035   1.70877   1.71873   1.75574
  Beta virt. eigenvalues --    1.76443   1.77637   1.78506   1.83899   1.85321
  Beta virt. eigenvalues --    1.87403   1.92888   1.92916   1.95360   1.95489
  Beta virt. eigenvalues --    2.02577   2.03659   2.03902   2.09977   2.14647
  Beta virt. eigenvalues --    2.15495   2.21989   2.23496   2.27358   2.32193
  Beta virt. eigenvalues --    2.36833   2.46828   2.52050   2.52419   2.53917
  Beta virt. eigenvalues --    2.64750   2.66960   2.70543   2.92362   2.99170
  Beta virt. eigenvalues --    3.08060   3.12110   3.12184   3.19655   3.21404
  Beta virt. eigenvalues --    3.22038   3.25733   3.29299   3.30866   3.31117
  Beta virt. eigenvalues --    3.31327   3.31818   3.33055   3.35053   3.40202
  Beta virt. eigenvalues --    3.40778   3.44306   3.44633   3.45181   3.50970
  Beta virt. eigenvalues --    3.51740   3.53245   3.56098   3.58278   3.61388
  Beta virt. eigenvalues --    3.64999   3.65538   3.70286   3.71368   3.73589
  Beta virt. eigenvalues --    3.75651   3.79634   3.79760   3.81144   3.81610
  Beta virt. eigenvalues --    3.82635   3.84716   3.90150   3.96753   3.97192
  Beta virt. eigenvalues --    3.98241   4.00062   4.02998   4.04795   4.15420
  Beta virt. eigenvalues --    4.15671   4.23592   4.25566   4.28700   4.34524
  Beta virt. eigenvalues --    4.35775   4.38257   4.41533   4.43051   4.52177
  Beta virt. eigenvalues --    4.62139   4.65598   4.69645   4.72261   4.73602
  Beta virt. eigenvalues --    4.81064   4.91700   4.92376   4.95436   4.96748
  Beta virt. eigenvalues --    4.99615   5.09732   5.16246   5.30775   5.31692
  Beta virt. eigenvalues --    5.36330   5.41465   5.46267   5.46512   5.78221
  Beta virt. eigenvalues --    5.90888   6.00861   6.03387   6.15385   6.24815
  Beta virt. eigenvalues --    6.52158   6.62897   6.88864   6.94672   7.08402
  Beta virt. eigenvalues --    7.21935  15.86390  16.49562  18.48727  20.92034
          Condensed to atoms (all electrons):
               1          2          3          4          5          6
     1  C    6.776052  -0.422997   0.020435   0.389447   0.387124   0.004590
     2  C   -0.422997   6.282130  -1.340338  -0.030422  -0.027136  -0.112008
     3  C    0.020435  -1.340338   8.966528   0.018303   0.017839   0.475580
     4  H    0.389447  -0.030422   0.018303   0.370280  -0.014359   0.000916
     5  H    0.387124  -0.027136   0.017839  -0.014359   0.367527   0.000892
     6  H    0.004590  -0.112008   0.475580   0.000916   0.000892   0.304977
     7  C   -0.029827   0.363607  -0.491101  -0.034845  -0.034166  -0.002358
               7
     1  C   -0.029827
     2  C    0.363607
     3  C   -0.491101
     4  H   -0.034845
     5  H   -0.034166
     6  H   -0.002358
     7  C    5.654154
          Atomic-Atomic Spin Densities.
               1          2          3          4          5          6
     1  C   -1.101137   0.086076   0.010771   0.068909   0.070241   0.001627
     2  C    0.086076  -1.561421   0.145551  -0.004828  -0.004577   0.065051
     3  C    0.010771   0.145551   1.530494  -0.006931  -0.006941  -0.084916
     4  H    0.068909  -0.004828  -0.006931   0.121122  -0.042341  -0.000192
     5  H    0.070241  -0.004577  -0.006941  -0.042341   0.119798  -0.000199
     6  H    0.001627   0.065051  -0.084916  -0.000192  -0.000199  -0.101759
     7  C    0.002325  -0.070173  -0.176457  -0.039857  -0.041794  -0.006893
               7
     1  C    0.002325
     2  C   -0.070173
     3  C   -0.176457
     4  H   -0.039857
     5  H   -0.041794
     6  H   -0.006893
     7  C    2.063999
 Mulliken charges and spin densities:
               1          2
     1  C   -1.124825  -0.861190
     2  C    1.287164  -1.344320
     3  C   -1.667245   1.411571
     4  H    0.300679   0.095882
     5  H    0.302280   0.094186
     6  H    0.327411  -0.127280
     7  C    0.574536   1.731151
 Sum of Mulliken charges =  -0.00000   1.00000
 Mulliken charges and spin densities with hydrogens summed into heavy atoms:
               1          2
     1  C   -0.521866  -0.671121
     2  C    1.287164  -1.344320
     3  C   -1.339834   1.284290
     7  C    0.574536   1.731151
 Electronic spatial extent (au):  <R**2>=            308.3607
 Charge=             -0.0000 electrons
 Dipole moment (field-independent basis, Debye):
    X=             -0.0245    Y=              0.0106    Z=              0.0015  Tot=              0.0267
 Quadrupole moment (field-independent basis, Debye-Ang):
   XX=            -15.6657   YY=            -24.1381   ZZ=            -25.9985
   XY=              0.0107   XZ=             -0.0023   YZ=             -0.0000
 Traceless Quadrupole moment (field-independent basis, Debye-Ang):
   XX=              6.2684   YY=             -2.2040   ZZ=             -4.0644
   XY=              0.0107   XZ=             -0.0023   YZ=             -0.0000
 Octapole moment (field-independent basis, Debye-Ang**2):
  XXX=             12.6748  YYY=              0.0441  ZZZ=              0.0026  XYY=             -4.5727
  XXY=              0.0487  XXZ=              0.0161  XZZ=             -0.0943  YZZ=              0.0049
  YYZ=              0.0025  XYZ=              0.0001
 Hexadecapole moment (field-independent basis, Debye-Ang**3):
 XXXX=           -285.0096 YYYY=            -34.3765 ZZZZ=            -31.1432 XXXY=              0.2718
 XXXZ=             -0.0111 YYYX=             -0.0499 YYYZ=             -0.0001 ZZZX=             -0.0053
 ZZZY=             -0.0001 XXYY=            -66.7356 XXZZ=            -75.6566 YYZZ=            -11.3411
 XXYZ=             -0.0003 YYXZ=             -0.0059 ZZXY=              0.0004
 N-N= 8.289678655401D+01 E-N=-5.223083561840D+02  KE= 1.531466017793D+02
 Leave Link  601 at Sat Sep 26 00:36:04 2020, MaxMem=   327680000 cpu:               0.8 elap:               0.1
 (Enter /applis/site/cecic/gaussian16/B.01/nehalem/g16/l9999.exe)
 1\1\GINC-DAHU108\SP\UCCSD(T)-FC\Aug-CC-pVTZ\C4H3(2)\TINACCIL\26-Sep-20
 20\0\\#P CCSD(T)/aug-cc-pvtz geom=allcheck guess=read\\Title\\0,2\C,0,
 -0.0440766722,-0.002542224,-0.0481112474\C,0,0.2365202864,0.0027927065
 ,2.5607158492\C,0,0.3725337815,0.0060485172,3.7759417293\H,0,0.8176650
 758,-0.0312153688,-0.7100770063\H,0,-1.0222012352,0.0248365841,-0.5212
 594947\H,0,0.4912521334,0.0084631657,4.8318500146\C,0,0.0888906943,-0.
 0004928528,1.2444598563\\Version=ES64L-G16RevB.01\State=2-A\HF=-153.13
 89387\MP2=-153.6891459\MP3=-153.7200506\MP4D=-153.7329356\MP4DQ=-153.7
 176966\PUHF=-153.1833757\PMP2-0=-153.7297369\PMP3-0=-153.754209\MP4SDQ
 =-153.7284357\CCSD=-153.7443009\CCSD(T)=-153.7778923\S2=1.377287\S2-1=
 1.235746\S2A=1.083973\RMSD=5.370e-09\PG=C01 [X(C4H3)]\\@


 Everywhere is walking distance if you have the time.
                                    -- Steven Wright
 Job cpu time:       0 days  6 hours 17 minutes 48.5 seconds.
 Elapsed time:       0 days  0 hours 48 minutes 35.2 seconds.
 File lengths (MBytes):  RWF=  13063 Int=      0 D2E=      0 Chk=      8 Scr=      1
 Normal termination of Gaussian 16 at Sat Sep 26 00:36:04 2020.
