5
 energy: -10.247511070258 gnorm: 0.000660990729 xtb: 6.2.2 (9d81278992624c895f80dd42a50cac0aa55982e2)
C        -0.80170180340086   -0.74810377443246    0.01185844555853
C         0.00996948964976    0.00427053394533    0.94303812342953
C        -0.00996517132575   -0.00426434564149   -0.94303702411886
C        -0.24703284996723    1.06841077720195   -0.00222419023883
C         1.04873133504408   -0.32031319107856   -0.00963535463387
