5
 energy: -10.119478178153 gnorm: 0.278461161018 xtb: 6.2.2 (9d81278992624c895f80dd42a50cac0aa55982e2)
C        -0.99481500000000   -0.92831200000000    0.01471000000000
C         0.00741200000000    0.00317300000000    0.70149100000000
C        -0.00741200000000   -0.00317400000000   -0.70149100000000
C        -0.30653800000000    1.32576700000000   -0.00275800000000
C         1.30135400000000   -0.39745400000000   -0.01195200000000
5
 energy: -10.191090673158 gnorm: 0.161363954328 xtb: 6.2.2 (9d81278992624c895f80dd42a50cac0aa55982e2)
C        -0.93104479863765   -0.86880545295238    0.01376711899484
C         0.00817269619383    0.00349885187441    0.77348015414875
C        -0.00817250228423   -0.00349930943026   -0.77348015609466
C        -0.28688887459842    1.24078322205079   -0.00258125966188
C         1.21793447932648   -0.37197731154257   -0.01118585738705
5
 energy: -10.237594309483 gnorm: 0.079885684400 xtb: 6.2.2 (9d81278992624c895f80dd42a50cac0aa55982e2)
C        -0.84146712969300   -0.78521618432332    0.01244266665431
C         0.00904413180104    0.00387176186788    0.85596134747389
C        -0.00904388187275   -0.00387227010187   -0.85596122719972
C        -0.25928710514772    1.12140581817169   -0.00233307922630
C         1.10075498491243   -0.33618912561438   -0.01010970770218
5
 energy: -10.245511191632 gnorm: 0.051819291322 xtb: 6.2.2 (9d81278992624c895f80dd42a50cac0aa55982e2)
C        -0.80785832704741   -0.75385430372978    0.01194569302673
C         0.00958210788666    0.00410212503988    0.90687739751319
C        -0.00958176292682   -0.00410235920396   -0.90687700277222
C        -0.24893123624314    1.07661641514689   -0.00224006255664
C         1.05679021833071   -0.32276187725303   -0.00970602521105
5
 energy: -10.247380708039 gnorm: 0.015147031211 xtb: 6.2.2 (9d81278992624c895f80dd42a50cac0aa55982e2)
C        -0.80022515148947   -0.74673400128675    0.01182921210341
C         0.00989658191404    0.00423903852131    0.93646370231854
C        -0.00989237978916   -0.00423305424645   -0.93645246880347
C        -0.24658544334783    1.06644830021473   -0.00222250094937
C         1.04680739271241   -0.31972028320283   -0.00961794466912
5
 energy: -10.247509822153 gnorm: 0.001522667969 xtb: 6.2.2 (9d81278992624c895f80dd42a50cac0aa55982e2)
C        -0.80101251450013   -0.74746729864693    0.01184557366817
C         0.00996356246507    0.00426699314788    0.94286354969702
C        -0.00996080803666   -0.00426310475454   -0.94286650577517
C        -0.24682400666587    1.06749326910732   -0.00221995814797
C         1.04783476673760   -0.32002985885373   -0.00962265944205
5
 energy: -10.247511070145 gnorm: 0.000661028774 xtb: 6.2.2 (9d81278992624c895f80dd42a50cac0aa55982e2)
C        -0.80169792771657   -0.74810799281390    0.01185434141017
C         0.00996617546506    0.00426894023330    0.94303816567593
C        -0.00996185717729   -0.00426275190877   -0.94303706633938
C        -0.24703843638420    1.06840948760814   -0.00222318783933
C         1.04873304581299   -0.32030768311878   -0.00963225290739
