[Molden Format]
[Title]
[Atoms] AU
C      1     6 -0.15149967014850E+01 -0.14137111153122E+01  0.22409212290287E-01
C      2     6  0.18839603292411E-01  0.80701388138389E-02  0.17820836130213E+01
C      3     6 -0.18831442843467E-01 -0.80584446154930E-02 -0.17820815356254E+01
C      4     6 -0.46682438691192E+00  0.20190035701873E+01 -0.42031100104873E-02
C      5     6  0.19818148176739E+01 -0.60530414908336E+00 -0.18208179682307E-01
[GTO]
           1 0
 s           4   1.0000000000000000     
   51.049363095579913      -0.16312063210127389     
   8.7911227406887544      -0.19911024581000730     
  0.70640422258929825       0.31882047753655751     
  0.26922813413411617       0.12706504184240380     
 p           4   1.0000000000000000     
   5.8263656140800002       0.73716451545209605     
   1.5106896018720002       0.68216371614850257     
  0.53256483288000001       0.35783053929253711     
  0.21202323690600003        5.3983030275847881E-002

           2 0
 s           4   1.0000000000000000     
   51.049363095579913      -0.16312063210127389     
   8.7911227406887544      -0.19911024581000730     
  0.70640422258929825       0.31882047753655751     
  0.26922813413411617       0.12706504184240380     
 p           4   1.0000000000000000     
   5.8263656140800002       0.73716451545209605     
   1.5106896018720002       0.68216371614850257     
  0.53256483288000001       0.35783053929253711     
  0.21202323690600003        5.3983030275847881E-002

           3 0
 s           4   1.0000000000000000     
   51.049363095579913      -0.16312063210127389     
   8.7911227406887544      -0.19911024581000730     
  0.70640422258929825       0.31882047753655751     
  0.26922813413411617       0.12706504184240380     
 p           4   1.0000000000000000     
   5.8263656140800002       0.73716451545209605     
   1.5106896018720002       0.68216371614850257     
  0.53256483288000001       0.35783053929253711     
  0.21202323690600003        5.3983030275847881E-002

           4 0
 s           4   1.0000000000000000     
   51.049363095579913      -0.16312063210127389     
   8.7911227406887544      -0.19911024581000730     
  0.70640422258929825       0.31882047753655751     
  0.26922813413411617       0.12706504184240380     
 p           4   1.0000000000000000     
   5.8263656140800002       0.73716451545209605     
   1.5106896018720002       0.68216371614850257     
  0.53256483288000001       0.35783053929253711     
  0.21202323690600003        5.3983030275847881E-002

           5 0
 s           4   1.0000000000000000     
   51.049363095579913      -0.16312063210127389     
   8.7911227406887544      -0.19911024581000730     
  0.70640422258929825       0.31882047753655751     
  0.26922813413411617       0.12706504184240380     
 p           4   1.0000000000000000     
   5.8263656140800002       0.73716451545209605     
   1.5106896018720002       0.68216371614850257     
  0.53256483288000001       0.35783053929253711     
  0.21202323690600003        5.3983030275847881E-002

[MO]
Sym=     1a
Ene=  -0.77688638725131220     
Spin= Alpha
Occup=     2.00000000
           1  0.24922924987764031     
           2   9.0956127008916685E-002
           3   8.4875206523516364E-002
           4  -1.3456038319094941E-003
           5  0.27619843531170379     
           6  -1.5727157258093498E-003
           7  -6.7357829008551386E-004
           8 -0.14877997147847516     
           9  0.27619981981463498     
          10   1.5723156878440050E-003
          11   6.7294496619939640E-004
          12  0.14878048602898047     
          13  0.24922993717065811     
          14   2.8026910890668201E-002
          15 -0.12121556412162861     
          16   2.5212525978675240E-004
          17  0.24922975185371035     
          18 -0.11898273878578211     
          19   3.6340832722208845E-002
          20   1.0929521940858911E-003
Sym=     2a
Ene=  -0.65641321332818758     
Spin= Alpha
Occup=     2.00000000
           1  -6.5349409492969593E-002
           2 -0.13844975008033850     
           3  0.14657410163898363     
           4   8.0011884084209121E-004
           5   4.6093178696153116E-007
           6 -0.18471694044383946     
           7  0.25641613303404581     
           8   7.9173492641817405E-004
           9   5.2371860454583756E-007
          10 -0.18471833576478683     
          11  0.25641808125864918     
          12   7.9228464868352875E-004
          13  0.47760283389827035     
          14  -7.4545117756677631E-002
          15  -2.6483786143455250E-002
          16   9.0710153742330519E-004
          17 -0.41225432744519658     
          18   4.3365890262662056E-002
          19  0.11538131405858143     
          20  -9.7995643462700814E-004
Sym=     3a
Ene=  -0.65641224003203769     
Spin= Alpha
Occup=     2.00000000
           1  0.51375863096285757     
           2  -1.0409718042505331E-002
           3   2.5364109163497659E-002
           4  -5.4116457515136565E-006
           5  -1.2014849615077101E-006
           6 -0.25639625916896402     
           7 -0.18471357592745921     
           8   3.5465032366070021E-003
           9  -1.2558552352252814E-006
          10 -0.25639821371053878     
          11 -0.18471498045892157     
          12   3.5451753978499381E-003
          13 -0.20028437529793178     
          14 -0.18345746613228808     
          15  -3.8535542735685921E-002
          16   2.1136852933487768E-003
          17 -0.31347204283665198     
          18  -4.1592624867748361E-002
          19 -0.15645907377313040     
          20   1.1480357037102810E-003
Sym=     4a
Ene=  -0.64796068586233546     
Spin= Alpha
Occup=     2.00000000
           1  -2.8150298449118133E-007
           2  -2.8129281556493950E-003
           3  -1.2043695606225647E-003
           4 -0.26613565338239431     
           5 -0.48051518306103769     
           6  -5.7340892102615039E-004
           7  -2.4535460860673162E-004
           8  -5.4267120363444651E-002
           9  0.48051538442137609     
          10  -5.7374841436249279E-004
          11  -2.4584642235683996E-004
          12  -5.4268975890193014E-002
          13  -3.5410459876817167E-007
          14  -2.8129323116951720E-003
          15  -1.2042776683756958E-003
          16 -0.26613758068556509     
          17  -3.0266577111834518E-007
          18  -2.8128610721546566E-003
          19  -1.2043607425760987E-003
          20 -0.26613706066727061     
Sym=     5a
Ene=  -0.53763142023150234     
Spin= Alpha
Occup=     2.00000000
           1   2.2229021490913663E-007
           2   6.5071212120108922E-004
           3   2.7822426778917407E-004
           4   6.1550016742656470E-002
           5  -2.5177502154206619E-007
           6  0.25699456913340174     
           7 -0.35777505182762359     
           8  -1.0972730029242656E-003
           9   2.5226301236568448E-007
          10 -0.25699404005446314     
          11  0.35777431007421912     
          12   1.0972571885471674E-003
          13  -1.6064265449664071E-006
          14  -4.7065509006078152E-003
          15  -2.0157606435713743E-003
          16 -0.44532420784977095     
          17   1.3973469951403939E-006
          18   4.0567303961818093E-003
          19   1.7363102597751897E-003
          20  0.38377517267648492     
Sym=     6a
Ene=  -0.53762982594795261     
Spin= Alpha
Occup=     2.00000000
           1   1.7119369156302601E-006
           2   5.0588689888014888E-003
           3   2.1657155817765691E-003
           4  0.47868140386172392     
           5  -6.2041780083675527E-007
           6 -0.35774798577356809     
           7 -0.25699029618089853     
           8   4.9441088970740626E-003
           9   6.8669440570137828E-007
          10  0.35774724616451542     
          11  0.25698976152391123     
          12  -4.9441607366402596E-003
          13  -6.7965789204912819E-007
          14  -1.9665235793466817E-003
          15  -8.4217245826898426E-004
          16 -0.18603591902236380     
          17  -1.0727702475479845E-006
          18  -3.0935336758813646E-003
          19  -1.3244067981924069E-003
          20 -0.29264307483080237     
Sym=     7a
Ene=  -0.49918826287611662     
Spin= Alpha
Occup=     2.00000000
           1  0.31951936722212071     
           2 -0.17026112171115479     
           3 -0.15888111253927406     
           4   2.5182661778358870E-003
           5 -0.42240920107297625     
           6  -3.4793402643356151E-003
           7  -1.4903876056778409E-003
           8 -0.32912666551580683     
           9 -0.42240789938574647     
          10   3.4780541777180750E-003
          11   1.4883847704426916E-003
          12  0.32912772861642109     
          13  0.31953339411827147     
          14  -5.2472580576984180E-002
          15  0.22691558718828356     
          16  -4.7253265726192409E-004
          17  0.31952977001562904     
          18  0.22273187856059251     
          19  -6.8037334671449373E-002
          20  -2.0465647804035919E-003
Sym=     8a
Ene=  -0.47818684002149603     
Spin= Alpha
Occup=     2.00000000
           1 -0.29147819395333729     
           2  0.22144822346274221     
           3  0.20666443159348094     
           4  -3.2760309008652974E-003
           5 -0.27848506577108528     
           6  -4.0009212116468061E-003
           7  -1.7037504179103671E-003
           8 -0.37930537310139001     
           9 -0.27848395929845354     
          10   4.0171549494341079E-003
          11   1.7291488261268180E-003
          12  0.37930693195104004     
          13 -0.29157754936768021     
          14   6.8304608841597780E-002
          15 -0.29521818463334792     
          16   6.1370399290502930E-004
          17 -0.29155183552942415     
          18 -0.28974860434757205     
          19   8.8560394475428808E-002
          20   2.6614335755294279E-003
Sym=     9a
Ene=  -0.47515120954756046     
Spin= Alpha
Occup=     2.00000000
           1  0.44698324844129267     
           2 -0.27746508911751500     
           3 -0.34800148503560646     
           4   4.5067841229183047E-003
           5   2.7886233581321464E-005
           6   9.7334501098457676E-002
           7   6.8292298906881196E-002
           8  -1.2975324330586114E-003
           9   2.7885422476058926E-005
          10   9.7333006100236902E-002
          11   6.8291497741155172E-002
          12  -1.3780564175529095E-003
          13 -0.16927848048169555     
          14  0.46209741777644942     
          15  -6.4313049067482961E-002
          16  -4.5928214082792346E-003
          17 -0.27758265075879424     
          18 -0.15326253442760221     
          19  0.43432438961689579     
          20  -3.4511840689825462E-004
Sym=    10a
Ene=  -0.47515106328684553     
Spin= Alpha
Occup=     2.00000000
           1  -6.2545696655896543E-002
           2  0.36265718806670749     
           3 -0.29836577814643261     
           4  -2.4828143918722042E-003
           5  -1.1501042632706776E-005
           6   6.8291682077046320E-002
           7  -9.7339390686903449E-002
           8  -2.9792760451889509E-004
           9  -1.1500806544989111E-005
          10   6.8291566569805645E-002
          11  -9.7338596848819417E-002
          12  -2.6471755674822254E-004
          13  0.41830746285309905     
          14   7.9009124708479761E-002
          15  0.44119485602250846     
          16  -2.8321656430073008E-003
          17 -0.35581211110077970     
          18 -0.41965604622242386     
          19 -0.17420126013990594     
          20   5.2243110137828175E-003
Sym=    11a
Ene=  -0.37296339461153322     
Spin= Alpha
Occup=     0.00000000
           1  -7.9796521278451433E-008
           2   2.7498020256127992E-003
           3   1.1774058726001730E-003
           4  0.26014969329495208     
           5 -0.22364489422697625     
           6  -6.8405882534803963E-003
           7  -2.9287670799587515E-003
           8 -0.64720626375715473     
           9  0.22364406235160961     
          10  -6.8405550520163928E-003
          11  -2.9287209633362017E-003
          12 -0.64720536111159077     
          13  -8.6588041206785793E-008
          14   2.7497077226965277E-003
          15   1.1770156059243847E-003
          16  0.26015257868675157     
          17  -8.8835551397638057E-008
          18   2.7494191484606790E-003
          19   1.1773172629704414E-003
          20  0.26015183358105098     
Sym=    12a
Ene=  -0.32686714258997734     
Spin= Alpha
Occup=     0.00000000
           1  -3.3512830202276330E-003
           2 -0.37258551358096731     
           3  0.49644446839620998     
           4   1.6915197929744934E-003
           5  -7.0667128526987922E-008
           6  0.18924248032260937     
           7 -0.26315219810662688     
           8  -8.0943046473644408E-004
           9  -7.4753000277539154E-008
          10  0.18924224034136719     
          11 -0.26315186084075870     
          12  -8.0927727278939834E-004
          13   2.4345646282045105E-002
          14 -0.34245728566158051     
          15  0.41491383139702553     
          16   1.7417304034800835E-003
          17  -2.0993967918516074E-002
          18 -0.28688271801001825     
          19  0.48187478128091887     
          20   8.5181009839360809E-004
Sym=    13a
Ene=  -0.32686367117451637     
Spin= Alpha
Occup=     0.00000000
           1   2.6170203757462811E-002
           2 -0.43230471334514387     
           3 -0.29534262199274397     
           4   5.9054212716982265E-003
           5   1.7498329503955290E-007
           6  0.26313310760441333     
           7  0.18923994853393231     
           8  -3.6373193539860262E-003
           9   1.6902402292179043E-007
          10  0.26313277353127812     
          11  0.18923970900737608     
          12  -3.6377010130186184E-003
          13  -1.0183876685771170E-002
          14 -0.51387737933386091     
          15 -0.32552645111443212     
          16   6.9045564541305848E-003
          17  -1.5987277249826754E-002
          18 -0.44694309094958157     
          19 -0.38103807674694312     
          20   6.4483612595642396E-003
Sym=    14a
Ene=  -0.29713893913864864     
Spin= Alpha
Occup=     0.00000000
           1   3.4441375765587976E-007
           2  0.44191323743092764     
           3 -0.47360377157834616     
           4  -2.5275950877414093E-003
           5  -2.3129650432811864E-009
           6  -1.8212364032545269E-005
           7   1.1604316699593724E-005
           8   1.4257662874065648E-007
           9  -2.3126607098125896E-009
          10  -1.8208770339496743E-005
          11   1.1596885485445253E-005
          12   1.3738202567695404E-007
          13   9.9742184217553615E-007
          14 -0.63100249508024187     
          15 -0.14590342464022174     
          16   7.3295576857550374E-003
          17  -1.3667998978415223E-006
          18  0.18918248564199130     
          19  0.61944781690991391     
          20  -4.8026792570553646E-003
Sym=    15a
Ene=    1.5001871227625436E-002
Spin= Alpha
Occup=     0.00000000
           1   5.2115748458193455E-006
           2   8.5548196465124286E-003
           3   3.6646737926022133E-003
           4  0.80903555274615491     
           5   4.4965748489273254E-007
           6  0.56382649406629248     
           7  0.40415852387064621     
           8  -7.7889878329098728E-003
           9  -4.4127557762366119E-007
          10 -0.56381755346903140     
          11 -0.40415210355656711     
          12   7.7873117347340773E-003
          13  -2.0247385180035762E-006
          14  -3.3164124332302506E-003
          15  -1.4176431475745371E-003
          16 -0.31370081080781792     
          17  -3.1900796897548305E-006
          18  -5.2323509526930306E-003
          19  -2.2426978050767072E-003
          20 -0.49533125865227196     
Sym=    16a
Ene=    1.5007855041574980E-002
Spin= Alpha
Occup=     0.00000000
           1  -6.8713751252167422E-007
           2  -1.1091263401958530E-003
           3  -4.7472917746835920E-004
           4 -0.10486512309912095     
           5  -8.5305097212935801E-008
           6  0.40416927640471623     
           7 -0.56387464096041506     
           8  -1.7199295151924129E-003
           9   8.2012251645382001E-008
          10 -0.40416275367127208     
          11  0.56386554035701175     
          12   1.7203735507943902E-003
          13   4.9292057705264857E-006
          14   7.9605473816988827E-003
          15   3.4029497416066560E-003
          16  0.75307741862202027     
          17  -4.2371063837828681E-006
          18  -6.8470672199619038E-003
          19  -2.9343304546608933E-003
          20 -0.64821398375932582     
Sym=    17a
Ene=   0.10895612057388959     
Spin= Alpha
Occup=     0.00000000
           1  0.69220410433528023     
           2  0.47766944988476656     
           3  0.46163890339978947     
           4  -7.1448942759823443E-003
           5  -2.3653087508906435E-006
           6  0.54188994810708491     
           7  0.38526697555186179     
           8  -7.4687595356259951E-003
           9  -2.7648508745503367E-006
          10  0.54190026328931917     
          11  0.38527432965299679     
          12  -7.4733928438900045E-003
          13 -0.26603751425928901     
          14 -0.13663617347449772     
          15  0.23042674989170067     
          16   4.0399384364776011E-004
          17 -0.42616047484296937     
          18  0.37075963225860697     
          19 -0.18600291752727705     
          20  -3.0728122551376821E-003
Sym=    18a
Ene=   0.10895788493901438     
Spin= Alpha
Occup=     0.00000000
           1   9.2448129197628945E-002
           2  0.12425126272416977     
           3  -3.1382624590442260E-003
           4  -1.3001153834159142E-003
           5  -9.5116169443385404E-007
           6 -0.38527728249847382     
           7  0.54193578373462503     
           8   1.6206216336102314E-003
           9  -1.2049142438740245E-006
          10 -0.38528478075660993     
          11  0.54194630400865618     
          12   1.6187669052016769E-003
          13 -0.64568893378292835     
          14 -0.10697221614652215     
          15  0.61119397632617456     
          16  -1.6285630326983104E-003
          17  0.55324335554256454     
          18 -0.52335754814413038     
          19  0.10380051698971259     
          20   5.0560304268404488E-003
Sym=    19a
Ene=   0.14005159108590007     
Spin= Alpha
Occup=     0.00000000
           1  -1.2194330873324547E-006
           2  -5.5787698408188598E-003
           3  -2.3889577990412574E-003
           4 -0.52773632193522424     
           5  0.71535776546370056     
           6  -5.5553393012979357E-003
           7  -2.3792761796297347E-003
           8 -0.52553155632139525     
           9 -0.71535501252584088     
          10  -5.5538761049886377E-003
          11  -2.3774022487877741E-003
          12 -0.52552677426805328     
          13  -7.9841530767557187E-007
          14  -5.5780616637996685E-003
          15  -2.3873089330673928E-003
          16 -0.52774001892334632     
          17  -9.7557190716869940E-007
          18  -5.5768991021502403E-003
          19  -2.3883953091057494E-003
          20 -0.52773886786668389     
Sym=    20a
Ene=   0.54996380950111545     
Spin= Alpha
Occup=     0.00000000
           1  0.48196260329579943     
           2  0.39085464948600523     
           3  0.36472533484868203     
           4  -5.7829675576968279E-003
           5 -0.71611568800398706     
           6   6.8791238027885076E-003
           7   2.9440849583808695E-003
           8  0.65094436828961644     
           9 -0.71612182338584696     
          10  -6.8810922996833260E-003
          11  -2.9472726872962255E-003
          12 -0.65094802377940908     
          13  0.48197322396801040     
          14  0.12044139139914538     
          15 -0.52089207136994664     
          16   1.0827176664177272E-003
          17  0.48197036166180252     
          18 -0.51129475378709799     
          19  0.15616868767150802     
          20   4.6959500977308789E-003
