$hessian                                                                        
        1.2672039343  -0.1327813439  -0.0159850513  -0.5390066993   0.0540999290
        0.0072167613  -0.0850699580   0.0111157800   0.0012749440  -0.6589665624
        0.0694813977   0.0077586791   0.0163424850  -0.0025982757  -0.0004038790
       -0.1327813439   0.0477426402   0.0017200094   0.0537013086  -0.0429421550
       -0.0007725893   0.0110983561   0.0159133749  -0.0001383108   0.0700426986
       -0.0182897336  -0.0008384791  -0.0021147255  -0.0023379615   0.0000443143
       -0.0159850513   0.0017200094   0.0336716050   0.0069553353  -0.0007495298
       -0.0372568090   0.0012728354  -0.0001385232   0.0171059835   0.0079184427
       -0.0008485067  -0.0108992571  -0.0001679058   0.0000252869  -0.0026197780
       -0.5390066993   0.0537013086   0.0069553353   1.2566721545  -0.1279137595
       -0.0167830899  -0.5398397364   0.0527991561   0.0071030096  -0.0891503366
        0.0111366679   0.0014731730  -0.0892356040   0.0110622209   0.0014160791
        0.0540999290  -0.0429421550  -0.0007495298  -0.1279137595   0.0722390816
        0.0017917157   0.0532504071  -0.0426663458  -0.0007522678   0.0103398507
        0.0066309298  -0.0001571905   0.0102847776   0.0066474361  -0.0001502899
        0.0072167613  -0.0007725893  -0.0372568090  -0.0167830899   0.0017917157
        0.0588185661   0.0073210450  -0.0007695617  -0.0371815355   0.0011347777
       -0.0001314357   0.0078072847   0.0011181575  -0.0001286823   0.0078098699
       -0.0850699580   0.0110983561   0.0012728354  -0.5398397364   0.0532504071
        0.0073210450   1.2684219333  -0.1311960128  -0.0156982564   0.0163317791
       -0.0026075311  -0.0004192548  -0.6593064676   0.0687821405   0.0073681696
        0.0111157800   0.0159133749  -0.0001385232   0.0527991561  -0.0426663458
       -0.0007695617  -0.1311960128   0.0472796073   0.0016667926  -0.0021023638
       -0.0023393814   0.0000456536   0.0693267237  -0.0181030818  -0.0007877841
        0.0012749440  -0.0001383108   0.0171059835   0.0071030096  -0.0007522678
       -0.0371815355  -0.0156982564   0.0016667926   0.0335562596  -0.0001834568
        0.0000268112  -0.0026200089   0.0074972164  -0.0007946674  -0.0108587895
       -0.6589665624   0.0700426986   0.0079184427  -0.0891503366   0.0103398507
        0.0011347777   0.0163317791  -0.0021023638  -0.0001834568   0.7348065303
       -0.0786355793  -0.0089228333  -0.0032470094   0.0006447694   0.0001106422
        0.0694813977  -0.0182897336  -0.0008485067   0.0111366679   0.0066309298
       -0.0001314357  -0.0026075311  -0.0023393814   0.0000268112  -0.0786355793
        0.0133102906   0.0009612692   0.0006481911   0.0006475788  -0.0000143748
        0.0077586791  -0.0008384791  -0.0108992571   0.0014731730  -0.0001571905
        0.0078072847  -0.0004192548   0.0000456536  -0.0026200089  -0.0089228333
        0.0009612692   0.0049727750   0.0001127798  -0.0000147036   0.0007387525
        0.0163424850  -0.0021147255  -0.0001679058  -0.0892356040   0.0102847776
        0.0011181575  -0.6593064676   0.0693267237   0.0074972164  -0.0032470094
        0.0006481911   0.0001127798   0.7351916669  -0.0778647834  -0.0084883204
       -0.0025982757  -0.0023379615   0.0000252869   0.0110622209   0.0066474361
       -0.0001286823   0.0687821405  -0.0181030818  -0.0007946674   0.0006447694
        0.0006475788  -0.0000147036  -0.0778647834   0.0131070594   0.0009050440
       -0.0004038790   0.0000443143  -0.0026197780   0.0014160791  -0.0001502899
        0.0078098699   0.0073681696  -0.0007877841  -0.0108587895   0.0001106422
       -0.0000143748   0.0007387525  -0.0084883204   0.0009050440   0.0049293691
