      -----------------------------------------------------------      
     |                   =====================                   |     
     |                           x T B                           |     
     |                   =====================                   |     
     |                         S. Grimme                         |     
     |          Mulliken Center for Theoretical Chemistry        |     
     |                    University of Bonn                     |     
      -----------------------------------------------------------      

   * xtb version 6.2.2 (9d81278992624c895f80dd42a50cac0aa55982e2) compiled by '@Darwin' on 04/03/2020

   xtb is free software: you can redistribute it and/or modify it under
   the terms of the GNU Lesser General Public License as published by
   the Free Software Foundation, either version 3 of the License, or
   (at your option) any later version.
   
   xtb is distributed in the hope that it will be useful,
   but WITHOUT ANY WARRANTY; without even the implied warranty of
   MERCHANTABILITY or FITNESS FOR A PARTICULAR PURPOSE.  See the
   GNU Lesser General Public License for more details.
   
   Cite this work as:
   * S. Grimme, C. Bannwarth, P. Shushkov, J. Chem. Theory Comput., 2017,
     13, 1989-2009. DOI: 10.1021/acs.jctc.7b00118
   * C. Bannwarth, S. Ehlert and S. Grimme., J. Chem. Theory Comput., 2019,
     15, 1652-1671. DOI: 10.1021/acs.jctc.8b01176
   * P. Pracht, E. Caldeweyher, S. Ehlert, S. Grimme, ChemRxiv, 2019, preprint.
     DOI: 10.26434/chemrxiv.8326202.v1
   
   for DFT-D4:
   * E. Caldeweyher, C. Bannwarth and S. Grimme, J. Chem. Phys., 2017,
     147, 034112. DOI: 10.1063/1.4993215
   * E. Caldeweyher, S. Ehlert, A. Hansen, H. Neugebauer, S. Spicher,
     C. Bannwarth and S. Grimme, J. Chem. Phys., 2019, 150, 154122.
     DOI: 10.1063/1.5090222
   
   for sTDA-xTB:
   * S. Grimme and C. Bannwarth, J. Chem. Phys., 2016, 145, 054103.
     DOI: 10.1063/1.4959605
   
   in the mass-spec context:
   * V. Asgeirsson, C. Bauer and S. Grimme, Chem. Sci., 2017, 8, 4879.
     DOI: 10.1039/c7sc00601b
   
   for metadynamics refer to:
   * S. Grimme, J. Chem. Theory Comput., 2019, 155, 2847-2862
     DOI: 10.1021/acs.jctc.9b00143
   
   with help from (in alphabetical order)
   C. Bannwarth, F. Bohle, G. Brandenburg, E. Caldeweyher, M. Checinski,
   S. Dohm, S. Ehlert, S. Ehrlich, F. März, H. Neugebauer, J. Pisarek,
   P. Pracht, P. Shushkov, and S. Spicher.
   
 * started run on 2020/05/12 at 11:44:30.954     

           -------------------------------------------------
          |                Calculation Setup                |
           -------------------------------------------------

          program call               : xtb --input C5_1_S_0.input C5_1_S_0.xyz --ohess --molden --namespace C5_1_S_0 output.out
          calculation namespace      : C5_1_S_0
          coordinate file            : C5_1_S_0.xyz
          number of atoms            :                     5
          number of electrons        :                    20
          charge                     :                     0
          spin                       :                   0.0
          first test random number   :      0.51622058850194

   ID    Z sym.   atoms
    1    6 C      1-5

           -------------------------------------------------
          |                 G F N 2 - x T B                 |
           -------------------------------------------------

        Reference                      10.1021/acs.jctc.8b01176
      * Hamiltonian:
        H0-scaling (s, p, d)           1.850000    2.230000    2.230000
        zeta-weighting                 0.500000
      * Dispersion:
        s8                             2.700000
        a1                             0.520000
        a2                             5.000000
        s9                             5.000000
      * Repulsion:
        kExp                           1.500000    1.000000
        rExp                           1.000000
      * Coulomb:
        alpha                          2.000000
        third order                    shell-resolved
        anisotropic                    true
        a3                             3.000000
        a5                             4.000000
        cn-shift                       1.200000
        cn-exp                         4.000000
        max-rad                        5.000000


          ...................................................
          :                      SETUP                      :
          :.................................................:
          :  # basis functions                  20          :
          :  # atomic orbitals                  20          :
          :  # shells                           10          :
          :  # electrons                        20          :
          :  max. iterations                   250          :
          :  Hamiltonian                  GFN2-xTB          :
          :  restarted?                      false          :
          :  GBSA solvation                  false          :
          :  PC potential                    false          :
          :  electronic temp.          300.0000000     K    :
          :  accuracy                    1.0000000          :
          :  -> integral cutoff          0.2500000E+02      :
          :  -> integral neglect         0.1000000E-07      :
          :  -> SCF convergence          0.1000000E-05 Eh   :
          :  -> wf. convergence          0.1000000E-03 e    :
          :  Broyden damping             0.4000000          :
          ...................................................

 iter      E             dE          RMSdq      gap      omega  full diag
   1     -9.8114739 -0.981147E+01  0.151E+01    1.10       0.0  T
   2     -3.1310961  0.668038E+01  0.235E+01    1.02       1.0  T
   3     -4.4225548 -0.129146E+01  0.211E+01    0.87       1.0  T
   4     -9.4594102 -0.503686E+01  0.116E+01    0.88       1.0  T
   5     -9.4413696  0.180406E-01  0.947E+00    0.89       1.0  T
   6     -9.9101651 -0.468796E+00  0.547E+00    0.90       1.0  T
   7     -9.9515571 -0.413920E-01  0.459E+00    0.87       1.0  T
   8     -9.9494319  0.212517E-02  0.462E+00    0.87       1.0  T
   9     -9.9846920 -0.352601E-01  0.396E+00    0.81       1.0  T
  10    -10.0071380 -0.224460E-01  0.352E+00    0.76       1.0  T
  11    -10.0770408 -0.699028E-01  0.112E+00    0.54       1.0  T
  12    -10.0781396 -0.109881E-02  0.103E+00    0.53       1.0  T
  13    -10.0649328  0.132068E-01  0.137E+00    0.59       1.0  T
  14    -10.0747403 -0.980748E-02  0.853E-01    0.48       1.0  T
  15    -10.0787289 -0.398861E-02  0.556E-01    0.49       1.0  T
  16    -10.0817384 -0.300948E-02  0.101E-01    0.51       1.0  T
  17    -10.0818210 -0.825809E-04  0.345E-02    0.51       1.3  T
  18    -10.0818108  0.102278E-04  0.460E-02    0.52       1.0  T
  19    -10.0818267 -0.159376E-04  0.196E-02    0.52       2.3  T
  20    -10.0818279 -0.119462E-05  0.157E-02    0.52       2.8  T
  21    -10.0818289 -0.947032E-06  0.118E-02    0.51       3.8  T
  22    -10.0818300 -0.117290E-05  0.177E-03    0.51      25.3  T
  23    -10.0818300 -0.178606E-07  0.790E-04    0.51      56.6  T
  24    -10.0818300 -0.389368E-08  0.387E-04    0.51     115.7  T

   *** convergence criteria satisfied after 24 iterations ***

         #    Occupation            Energy/Eh            Energy/eV
      -------------------------------------------------------------
         1        2.0000           -0.7202849             -19.5999
       ...           ...                  ...                  ...
         4        2.0000           -0.6156618             -16.7530
         5        2.0000           -0.5529994             -15.0479
         6        2.0000           -0.5224680             -14.2171
         7        2.0000           -0.5149785             -14.0133
         8        2.0000           -0.5070863             -13.7985
         9        2.0000           -0.4576297             -12.4527
        10        1.9999           -0.4469817             -12.1630 (HOMO)
        11        0.0001           -0.4280657             -11.6483 (LUMO)
        12                         -0.4214152             -11.4673
        13                         -0.4059007             -11.0451
        14                         -0.3766977             -10.2505
        15                         -0.3433570              -9.3432
       ...                                ...                  ...
        20                          0.1091702               2.9707
      -------------------------------------------------------------
                  HL-Gap            0.0189160 Eh            0.5147 eV
             Fermi-level           -0.4375242 Eh          -11.9056 eV

 SCC (total)                   0 d,  0 h,  0 min,  0.006 sec
 SCC setup                      ...        0 min,  0.000 sec (  1.441%)
 Dispersion                     ...        0 min,  0.000 sec (  0.439%)
 integral evaluation            ...        0 min,  0.001 sec ( 24.873%)
 zeroth order Hamiltonian       ...        0 min,  0.000 sec (  0.381%)
 iterations                     ...        0 min,  0.003 sec ( 46.249%)
 molecular gradient             ...        0 min,  0.001 sec ( 24.877%)
 printout                       ...        0 min,  0.000 sec (  1.582%)

         :::::::::::::::::::::::::::::::::::::::::::::::::::::
         ::                     SUMMARY                     ::
         :::::::::::::::::::::::::::::::::::::::::::::::::::::
         :: total energy             -10.023128997380 Eh    ::
         :: gradient norm              0.317227677812 Eh/a0 ::
         :: HOMO-LUMO gap              0.514730341544 eV    ::
         ::.................................................::
         :: SCC energy               -10.081830047617 Eh    ::
         :: -> isotropic ES           -0.043660030248 Eh    ::
         :: -> anisotropic ES         -0.001071436487 Eh    ::
         :: -> anisotropic XC          0.012143134665 Eh    ::
         :: -> dispersion             -0.003169880669 Eh    ::
         :: repulsion energy           0.058700789507 Eh    ::
         :: add. restraining           0.000000000000 Eh    ::
         :::::::::::::::::::::::::::::::::::::::::::::::::::::

      ----------------------------------------------------------- 
     |                   =====================                   |
     |                        A N C O P T                        |
     |                   =====================                   |
     |               Approximate Normal Coordinate               |
     |                Rational Function Optimizer                |
      ----------------------------------------------------------- 

          ...................................................
          :                      SETUP                      :
          :.................................................:
          :   optimization level            normal          :
          :   max. optcycles                   200          :
          :   ANC micro-cycles                  20          :
          :   degrees of freedom                 9          :
          :.................................................:
          :   RF solver                   davidson          :
          :   write xtbopt.log                true          :
          :   linear?                        false          :
          :   energy convergence         0.5000000E-05 Eh   :
          :   grad. convergence          0.1000000E-02 Eh/α :
          :   maximium RF displ.         1.0000000          :
          :   Hlow (freq-cutoff)         0.1000000E-01      :
          :   Hmax (freq-cutoff)         5.0000000          :
          :   S6 in model hess.         20.0000000          :
          ...................................................

generating ANC from model Hessian ...
Using Lindh-Hessian (1995)
 Shifting diagonal of input Hessian by    2.5827863742183578E-003
 Lowest  eigenvalues of input Hessian
   -0.000000   -0.000000    0.000000    0.000000    0.000000    0.000000
    0.010000    0.034797    0.061368    0.068542    0.091528    0.563036
    0.797012    0.979350    1.034095
 Highest eigenvalues
    0.068542    0.091528    0.563036    0.797012    0.979350    1.034095


........................................................................
.............................. CYCLE    1 ..............................
........................................................................
   1    -10.0818300 -0.100818E+02  0.352E-05    0.51       0.0  T
   2    -10.0818300  0.105080E-08  0.314E-04    0.51     142.5  T
   3    -10.0818300 -0.103896E-08  0.547E-05    0.51     817.4  T
     SCC iter.                  ...        0 min,  0.000 sec
     gradient                   ...        0 min,  0.001 sec
 * total energy  :   -10.0231290 Eh     change       -0.2505258E-08 Eh
   gradient norm :     0.3172296 Eh/α   predicted     0.0000000E+00 (-100.00%)
   displ. norm   :     0.4217123 α      lambda       -0.1268587E+00
   maximum displ.:     0.3488842 α      in ANC's #6, #9, #7, ...

........................................................................
.............................. CYCLE    2 ..............................
........................................................................
   1    -10.2314656 -0.102315E+02  0.282E+00    0.74       0.0  T
   2     -9.3008205  0.930645E+00  0.911E+00    0.38       1.0  T
   3    -10.1481806 -0.847360E+00  0.377E+00    0.93       1.0  T
   4    -10.2316251 -0.834445E-01  0.217E+00    0.83       1.0  T
   5    -10.1549402  0.766850E-01  0.331E+00    0.56       1.0  T
   6    -10.2578269 -0.102887E+00  0.869E-01    0.69       1.0  T
   7    -10.2606185 -0.279157E-02  0.660E-01    0.66       1.0  T
   8    -10.2619830 -0.136456E-02  0.498E-01    0.64       1.0  T
   9    -10.2639245 -0.194150E-02  0.479E-02    0.59       1.0  T
  10    -10.2639352 -0.106750E-04  0.161E-02    0.60       2.8  T
  11    -10.2639371 -0.191008E-05  0.399E-03    0.60      11.2  T
  12    -10.2639371 -0.371898E-07  0.273E-03    0.60      16.4  T
  13    -10.2639372 -0.230136E-07  0.113E-03    0.60      39.5  T
  14    -10.2639372 -0.265838E-08  0.622E-04    0.60      71.9  T
  15    -10.2639372 -0.139174E-08  0.460E-05    0.60     972.1  T
     SCC iter.                  ...        0 min,  0.001 sec
     gradient                   ...        0 min,  0.001 sec
 * total energy  :   -10.1307530 Eh     change       -0.1076240E+00 Eh
   gradient norm :     0.2140452 Eh/α   predicted    -0.7470969E-01 ( -30.58%)
   displ. norm   :     0.5704435 α      lambda       -0.1151349E+00
   maximum displ.:     0.3914107 α      in ANC's #6, #9, #7, ...

........................................................................
.............................. CYCLE    3 ..............................
........................................................................
   1    -10.5531376 -0.105531E+02  0.380E+00    1.20       0.0  T
   2    -10.5428738  0.102638E-01  0.255E+00    1.30       1.0  T
   3    -10.4025197  0.140354E+00  0.441E+00    1.37       1.0  T
   4    -10.5162372 -0.113717E+00  0.234E+00    1.17       1.0  T
   5    -10.5611083 -0.448711E-01  0.196E-01    1.23       1.0  T
   6    -10.5610279  0.803880E-04  0.157E-01    1.25       1.0  T
   7    -10.5609563  0.716092E-04  0.164E-01    1.21       1.0  T
   8    -10.5611242 -0.167876E-03  0.210E-02    1.23       2.1  T
   9    -10.5611259 -0.174910E-05  0.825E-03    1.23       5.4  T
  10    -10.5611262 -0.339325E-06  0.117E-03    1.24      38.1  T
  11    -10.5611263 -0.698479E-08  0.273E-04    1.24     163.7  T
  12    -10.5611263 -0.292724E-09  0.639E-05    1.24     699.7  T
     SCC iter.                  ...        0 min,  0.001 sec
     gradient                   ...        0 min,  0.001 sec
 * total energy  :   -10.0877880 Eh     change        0.4296502E-01 Eh
   gradient norm :     0.8132501 Eh/α   predicted    -0.7630024E-01 (-277.59%)
   displ. norm   :     0.3498308 α      lambda       -0.2508743E+00
   maximum displ.:     0.1943546 α      in ANC's #7, #2, #9, ...

........................................................................
.............................. CYCLE    4 ..............................
........................................................................
   1    -10.3768842 -0.103769E+02  0.213E+00    1.10       0.0  T
   2     -9.8913430  0.485541E+00  0.727E+00    0.40       1.0  T
   3    -10.3854849 -0.494142E+00  0.146E+00    0.76       1.0  T
   4    -10.3153731  0.701119E-01  0.297E+00    0.78       1.0  T
   5    -10.3789907 -0.636176E-01  0.134E+00    0.73       1.0  T
   6    -10.3875311 -0.854043E-02  0.898E-01    0.85       1.0  T
   7    -10.3923295 -0.479837E-02  0.393E-01    0.86       1.0  T
   8    -10.3922812  0.482586E-04  0.309E-01    0.85       1.0  T
   9    -10.3924578 -0.176585E-03  0.343E-02    0.88       1.3  T
  10    -10.3924660 -0.822468E-05  0.182E-02    0.88       2.5  T
  11    -10.3924667 -0.653413E-06  0.226E-03    0.88      19.8  T
  12    -10.3924667 -0.146602E-08  0.181E-03    0.88      24.8  T
  13    -10.3924667 -0.152810E-07  0.491E-04    0.88      91.0  T
  14    -10.3924667 -0.297691E-09  0.290E-04    0.88     154.3  T
     SCC iter.                  ...        0 min,  0.001 sec
     gradient                   ...        0 min,  0.001 sec
 * total energy  :   -10.1675448 Eh     change       -0.7975678E-01 Eh
   gradient norm :     0.1477615 Eh/α   predicted    -0.1407883E+00 (  76.52%)
   displ. norm   :     0.4401093 α      lambda       -0.2376015E-01
   maximum displ.:     0.2728222 α      in ANC's #3, #1, #2, ...

........................................................................
.............................. CYCLE    5 ..............................
........................................................................
   1    -10.3745160 -0.103745E+02  0.220E+00    1.11       0.0  T
   2    -10.2178357  0.156680E+00  0.432E+00    1.43       1.0  T
   3    -10.3496191 -0.131783E+00  0.228E+00    1.04       1.0  T
   4    -10.3694939 -0.198748E-01  0.127E+00    1.20       1.0  T
   5    -10.3823977 -0.129037E-01  0.577E-01    1.22       1.0  T
   6    -10.3851854 -0.278772E-02  0.182E-01    1.20       1.0  T
   7    -10.3853777 -0.192363E-03  0.102E-01    1.20       1.0  T
   8    -10.3853727  0.501042E-05  0.638E-02    1.19       1.0  T
   9    -10.3854049 -0.321841E-04  0.124E-02    1.20       3.6  T
  10    -10.3854058 -0.837380E-06  0.353E-03    1.20      12.7  T
  11    -10.3854058 -0.362949E-07  0.257E-04    1.20     174.0  T
  12    -10.3854058  0.890328E-10  0.196E-04    1.20     228.4  T
     SCC iter.                  ...        0 min,  0.001 sec
     gradient                   ...        0 min,  0.001 sec
 * total energy  :   -10.1839556 Eh     change       -0.1641075E-01 Eh
   gradient norm :     0.0940041 Eh/α   predicted    -0.1418118E-01 ( -13.59%)
   displ. norm   :     0.5305378 α      lambda       -0.1830294E-01
   maximum displ.:     0.4081560 α      in ANC's #3, #2, #5, ...

........................................................................
.............................. CYCLE    6 ..............................
........................................................................
   1    -10.3345800 -0.103346E+02  0.367E+00    1.12       0.0  T
   2     -9.7649913  0.569589E+00  0.893E+00    0.98       1.0  T
   3    -10.4000513 -0.635060E+00  0.118E+00    0.95       1.0  T
   4    -10.3839117  0.161396E-01  0.162E+00    0.96       1.0  T
   5    -10.3898069 -0.589520E-02  0.128E+00    1.01       1.0  T
   6    -10.4021107 -0.123037E-01  0.337E-01    0.96       1.0  T
   7    -10.4025130 -0.402287E-03  0.251E-01    0.95       1.0  T
   8    -10.4027980 -0.285002E-03  0.124E-01    0.95       1.0  T
   9    -10.4028649 -0.669177E-04  0.642E-02    0.96       1.0  T
  10    -10.4028909 -0.259998E-04  0.126E-02    0.96       3.6  T
  11    -10.4028917 -0.860642E-06  0.175E-03    0.96      25.5  T
  12    -10.4028918 -0.174138E-07  0.379E-04    0.96     118.0  T
  13    -10.4028918 -0.511212E-09  0.683E-05    0.96     654.9  T
     SCC iter.                  ...        0 min,  0.001 sec
     gradient                   ...        0 min,  0.001 sec
 * total energy  :   -10.1929518 Eh     change       -0.8996196E-02 Eh
   gradient norm :     0.0821383 Eh/α   predicted    -0.1172733E-01 (  30.36%)
   displ. norm   :     0.3631772 α      lambda       -0.1179167E-01
   maximum displ.:     0.2109023 α      in ANC's #4, #2, #1, ...

........................................................................
.............................. CYCLE    7 ..............................
........................................................................
   1    -10.3864767 -0.103865E+02  0.242E+00    0.63       0.0  T
   2     -9.8999332  0.486544E+00  0.781E+00    0.53       1.0  T
   3    -10.3920065 -0.492073E+00  0.176E+00    0.61       1.0  T
   4    -10.4060375 -0.140309E-01  0.828E-01    0.52       1.0  T
   5    -10.4104940 -0.445656E-02  0.300E-01    0.54       1.0  T
   6    -10.4105227 -0.287216E-04  0.220E-01    0.54       1.0  T
   7    -10.4102449  0.277851E-03  0.240E-01    0.53       1.0  T
   8    -10.4105855 -0.340612E-03  0.662E-02    0.53       1.0  T
   9    -10.4106029 -0.173569E-04  0.249E-02    0.54       1.8  T
  10    -10.4106055 -0.262734E-05  0.510E-03    0.54       8.8  T
  11    -10.4106053  0.158685E-06  0.563E-03    0.54       8.0  T
  12    -10.4106055 -0.189790E-06  0.437E-04    0.54     102.2  T
  13    -10.4106055 -0.151037E-09  0.251E-04    0.54     178.2  T
     SCC iter.                  ...        0 min,  0.001 sec
     gradient                   ...        0 min,  0.001 sec
 * total energy  :   -10.2003138 Eh     change       -0.7362021E-02 Eh
   gradient norm :     0.0714659 Eh/α   predicted    -0.6673481E-02 (  -9.35%)
   displ. norm   :     0.4778406 α      lambda       -0.2051382E-01
   maximum displ.:     0.3522541 α      in ANC's #4, #5, #6, ...

........................................................................
.............................. CYCLE    8 ..............................
........................................................................
   1    -10.4023382 -0.104023E+02  0.711E+00    0.28       0.0  T
   2     -9.3821352  0.102020E+01  0.101E+01    1.42       1.0  T
   3     -9.9949394 -0.612804E+00  0.766E+00    0.47       1.0  T
   4    -10.4438464 -0.448907E+00  0.386E+00    0.25       1.0  T
   5    -10.4278916  0.159548E-01  0.355E+00    0.16       1.0  T
   6    -10.3834090  0.444826E-01  0.392E+00    0.27       1.0  T
   7    -10.4718400 -0.884310E-01  0.227E+00    0.24       1.0  T
   8    -10.4006490  0.711910E-01  0.355E+00    0.22       1.0  T
   9    -10.4924859 -0.918369E-01  0.111E+00    0.20       1.0  T
  10    -10.4933016 -0.815743E-03  0.681E-01    0.18       1.0  T
  11    -10.4967923 -0.349067E-02  0.232E-01    0.18       1.0  T
  12    -10.4969553 -0.163077E-03  0.153E-01    0.18       1.0  T
  13    -10.4958741  0.108127E-02  0.411E-01    0.19       1.0  T
  14    -10.4967653 -0.891223E-03  0.223E-01    0.18       1.0  T
  15    -10.4971225 -0.357175E-03  0.381E-02    0.18       1.2  T
  16    -10.4971197  0.273747E-05  0.370E-02    0.18       1.2  T
  17    -10.4971254 -0.568852E-05  0.123E-02    0.18       3.6  T
  18    -10.4971260 -0.577994E-06  0.291E-03    0.18      15.4  T
  19    -10.4971260  0.133538E-07  0.183E-03    0.18      24.5  T
  20    -10.4971260 -0.248202E-07  0.115E-04    0.18     387.3  T
  21    -10.4971260  0.193905E-09  0.200E-04    0.18     223.8  T
     SCC iter.                  ...        0 min,  0.002 sec
     gradient                   ...        0 min,  0.001 sec
 * total energy  :   -10.2208323 Eh     change       -0.2051856E-01 Eh
   gradient norm :     0.2039036 Eh/α   predicted    -0.1259892E-01 ( -38.60%)
   displ. norm   :     0.9009203 α      lambda       -0.4451781E-01
   maximum displ.:     0.5672973 α      in ANC's #4, #5, #6, ...

........................................................................
.............................. CYCLE    9 ..............................
........................................................................
   1    -10.6392058 -0.106392E+02  0.927E+00    0.83       0.0  T
   2     -9.1745820  0.146462E+01  0.126E+01    0.28       1.0  T
   3    -10.5203634 -0.134578E+01  0.636E+00    0.68       1.0  T
   4    -10.7381059 -0.217742E+00  0.376E+00    1.02       1.0  T
   5    -10.7317516  0.635430E-02  0.282E+00    0.87       1.0  T
   6    -10.7431279 -0.113763E-01  0.260E+00    0.96       1.0  T
   7    -10.7464570 -0.332916E-02  0.230E+00    0.95       1.0  T
   8    -10.7642447 -0.177877E-01  0.871E-01    1.01       1.0  T
   9    -10.7603907  0.385400E-02  0.141E+00    1.00       1.0  T
  10    -10.7657904 -0.539965E-02  0.253E-01    1.02       1.0  T
  11    -10.7660971 -0.306681E-03  0.704E-02    1.02       1.0  T
  12    -10.7661078 -0.107592E-04  0.648E-03    1.02       6.9  T
  13    -10.7661078  0.170777E-07  0.424E-03    1.02      10.5  T
  14    -10.7661079 -0.622586E-07  0.871E-04    1.02      51.4  T
  15    -10.7661079 -0.665210E-09  0.503E-04    1.02      89.0  T
     SCC iter.                  ...        0 min,  0.001 sec
     gradient                   ...        0 min,  0.001 sec
 * total energy  :    -9.8943423 Eh     change        0.3264900E+00 Eh
   gradient norm :     1.7906755 Eh/α   predicted    -0.4032543E-01 (-112.35%)
   displ. norm   :     0.5167555 α      lambda       -0.9053835E+00
   maximum displ.:     0.3567940 α      in ANC's #5, #4, #6, ...

........................................................................
.............................. CYCLE   10 ..............................
........................................................................
   1    -10.5284126 -0.105284E+02  0.503E+00    0.42       0.0  T
   2    -10.2379554  0.290457E+00  0.714E+00    1.82       1.0  T
   3    -10.5829783 -0.345023E+00  0.230E+00    0.58       1.0  T
   4    -10.5766027  0.637567E-02  0.187E+00    0.94       1.0  T
   5    -10.5919906 -0.153879E-01  0.606E-01    0.69       1.0  T
   6    -10.5948990 -0.290837E-02  0.357E-01    0.90       1.0  T
   7    -10.5955665 -0.667572E-03  0.142E-01    0.86       1.0  T
   8    -10.5956638 -0.973002E-04  0.270E-02    0.83       1.7  T
   9    -10.5956684 -0.459840E-05  0.761E-03    0.83       5.9  T
  10    -10.5956686 -0.200523E-06  0.374E-03    0.83      12.0  T
  11    -10.5956687 -0.413561E-07  0.858E-04    0.83      52.1  T
  12    -10.5956687 -0.357789E-08  0.168E-04    0.83     266.2  T
     SCC iter.                  ...        0 min,  0.001 sec
     gradient                   ...        0 min,  0.001 sec
 * total energy  :   -10.2308316 Eh     change       -0.3364893E+00 Eh
   gradient norm :     0.2756093 Eh/α   predicted    -0.5735769E+00 (  70.46%)
   displ. norm   :     0.5016636 α      lambda       -0.8094389E-01
   maximum displ.:     0.2790540 α      in ANC's #3, #5, #9, ...

........................................................................
.............................. CYCLE   11 ..............................
........................................................................
   1    -10.4818508 -0.104819E+02  0.287E+00    0.81       0.0  T
   2     -8.9224992  0.155935E+01  0.126E+01    0.85       1.0  T
   3     -9.7382735 -0.815774E+00  0.104E+01    0.23       1.0  T
   4     -9.7877416 -0.494681E-01  0.105E+01    0.19       1.0  T
   5     -9.6704662  0.117275E+00  0.113E+01    0.27       1.0  T
   6    -10.5080490 -0.837583E+00  0.211E+00    0.46       1.0  T
   7    -10.4268422  0.812068E-01  0.424E+00    1.06       1.0  T
   8    -10.4182578  0.858439E-02  0.458E+00    1.15       1.0  T
   9    -10.4043616  0.138963E-01  0.486E+00    1.27       1.0  T
  10    -10.4025578  0.180381E-02  0.488E+00    1.29       1.0  T
  11    -10.4172081 -0.146504E-01  0.460E+00    1.29       1.0  T
  12    -10.4393360 -0.221278E-01  0.403E+00    1.07       1.0  T
  13    -10.4572700 -0.179341E-01  0.362E+00    0.92       1.0  T
  14    -10.4875356 -0.302656E-01  0.283E+00    0.69       1.0  T
  15    -10.5001218 -0.125862E-01  0.244E+00    0.59       1.0  T
  16    -10.5211887 -0.210669E-01  0.157E+00    0.41       1.0  T
  17    -10.5266630 -0.547429E-02  0.124E+00    0.36       1.0  T
  18    -10.5311592 -0.449624E-02  0.852E-01    0.32       1.0  T
  19    -10.5352667 -0.410744E-02  0.343E-01    0.23       1.0  T
  20    -10.5354120 -0.145330E-03  0.280E-01    0.25       1.0  T
  21    -10.5355130 -0.101036E-03  0.663E-02    0.24       1.0  T
  22    -10.5349486  0.564400E-03  0.307E-01    0.22       1.0  T
  23    -10.5353567 -0.408081E-03  0.155E-01    0.25       1.0  T
  24    -10.5354285 -0.718080E-04  0.114E-01    0.25       1.0  T
  25    -10.5355066 -0.781289E-04  0.391E-02    0.24       1.1  T
  26    -10.5355157 -0.901085E-05  0.132E-02    0.24       3.4  T
  27    -10.5355167 -0.100739E-05  0.196E-03    0.24      22.8  T
  28    -10.5355167 -0.896893E-08  0.288E-04    0.24     155.2  T
  29    -10.5355167  0.495531E-09  0.357E-04    0.24     125.3  T
     SCC iter.                  ...        0 min,  0.003 sec
     gradient                   ...        0 min,  0.001 sec
 * total energy  :   -10.2294071 Eh     change        0.1424455E-02 Eh
   gradient norm :     0.3644508 Eh/α   predicted    -0.5065741E-01 (*******%)
   displ. norm   :     0.5869014 α      lambda       -0.6695489E-01
   maximum displ.:     0.4526973 α      in ANC's #1, #4, #6, ...

........................................................................
.............................. CYCLE   12 ..............................
........................................................................
   1    -10.3112837 -0.103113E+02  0.452E+00    0.42       0.0  T
   2     -9.5588212  0.752462E+00  0.968E+00    1.49       1.0  T
   3    -10.4252304 -0.866409E+00  0.271E+00    1.32       1.0  T
   4    -10.4689492 -0.437188E-01  0.127E+00    0.86       1.0  T
   5    -10.4657711  0.317807E-02  0.118E+00    0.86       1.0  T
   6    -10.4715919 -0.582073E-02  0.661E-01    0.95       1.0  T
   7    -10.4724322 -0.840327E-03  0.385E-01    1.02       1.0  T
   8    -10.4724465 -0.143579E-04  0.379E-01    1.02       1.0  T
   9    -10.4731220 -0.675435E-03  0.791E-02    0.99       1.0  T
  10    -10.4731373 -0.152834E-04  0.324E-02    0.98       1.4  T
  11    -10.4731440 -0.675343E-05  0.144E-02    0.99       3.1  T
  12    -10.4731450 -0.101252E-05  0.603E-03    0.99       7.4  T
  13    -10.4731453 -0.234317E-06  0.117E-03    0.99      38.1  T
  14    -10.4731453 -0.480535E-08  0.114E-04    0.99     393.6  T
  15    -10.4731453 -0.123510E-09  0.349E-05    0.99    1280.8  T
     SCC iter.                  ...        0 min,  0.002 sec
     gradient                   ...        0 min,  0.001 sec
 * total energy  :   -10.2670220 Eh     change       -0.3761487E-01 Eh
   gradient norm :     0.1032810 Eh/α   predicted    -0.4500880E-01 (  19.66%)
   displ. norm   :     0.4757707 α      lambda       -0.3740933E-01
   maximum displ.:     0.2666567 α      in ANC's #1, #9, #8, ...

........................................................................
.............................. CYCLE   13 ..............................
........................................................................
   1    -10.5341912 -0.105342E+02  0.320E+00    1.83       0.0  T
   2    -10.3222178  0.211973E+00  0.497E+00    1.55       1.0  T
   3    -10.5052869 -0.183069E+00  0.280E+00    1.74       1.0  T
   4    -10.5387297 -0.334428E-01  0.186E+00    1.85       1.0  T
   5    -10.5578545 -0.191247E-01  0.503E-01    1.84       1.0  T
   6    -10.5592805 -0.142603E-02  0.280E-01    1.82       1.0  T
   7    -10.5595097 -0.229207E-03  0.166E-01    1.82       1.0  T
   8    -10.5596364 -0.126723E-03  0.128E-02    1.80       3.5  T
   9    -10.5596366 -0.124105E-06  0.810E-03    1.81       5.5  T
  10    -10.5596366 -0.654734E-07  0.494E-03    1.81       9.0  T
  11    -10.5596367 -0.553980E-07  0.370E-04    1.81     120.7  T
  12    -10.5596367 -0.185910E-09  0.707E-05    1.81     632.6  T
     SCC iter.                  ...        0 min,  0.001 sec
     gradient                   ...        0 min,  0.001 sec
 * total energy  :   -10.2631522 Eh     change        0.3869751E-02 Eh
   gradient norm :     0.2678053 Eh/α   predicted    -0.2293859E-01 (-692.77%)
   displ. norm   :     0.2507982 α      lambda       -0.4599148E-01
   maximum displ.:     0.2156435 α      in ANC's #3, #9, #4, ...

........................................................................
.............................. CYCLE   14 ..............................
........................................................................
   1    -10.5078728 -0.105079E+02  0.154E+00    1.85       0.0  T
   2    -10.3373539  0.170519E+00  0.396E+00    0.87       1.0  T
   3    -10.5229995 -0.185646E+00  0.673E-01    1.82       1.0  T
   4    -10.5251240 -0.212447E-02  0.375E-01    1.73       1.0  T
   5    -10.5254908 -0.366751E-03  0.214E-01    1.72       1.0  T
   6    -10.5257088 -0.218022E-03  0.117E-01    1.71       1.0  T
   7    -10.5257563 -0.474809E-04  0.477E-02    1.71       1.0  T
   8    -10.5257704 -0.141777E-04  0.158E-02    1.71       2.8  T
   9    -10.5257709 -0.498436E-06  0.374E-03    1.71      12.0  T
  10    -10.5257710 -0.824019E-07  0.127E-03    1.71      35.2  T
  11    -10.5257710 -0.257522E-08  0.136E-04    1.71     327.8  T
  12    -10.5257710 -0.315943E-10  0.130E-04    1.71     344.6  T
     SCC iter.                  ...        0 min,  0.001 sec
     gradient                   ...        0 min,  0.001 sec
 * total energy  :   -10.2809024 Eh     change       -0.1775017E-01 Eh
   gradient norm :     0.0624900 Eh/α   predicted    -0.2444216E-01 (  37.70%)
   displ. norm   :     0.2650729 α      lambda       -0.5856466E-02
   maximum displ.:     0.1604118 α      in ANC's #4, #2, #1, ...

........................................................................
.............................. CYCLE   15 ..............................
........................................................................
   1    -10.5270660 -0.105271E+02  0.106E+00    1.60       0.0  T
   2    -10.5163929  0.106731E-01  0.118E+00    1.70       1.0  T
   3    -10.5218823 -0.548934E-02  0.974E-01    1.55       1.0  T
   4    -10.5266174 -0.473509E-02  0.551E-01    1.66       1.0  T
   5    -10.5287854 -0.216805E-02  0.798E-02    1.63       1.0  T
   6    -10.5288306 -0.452172E-04  0.345E-02    1.64       1.3  T
   7    -10.5288347 -0.411426E-05  0.179E-02    1.64       2.5  T
   8    -10.5288348 -0.113256E-07  0.955E-03    1.64       4.7  T
   9    -10.5288353 -0.581669E-06  0.720E-04    1.64      62.1  T
  10    -10.5288353 -0.494950E-09  0.229E-04    1.64     195.0  T
     SCC iter.                  ...        0 min,  0.001 sec
     gradient                   ...        0 min,  0.001 sec
 * total energy  :   -10.2847280 Eh     change       -0.3825591E-02 Eh
   gradient norm :     0.0496165 Eh/α   predicted    -0.3133980E-02 ( -18.08%)
   displ. norm   :     0.4698726 α      lambda       -0.1409374E-01
   maximum displ.:     0.2699887 α      in ANC's #3, #8, #4, ...

........................................................................
.............................. CYCLE   16 ..............................
........................................................................
   1    -10.5456771 -0.105457E+02  0.254E+00    1.36       0.0  T
   2    -10.4481776  0.974996E-01  0.336E+00    1.39       1.0  T
   3    -10.5180102 -0.698326E-01  0.236E+00    1.28       1.0  T
   4    -10.5465830 -0.285729E-01  0.151E+00    1.43       1.0  T
   5    -10.5576915 -0.111084E-01  0.518E-01    1.42       1.0  T
   6    -10.5600756 -0.238414E-02  0.155E-01    1.43       1.0  T
   7    -10.5602185 -0.142888E-03  0.886E-02    1.45       1.0  T
   8    -10.5601772  0.413366E-04  0.119E-01    1.43       1.0  T
   9    -10.5602271 -0.499911E-04  0.458E-03    1.44       9.8  T
  10    -10.5602272 -0.754430E-07  0.171E-03    1.44      26.2  T
  11    -10.5602272 -0.175645E-07  0.264E-04    1.44     169.3  T
  12    -10.5602272 -0.284217E-09  0.592E-05    1.44     755.5  T
     SCC iter.                  ...        0 min,  0.001 sec
     gradient                   ...        0 min,  0.001 sec
 * total energy  :   -10.2913746 Eh     change       -0.6646630E-02 Eh
   gradient norm :     0.1381558 Eh/α   predicted    -0.8602694E-02 (  29.43%)
   displ. norm   :     0.3914213 α      lambda       -0.1417258E-01
   maximum displ.:     0.2628172 α      in ANC's #4, #8, #5, ...

........................................................................
.............................. CYCLE   17 ..............................
........................................................................
   1    -10.5506420 -0.105506E+02  0.185E+00    1.41       0.0  T
   2    -10.4786542  0.719878E-01  0.276E+00    1.40       1.0  T
   3    -10.5229206 -0.442663E-01  0.203E+00    1.37       1.0  T
   4    -10.5469853 -0.240648E-01  0.131E+00    1.44       1.0  T
   5    -10.5571295 -0.101442E-01  0.329E-01    1.45       1.0  T
   6    -10.5579543 -0.824756E-03  0.131E-01    1.45       1.0  T
   7    -10.5580470 -0.927689E-04  0.750E-02    1.45       1.0  T
   8    -10.5580504 -0.339063E-05  0.668E-02    1.44       1.0  T
   9    -10.5580657 -0.153067E-04  0.512E-03    1.45       8.7  T
  10    -10.5580658 -0.908837E-07  0.130E-03    1.45      34.5  T
  11    -10.5580658 -0.247526E-08  0.192E-04    1.45     233.2  T
  12    -10.5580658 -0.129299E-09  0.100E-04    1.45     446.2  T
     SCC iter.                  ...        0 min,  0.001 sec
     gradient                   ...        0 min,  0.001 sec
 * total energy  :   -10.3016161 Eh     change       -0.1024143E-01 Eh
   gradient norm :     0.1359222 Eh/α   predicted    -0.8171974E-02 ( -20.21%)
   displ. norm   :     0.2999349 α      lambda       -0.1762035E-01
   maximum displ.:     0.1924314 α      in ANC's #4, #8, #2, ...

........................................................................
.............................. CYCLE   18 ..............................
........................................................................
   1    -10.5713597 -0.105714E+02  0.104E+00    1.53       0.0  T
   2    -10.5633009  0.805882E-02  0.110E+00    1.47       1.0  T
   3    -10.5573487  0.595213E-02  0.123E+00    1.55       1.0  T
   4    -10.5713699 -0.140212E-01  0.294E-01    1.53       1.0  T
   5    -10.5718943 -0.524321E-03  0.724E-02    1.53       1.0  T
   6    -10.5719227 -0.284388E-04  0.377E-02    1.53       1.2  T
   7    -10.5719258 -0.312746E-05  0.213E-02    1.53       2.1  T
   8    -10.5719263 -0.474021E-06  0.679E-03    1.52       6.6  T
   9    -10.5719265 -0.219824E-06  0.110E-03    1.53      40.6  T
  10    -10.5719265 -0.522654E-08  0.166E-04    1.53     269.2  T
  11    -10.5719265 -0.843734E-10  0.835E-05    1.53     535.3  T
     SCC iter.                  ...        0 min,  0.001 sec
     gradient                   ...        0 min,  0.001 sec
 * total energy  :   -10.3128301 Eh     change       -0.1121407E-01 Eh
   gradient norm :     0.0792901 Eh/α   predicted    -0.9602752E-02 ( -14.37%)
   displ. norm   :     0.4662803 α      lambda       -0.1578394E-01
   maximum displ.:     0.3847697 α      in ANC's #8, #4, #3, ...

........................................................................
.............................. CYCLE   19 ..............................
........................................................................
   1    -10.5334118 -0.105334E+02  0.198E+00    1.60       0.0  T
   2    -10.2470052  0.286407E+00  0.515E+00    1.21       1.0  T
   3    -10.5397071 -0.292702E+00  0.140E+00    1.65       1.0  T
   4    -10.5345980  0.510905E-02  0.119E+00    1.57       1.0  T
   5    -10.5490322 -0.144342E-01  0.404E-01    1.63       1.0  T
   6    -10.5500120 -0.979812E-03  0.212E-01    1.61       1.0  T
   7    -10.5499872  0.248463E-04  0.236E-01    1.61       1.0  T
   8    -10.5500658 -0.785938E-04  0.155E-01    1.61       1.0  T
   9    -10.5501292 -0.634384E-04  0.471E-03    1.60       9.5  T
  10    -10.5501293 -0.969515E-07  0.443E-03    1.60      10.1  T
  11    -10.5501294 -0.459322E-07  0.346E-04    1.60     129.3  T
  12    -10.5501294 -0.681204E-09  0.154E-04    1.60     291.3  T
     SCC iter.                  ...        0 min,  0.001 sec
     gradient                   ...        0 min,  0.001 sec
 * total energy  :   -10.3187603 Eh     change       -0.5930181E-02 Eh
   gradient norm :     0.0729152 Eh/α   predicted    -0.9607820E-02 (  62.02%)
   displ. norm   :     0.2420832 α      lambda       -0.7394354E-02
   maximum displ.:     0.1584312 α      in ANC's #1, #3, #5, ...

........................................................................
.............................. CYCLE   20 ..............................
........................................................................
   1    -10.5768662 -0.105769E+02  0.112E+00    1.61       0.0  T
   2    -10.4854152  0.914510E-01  0.293E+00    1.20       1.0  T
   3    -10.5820970 -0.966818E-01  0.623E-01    1.58       1.0  T
   4    -10.5819442  0.152830E-03  0.541E-01    1.59       1.0  T
   5    -10.5835926 -0.164839E-02  0.239E-01    1.55       1.0  T
   6    -10.5840510 -0.458439E-03  0.329E-02    1.56       1.4  T
   7    -10.5840532 -0.221543E-05  0.178E-02    1.56       2.5  T
   8    -10.5840541 -0.888522E-06  0.616E-03    1.56       7.3  T
   9    -10.5840543 -0.197099E-06  0.170E-03    1.56      26.3  T
  10    -10.5840543 -0.164230E-07  0.336E-04    1.56     133.0  T
  11    -10.5840543 -0.108302E-08  0.837E-05    1.56     534.1  T
     SCC iter.                  ...        0 min,  0.001 sec
     gradient                   ...        0 min,  0.001 sec
 * total energy  :   -10.3220029 Eh     change       -0.3242568E-02 Eh
   gradient norm :     0.0381627 Eh/α   predicted    -0.3913846E-02 (  20.70%)
   displ. norm   :     0.0616991 α      lambda       -0.9392578E-03
   maximum displ.:     0.0315372 α      in ANC's #8, #6, #1, ...
 * RMSD in coord.:     1.6604936 α      energy gain  -0.2988739E+00 Eh

generating ANC from model Hessian ...
Using Lindh-Hessian (1995)
 Shifting diagonal of input Hessian by    9.7740704612747451E-003
 Lowest  eigenvalues of input Hessian
   -0.000000   -0.000000   -0.000000   -0.000000    0.000000    0.000000
    0.010000    0.010306    0.070910    0.322818    0.444761    0.916325
    1.199683    2.015023    2.710730
 Highest eigenvalues
    0.322818    0.444761    0.916325    1.199683    2.015023    2.710730


........................................................................
.............................. CYCLE   21 ..............................
........................................................................
   1    -10.5838101 -0.105838E+02  0.282E-01    1.58       0.0  T
   2    -10.5783704  0.543978E-02  0.718E-01    1.61       1.0  T
   3    -10.5840153 -0.564495E-02  0.173E-01    1.59       1.0  T
   4    -10.5839692  0.461521E-04  0.169E-01    1.59       1.0  T
   5    -10.5841980 -0.228869E-03  0.169E-02    1.60       2.6  T
   6    -10.5842005 -0.244993E-05  0.679E-03    1.60       6.6  T
   7    -10.5842005 -0.474787E-07  0.372E-03    1.60      12.0  T
   8    -10.5842006 -0.685159E-07  0.639E-04    1.60      70.0  T
   9    -10.5842006 -0.258031E-08  0.341E-04    1.60     131.1  T
     SCC iter.                  ...        0 min,  0.001 sec
     gradient                   ...        0 min,  0.001 sec
 * total energy  :   -10.3226988 Eh     change       -0.6959500E-03 Eh
   gradient norm :     0.0270430 Eh/α   predicted     0.0000000E+00 (-100.00%)
   displ. norm   :     0.1087896 α      lambda       -0.1295670E-02
   maximum displ.:     0.0842461 α      in ANC's #3, #1, #5, ...

........................................................................
.............................. CYCLE   22 ..............................
........................................................................
   1    -10.5914177 -0.105914E+02  0.388E-01    1.59       0.0  T
   2    -10.5871157  0.430199E-02  0.644E-01    1.58       1.0  T
   3    -10.5904603 -0.334465E-02  0.394E-01    1.58       1.0  T
   4    -10.5913660 -0.905664E-03  0.197E-01    1.60       1.0  T
   5    -10.5917209 -0.354892E-03  0.139E-02    1.59       3.2  T
   6    -10.5917210 -0.470711E-07  0.954E-03    1.59       4.7  T
   7    -10.5917214 -0.437356E-06  0.484E-03    1.59       9.2  T
   8    -10.5917214 -0.543524E-07  0.511E-04    1.59      87.6  T
   9    -10.5917214  0.595072E-09  0.447E-04    1.59     100.1  T
     SCC iter.                  ...        0 min,  0.001 sec
     gradient                   ...        0 min,  0.001 sec
 * total energy  :   -10.3235057 Eh     change       -0.8068833E-03 Eh
   gradient norm :     0.0128417 Eh/α   predicted    -0.6555014E-03 ( -18.76%)
   displ. norm   :     0.5810706 α      lambda       -0.6049216E-02
   maximum displ.:     0.4425440 α      in ANC's #3, #1, #2, ...

........................................................................
.............................. CYCLE   23 ..............................
........................................................................
   1    -10.5993422 -0.105993E+02  0.194E+00    1.51       0.0  T
   2    -10.5643341  0.350081E-01  0.204E+00    1.33       1.0  T
   3    -10.5423672  0.219668E-01  0.247E+00    1.40       1.0  T
   4    -10.5997033 -0.573360E-01  0.678E-01    1.53       1.0  T
   5    -10.6015037 -0.180049E-02  0.250E-01    1.49       1.0  T
   6    -10.6016188 -0.115022E-03  0.177E-01    1.49       1.0  T
   7    -10.6017286 -0.109794E-03  0.109E-01    1.48       1.0  T
   8    -10.6017615 -0.329655E-04  0.126E-02    1.47       3.5  T
   9    -10.6017632 -0.169164E-05  0.219E-03    1.47      20.5  T
  10    -10.6017632 -0.532446E-08  0.115E-03    1.47      39.1  T
  11    -10.6017632 -0.685488E-08  0.140E-04    1.47     318.6  T
  12    -10.6017632 -0.516049E-10  0.127E-05    1.47    3529.4  T
     SCC iter.                  ...        0 min,  0.001 sec
     gradient                   ...        0 min,  0.001 sec
 * total energy  :   -10.3232709 Eh     change        0.2348311E-03 Eh
   gradient norm :     0.0474078 Eh/α   predicted    -0.4045880E-02 (*******%)
   displ. norm   :     0.2610056 α      lambda       -0.5654837E-02
   maximum displ.:     0.2062037 α      in ANC's #3, #1, #2, ...

........................................................................
.............................. CYCLE   24 ..............................
........................................................................
   1    -10.5906467 -0.105906E+02  0.877E-01    1.59       0.0  T
   2    -10.5761731  0.144735E-01  0.127E+00    1.58       1.0  T
   3    -10.5852184 -0.904529E-02  0.869E-01    1.58       1.0  T
   4    -10.5883050 -0.308660E-02  0.634E-01    1.58       1.0  T
   5    -10.5918623 -0.355724E-02  0.649E-02    1.62       1.0  T
   6    -10.5918825 -0.202456E-04  0.305E-02    1.61       1.5  T
   7    -10.5918847 -0.216259E-05  0.154E-02    1.61       2.9  T
   8    -10.5918850 -0.361555E-06  0.304E-03    1.61      14.7  T
   9    -10.5918851 -0.277409E-07  0.136E-03    1.61      33.0  T
  10    -10.5918851 -0.100862E-07  0.240E-04    1.61     186.5  T
  11    -10.5918851 -0.331344E-09  0.541E-05    1.61     826.7  T
     SCC iter.                  ...        0 min,  0.001 sec
     gradient                   ...        0 min,  0.001 sec
 * total energy  :   -10.3264884 Eh     change       -0.3217473E-02 Eh
   gradient norm :     0.0439431 Eh/α   predicted    -0.3020029E-02 (  -6.14%)
   displ. norm   :     0.3319930 α      lambda       -0.3551154E-02
   maximum displ.:     0.3036820 α      in ANC's #2, #1, #3, ...

........................................................................
.............................. CYCLE   25 ..............................
........................................................................
   1    -10.5908147 -0.105908E+02  0.111E+00    1.58       0.0  T
   2    -10.5901955  0.619189E-03  0.708E-01    1.55       1.0  T
   3    -10.5762550  0.139405E-01  0.124E+00    1.59       1.0  T
   4    -10.5859775 -0.972249E-02  0.674E-01    1.55       1.0  T
   5    -10.5910082 -0.503063E-02  0.302E-02    1.56       1.5  T
   6    -10.5910093 -0.115723E-05  0.191E-02    1.56       2.3  T
   7    -10.5910102 -0.892642E-06  0.987E-03    1.56       4.5  T
   8    -10.5910105 -0.287450E-06  0.111E-03    1.56      40.2  T
   9    -10.5910105 -0.766832E-08  0.541E-04    1.56      82.7  T
  10    -10.5910105 -0.717128E-09  0.105E-04    1.56     426.2  T
     SCC iter.                  ...        0 min,  0.001 sec
     gradient                   ...        0 min,  0.001 sec
 * total energy  :   -10.3262352 Eh     change        0.2531485E-03 Eh
   gradient norm :     0.0244579 Eh/α   predicted    -0.1971282E-02 (-878.71%)
   displ. norm   :     0.2188973 α      lambda       -0.2702612E-02
   maximum displ.:     0.1822950 α      in ANC's #2, #3, #1, ...

........................................................................
.............................. CYCLE   26 ..............................
........................................................................
   1    -10.5962741 -0.105963E+02  0.717E-01    1.58       0.0  T
   2    -10.5962221  0.519383E-04  0.441E-01    1.59       1.0  T
   3    -10.5921835  0.403867E-02  0.610E-01    1.56       1.0  T
   4    -10.5958323 -0.364888E-02  0.209E-01    1.58       1.0  T
   5    -10.5962896 -0.457269E-03  0.273E-02    1.59       1.6  T
   6    -10.5962943 -0.465248E-05  0.121E-02    1.59       3.7  T
   7    -10.5962944 -0.182580E-06  0.260E-03    1.59      17.2  T
   8    -10.5962945 -0.388568E-07  0.434E-04    1.59     103.0  T
   9    -10.5962945 -0.556740E-09  0.293E-04    1.59     152.7  T
     SCC iter.                  ...        0 min,  0.001 sec
     gradient                   ...        0 min,  0.001 sec
 * total energy  :   -10.3276371 Eh     change       -0.1401934E-02 Eh
   gradient norm :     0.0146842 Eh/α   predicted    -0.1416058E-02 (   1.01%)
   displ. norm   :     0.1193489 α      lambda       -0.3311903E-03
   maximum displ.:     0.1066745 α      in ANC's #3, #2, #5, ...

........................................................................
.............................. CYCLE   27 ..............................
........................................................................
   1    -10.5915944 -0.105916E+02  0.376E-01    1.60       0.0  T
   2    -10.5914607  0.133687E-03  0.257E-01    1.60       1.0  T
   3    -10.5883852  0.307550E-02  0.546E-01    1.59       1.0  T
   4    -10.5911088 -0.272355E-02  0.216E-01    1.59       1.0  T
   5    -10.5916161 -0.507328E-03  0.177E-02    1.60       2.5  T
   6    -10.5916177 -0.160343E-05  0.664E-03    1.60       6.7  T
   7    -10.5916178 -0.566280E-07  0.234E-03    1.60      19.1  T
   8    -10.5916178 -0.229740E-07  0.504E-04    1.60      88.7  T
   9    -10.5916178 -0.155854E-08  0.198E-04    1.60     226.4  T
     SCC iter.                  ...        0 min,  0.001 sec
     gradient                   ...        0 min,  0.001 sec
 * total energy  :   -10.3278382 Eh     change       -0.2010264E-03 Eh
   gradient norm :     0.0232768 Eh/α   predicted    -0.1679546E-03 ( -16.45%)
   displ. norm   :     0.1227794 α      lambda       -0.4774297E-03
   maximum displ.:     0.0819983 α      in ANC's #2, #3, #5, ...

........................................................................
.............................. CYCLE   28 ..............................
........................................................................
   1    -10.5925842 -0.105926E+02  0.417E-01    1.60       0.0  T
   2    -10.5908824  0.170181E-02  0.461E-01    1.59       1.0  T
   3    -10.5904413  0.441074E-03  0.490E-01    1.58       1.0  T
   4    -10.5925210 -0.207969E-02  0.144E-01    1.61       1.0  T
   5    -10.5927081 -0.187082E-03  0.136E-02    1.60       3.3  T
   6    -10.5927090 -0.920930E-06  0.639E-03    1.60       7.0  T
   7    -10.5927091 -0.373628E-07  0.328E-03    1.60      13.6  T
   8    -10.5927091 -0.107504E-07  0.631E-04    1.60      70.9  T
   9    -10.5927091 -0.320946E-08  0.212E-04    1.60     210.5  T
     SCC iter.                  ...        0 min,  0.001 sec
     gradient                   ...        0 min,  0.001 sec
 * total energy  :   -10.3281352 Eh     change       -0.2970491E-03 Eh
   gradient norm :     0.0133875 Eh/α   predicted    -0.2423127E-03 ( -18.43%)
   displ. norm   :     0.1292072 α      lambda       -0.4844400E-03
   maximum displ.:     0.1017443 α      in ANC's #3, #5, #8, ...

........................................................................
.............................. CYCLE   29 ..............................
........................................................................
   1    -10.5961159 -0.105961E+02  0.420E-01    1.59       0.0  T
   2    -10.5960128  0.103082E-03  0.277E-01    1.58       1.0  T
   3    -10.5914256  0.458719E-02  0.649E-01    1.58       1.0  T
   4    -10.5959013 -0.447570E-02  0.155E-01    1.59       1.0  T
   5    -10.5961302 -0.228843E-03  0.168E-02    1.58       2.7  T
   6    -10.5961326 -0.238143E-05  0.636E-03    1.58       7.0  T
   7    -10.5961326 -0.294177E-07  0.251E-03    1.58      17.8  T
   8    -10.5961326 -0.208101E-07  0.761E-04    1.58      58.8  T
   9    -10.5961326 -0.344378E-08  0.937E-05    1.58     477.5  T
     SCC iter.                  ...        0 min,  0.001 sec
     gradient                   ...        0 min,  0.001 sec
 * total energy  :   -10.3284725 Eh     change       -0.3372760E-03 Eh
   gradient norm :     0.0099177 Eh/α   predicted    -0.2462644E-03 ( -26.98%)
   displ. norm   :     0.1030641 α      lambda       -0.2639128E-03
   maximum displ.:     0.0808557 α      in ANC's #3, #5, #7, ...

........................................................................
.............................. CYCLE   30 ..............................
........................................................................
   1    -10.5978136 -0.105978E+02  0.337E-01    1.58       0.0  T
   2    -10.5972672  0.546425E-03  0.302E-01    1.58       1.0  T
   3    -10.5955452  0.172198E-02  0.473E-01    1.57       1.0  T
   4    -10.5978003 -0.225508E-02  0.768E-02    1.59       1.0  T
   5    -10.5978549 -0.546087E-04  0.106E-02    1.58       4.2  T
   6    -10.5978553 -0.374969E-06  0.572E-03    1.58       7.8  T
   7    -10.5978553 -0.594299E-07  0.266E-03    1.58      16.8  T
   8    -10.5978554 -0.275966E-07  0.414E-04    1.58     107.9  T
   9    -10.5978554 -0.347697E-09  0.245E-04    1.58     182.4  T
     SCC iter.                  ...        0 min,  0.001 sec
     gradient                   ...        0 min,  0.001 sec
 * total energy  :   -10.3286481 Eh     change       -0.1755664E-03 Eh
   gradient norm :     0.0038592 Eh/α   predicted    -0.1333578E-03 ( -24.04%)
   displ. norm   :     0.1094521 α      lambda       -0.9674691E-04
   maximum displ.:     0.0892396 α      in ANC's #3, #5, #8, ...

........................................................................
.............................. CYCLE   31 ..............................
........................................................................
   1    -10.5958591 -0.105959E+02  0.354E-01    1.59       0.0  T
   2    -10.5953249  0.534159E-03  0.308E-01    1.59       1.0  T
   3    -10.5931352  0.218976E-02  0.514E-01    1.58       1.0  T
   4    -10.5957654 -0.263023E-02  0.122E-01    1.58       1.0  T
   5    -10.5959018 -0.136429E-03  0.116E-02    1.59       3.9  T
   6    -10.5959021 -0.291097E-06  0.612E-03    1.59       7.3  T
   7    -10.5959022 -0.567816E-07  0.218E-03    1.59      20.5  T
   8    -10.5959022 -0.721804E-08  0.248E-04    1.59     180.2  T
   9    -10.5959022 -0.217630E-09  0.164E-04    1.59     272.8  T
     SCC iter.                  ...        0 min,  0.001 sec
     gradient                   ...        0 min,  0.001 sec
 * total energy  :   -10.3286759 Eh     change       -0.2784266E-04 Eh
   gradient norm :     0.0098698 Eh/α   predicted    -0.4895155E-04 (  75.81%)
   displ. norm   :     0.0232599 α      lambda       -0.1156564E-03
   maximum displ.:     0.0126192 α      in ANC's #4, #8, #5, ...

........................................................................
.............................. CYCLE   32 ..............................
........................................................................
   1    -10.6004988 -0.106005E+02  0.111E-01    1.58       0.0  T
   2    -10.5998913  0.607495E-03  0.247E-01    1.56       1.0  T
   3    -10.6005058 -0.614467E-03  0.827E-02    1.57       1.0  T
   4    -10.6005473 -0.415710E-04  0.537E-02    1.58       1.0  T
   5    -10.6005646 -0.172935E-04  0.889E-03    1.57       5.0  T
   6    -10.6005650 -0.384325E-06  0.417E-03    1.57      10.7  T
   7    -10.6005651 -0.626073E-07  0.162E-03    1.57      27.5  T
   8    -10.6005651 -0.851173E-08  0.370E-04    1.57     121.0  T
   9    -10.6005651 -0.817643E-09  0.128E-04    1.57     348.5  T
     SCC iter.                  ...        0 min,  0.001 sec
     gradient                   ...        0 min,  0.001 sec
 * total energy  :   -10.3287057 Eh     change       -0.2983762E-04 Eh
   gradient norm :     0.0045710 Eh/α   predicted    -0.5786033E-04 (  93.92%)
   displ. norm   :     0.0104170 α      lambda       -0.2220778E-04
   maximum displ.:     0.0083105 α      in ANC's #3, #2, #1, ...

........................................................................
.............................. CYCLE   33 ..............................
........................................................................
   1    -10.5988131 -0.105988E+02  0.403E-02    1.58       0.0  T
   2    -10.5987896  0.234739E-04  0.551E-02    1.58       1.0  T
   3    -10.5988067 -0.170403E-04  0.356E-02    1.58       1.3  T
   4    -10.5988077 -0.104935E-05  0.328E-02    1.58       1.4  T
   5    -10.5988177 -0.994116E-05  0.246E-03    1.58      18.2  T
   6    -10.5988177 -0.219554E-07  0.139E-03    1.58      32.1  T
   7    -10.5988177 -0.621985E-08  0.351E-04    1.58     127.6  T
   8    -10.5988177 -0.380448E-09  0.903E-05    1.58     495.3  T
     SCC iter.                  ...        0 min,  0.001 sec
     gradient                   ...        0 min,  0.001 sec
 * total energy  :   -10.3287176 Eh     change       -0.1186360E-04 Eh
   gradient norm :     0.0009779 Eh/α   predicted    -0.1110293E-04 (  -6.41%)
   displ. norm   :     0.0056203 α      lambda       -0.1673053E-05
   maximum displ.:     0.0035176 α      in ANC's #2, #3, #4, ...

........................................................................
.............................. CYCLE   34 ..............................
........................................................................
   1    -10.5986133 -0.105986E+02  0.192E-02    1.58       0.0  T
   2    -10.5986123  0.954368E-06  0.151E-02    1.58       3.0  T
   3    -10.5986032  0.909647E-05  0.305E-02    1.58       1.5  T
   4    -10.5986130 -0.975212E-05  0.650E-03    1.58       6.9  T
   5    -10.5986134 -0.384010E-06  0.484E-04    1.58      92.4  T
   6    -10.5986134 -0.126111E-08  0.257E-04    1.58     173.8  T
     SCC iter.                  ...        0 min,  0.001 sec
     gradient                   ...        0 min,  0.001 sec
 * total energy  :   -10.3287197 Eh     change       -0.2150661E-05 Eh
   gradient norm :     0.0011077 Eh/α   predicted    -0.8366965E-06 ( -61.10%)
   displ. norm   :     0.0263110 α      lambda       -0.7780683E-05
   maximum displ.:     0.0179663 α      in ANC's #3, #4, #2, ...

........................................................................
.............................. CYCLE   35 ..............................
........................................................................
   1    -10.5983941 -0.105984E+02  0.870E-02    1.58       0.0  T
   2    -10.5983899  0.418245E-05  0.566E-02    1.58       1.0  T
   3    -10.5981360  0.253919E-03  0.150E-01    1.58       1.0  T
   4    -10.5983944 -0.258439E-03  0.279E-03    1.58      16.0  T
   5    -10.5983945 -0.218829E-07  0.190E-03    1.58      23.5  T
   6    -10.5983945 -0.867057E-08  0.117E-03    1.58      38.2  T
   7    -10.5983945 -0.944716E-08  0.230E-04    1.58     194.1  T
   8    -10.5983945 -0.224256E-09  0.411E-05    1.58    1087.1  T
     SCC iter.                  ...        0 min,  0.001 sec
     gradient                   ...        0 min,  0.001 sec
 * total energy  :   -10.3287279 Eh     change       -0.8186613E-05 Eh
   gradient norm :     0.0014066 Eh/α   predicted    -0.3891366E-05 ( -52.47%)
   displ. norm   :     0.0216533 α      lambda       -0.5155189E-05
   maximum displ.:     0.0145516 α      in ANC's #4, #3, #5, ...

........................................................................
.............................. CYCLE   36 ..............................
........................................................................
   1    -10.5985147 -0.105985E+02  0.725E-02    1.58       0.0  T
   2    -10.5985141  0.536015E-06  0.451E-02    1.58       1.0  T
   3    -10.5984496  0.645235E-04  0.751E-02    1.58       1.0  T
   4    -10.5985145 -0.648749E-04  0.572E-03    1.58       7.8  T
   5    -10.5985148 -0.287243E-06  0.130E-03    1.58      34.4  T
   6    -10.5985148 -0.174137E-08  0.407E-04    1.58     110.0  T
   7    -10.5985148 -0.598407E-09  0.182E-04    1.58     246.2  T
     SCC iter.                  ...        0 min,  0.001 sec
     gradient                   ...        0 min,  0.001 sec
 * total energy  :   -10.3287331 Eh     change       -0.5125437E-05 Eh
   gradient norm :     0.0011221 Eh/α   predicted    -0.2576795E-05 ( -49.73%)
   displ. norm   :     0.0107484 α      lambda       -0.1774740E-05
   maximum displ.:     0.0070721 α      in ANC's #4, #3, #2, ...

........................................................................
.............................. CYCLE   37 ..............................
........................................................................
   1    -10.5988354 -0.105988E+02  0.371E-02    1.58       0.0  T
   2    -10.5988251  0.102911E-04  0.382E-02    1.58       1.2  T
   3    -10.5988171  0.803149E-05  0.443E-02    1.58       1.0  T
   4    -10.5988351 -0.180198E-04  0.109E-02    1.58       4.1  T
   5    -10.5988362 -0.108485E-05  0.720E-04    1.58      62.1  T
   6    -10.5988362 -0.766462E-09  0.331E-04    1.58     134.9  T
   7    -10.5988362 -0.358684E-09  0.123E-04    1.58     362.4  T
     SCC iter.                  ...        0 min,  0.001 sec
     gradient                   ...        0 min,  0.001 sec
 * total energy  :   -10.3287346 Eh     change       -0.1561934E-05 Eh
   gradient norm :     0.0002893 Eh/α   predicted    -0.8875414E-06 ( -43.18%)
   displ. norm   :     0.0025913 α      lambda       -0.1600800E-06
   maximum displ.:     0.0020341 α      in ANC's #2, #1, #4, ...

   *** GEOMETRY OPTIMIZATION CONVERGED AFTER 37 ITERATIONS ***

------------------------------------------------------------------------
 total energy gain   :        -0.3056056 Eh     -191.7704 kcal/mol
 total RMSD          :         1.9373273 a0        1.0252 Å
 total power (kW/mol):       -21.6856071 (step)-5515.6939 (real)
------------------------------------------------------------------------

 ANCopt (total)                0 d,  0 h,  0 min,  0.145 sec
 optimizer setup                ...        0 min,  0.000 sec (  0.044%)
 model hessian                  ...        0 min,  0.000 sec (  0.075%)
 ANC generation                 ...        0 min,  0.000 sec (  0.080%)
 coordinate transformation      ...        0 min,  0.000 sec (  0.056%)
 single point calculation       ...        0 min,  0.142 sec ( 97.829%)
 optimization log               ...        0 min,  0.001 sec (  0.604%)
 hessian update                 ...        0 min,  0.000 sec (  0.054%)
 rational function              ...        0 min,  0.001 sec (  0.598%)

================
 final structure:
================
5
 xtb: 6.2.2 (9d81278992624c895f80dd42a50cac0aa55982e2)
C        -1.27837006961722    0.13625920517617    0.01736727221099
C        -0.00004721202542   -0.00113807425132   -0.00008410720273
C         1.27834070921714   -0.13632513408896   -0.01771952199425
C        -2.54640563126819    0.27328087378615    0.03307608906563
C         2.54648220369369   -0.27207687062205   -0.03263973207963

 Bond Distances (Angstroems)
 ---------------------------
C1-C2=1.2858         C1-C4=1.2755         C2-C1=1.2858         C2-C3=1.2856         C3-C2=1.2856         C3-C5=1.2755         
C4-C1=1.2755         C5-C3=1.2755         
 C  C  Rav=1.2806 sigma=0.0051  Rmin=1.2755  Rmax=1.2858     4

 selected bond angles (degree)
 --------------------
C4-C1-C2=179.92                C3-C2-C1=179.90                C5-C3-C2=179.86                

 selected dihedral angles (degree)
 ---------------------------------
C3-C2-C1-C4= 60.81            C5-C3-C2-C1=127.30            
           -------------------------------------------------
          |                Final Singlepoint                |
           -------------------------------------------------

          ...................................................
          :                      SETUP                      :
          :.................................................:
          :  # basis functions                  20          :
          :  # atomic orbitals                  20          :
          :  # shells                           10          :
          :  # electrons                        20          :
          :  max. iterations                   250          :
          :  Hamiltonian                  GFN2-xTB          :
          :  restarted?                      false          :
          :  GBSA solvation                  false          :
          :  PC potential                    false          :
          :  electronic temp.          300.0000000     K    :
          :  accuracy                    1.0000000          :
          :  -> integral cutoff          0.2500000E+02      :
          :  -> integral neglect         0.1000000E-07      :
          :  -> SCF convergence          0.1000000E-05 Eh   :
          :  -> wf. convergence          0.1000000E-03 e    :
          :  Broyden damping             0.4000000          :
          ...................................................

 iter      E             dE          RMSdq      gap      omega  full diag
   1    -10.5988362 -0.105988E+02  0.442E-05    1.58       0.0  T
   2    -10.5988362  0.371294E-10  0.723E-05    1.58     618.5  T
   3    -10.5988362 -0.384315E-10  0.320E-05    1.58    1399.6  T

   *** convergence criteria satisfied after 3 iterations ***

         #    Occupation            Energy/Eh            Energy/eV
      -------------------------------------------------------------
         1        2.0000           -0.6928727             -18.8540
       ...           ...                  ...                  ...
         4        2.0000           -0.6136627             -16.6986
         5        2.0000           -0.5388617             -14.6632
         6        2.0000           -0.5388616             -14.6632
         7        2.0000           -0.4709026             -12.8139
         8        2.0000           -0.4709022             -12.8139
         9        2.0000           -0.4636696             -12.6171
        10        2.0000           -0.4471223             -12.1668 (HOMO)
        11                         -0.3891414             -10.5891 (LUMO)
        12                         -0.3891413             -10.5891
        13                         -0.2441924              -6.6448
        14                         -0.2441920              -6.6448
        15                         -0.1167972              -3.1782
       ...                                ...                  ...
        20                          1.4162429              38.5379
      -------------------------------------------------------------
                  HL-Gap            0.0579809 Eh            1.5777 eV
             Fermi-level           -0.4184337 Eh          -11.3862 eV

 SCC (total)                   0 d,  0 h,  0 min,  0.003 sec
 SCC setup                      ...        0 min,  0.000 sec (  2.137%)
 Dispersion                     ...        0 min,  0.000 sec (  0.556%)
 integral evaluation            ...        0 min,  0.001 sec ( 42.419%)
 zeroth order Hamiltonian       ...        0 min,  0.000 sec (  0.485%)
 iterations                     ...        0 min,  0.000 sec ( 11.726%)
 molecular gradient             ...        0 min,  0.001 sec ( 41.041%)
 printout                       ...        0 min,  0.000 sec (  1.511%)

         :::::::::::::::::::::::::::::::::::::::::::::::::::::
         ::                     SUMMARY                     ::
         :::::::::::::::::::::::::::::::::::::::::::::::::::::
         :: total energy             -10.328734623394 Eh    ::
         :: gradient norm              0.000287232566 Eh/a0 ::
         :: HOMO-LUMO gap              1.577739891515 eV    ::
         ::.................................................::
         :: SCC energy               -10.598836157592 Eh    ::
         :: -> isotropic ES           -0.017418308915 Eh    ::
         :: -> anisotropic ES         -0.000330720237 Eh    ::
         :: -> anisotropic XC          0.021786465722 Eh    ::
         :: -> dispersion             -0.002738266752 Eh    ::
         :: repulsion energy           0.270102888516 Eh    ::
         :: add. restraining           0.000000000000 Eh    ::
         :::::::::::::::::::::::::::::::::::::::::::::::::::::

           ------------------------------------------------- 
          |                Numerical Hessian                |
           ------------------------------------------------- 
step length          :   0.00500
SCC accuracy         :   0.30000
Hessian scale factor :   1.00000
frozen atoms in %    :   0.00000    0
RMS gradient         :   0.00028
estimated CPU  time      0.00 min
estimated wall time      0.00 min

writing file <hessian>.

 vibrational frequencies (cm-1)
eigval :        0.00     0.00     0.00     0.00     0.00   100.96
eigval :      101.19   211.59   211.77   492.01   492.05   821.82
eigval :     1551.67  1994.58  2155.69
           -------------------------------------------------
          |                Property Printout                |
           -------------------------------------------------

    * Orbital Energies and Occupations

         #    Occupation            Energy/Eh            Energy/eV
      -------------------------------------------------------------
         1        2.0000           -0.6928724             -18.8540
         2        2.0000           -0.6801890             -18.5089
         3        2.0000           -0.6590169             -17.9328
         4        2.0000           -0.6136625             -16.6986
         5        2.0000           -0.5388614             -14.6632
         6        2.0000           -0.5388613             -14.6632
         7        2.0000           -0.4709027             -12.8139
         8        2.0000           -0.4709023             -12.8139
         9        2.0000           -0.4636698             -12.6171
        10        2.0000           -0.4471225             -12.1668 (HOMO)
        11                         -0.3891414             -10.5891 (LUMO)
        12                         -0.3891413             -10.5891
        13                         -0.2441925              -6.6448
        14                         -0.2441921              -6.6448
        15                         -0.1167971              -3.1782
        16                         -0.1167966              -3.1782
        17                          0.0893067               2.4302
        18                          0.4584270              12.4744
        19                          0.9479704              25.7956
        20                          1.4162431              38.5379
      -------------------------------------------------------------
                  HL-Gap            0.0579810 Eh            1.5777 eV
             Fermi-level           -0.4184338 Eh          -11.3862 eV

     #   Z        covCN         q      C6AA      α(0)
     1   6 C      1.963     0.048    29.858     8.824
     2   6 C      1.964     0.112    28.309     8.592
     3   6 C      1.963     0.048    29.858     8.824
     4   6 C      0.982    -0.103    39.220    10.519
     5   6 C      0.982    -0.103    39.219    10.519

 Mol. C6AA /au·bohr⁶  :        827.820504
 Mol. C8AA /au·bohr⁸  :      23942.007524
 Mol. α(0) /au        :         47.279585


Wiberg/Mayer (AO) data.
largest (>0.10) Wiberg bond orders for each atom
          total WBO             WBO to atom ...
     1  C   3.976        C    4 2.037    C    2 1.760    C    5 0.164
     2  C   3.934        C    3 1.760    C    1 1.760    C    4 0.207    C    5 0.207
     3  C   3.976        C    5 2.037    C    2 1.760    C    4 0.163
     4  C   2.682        C    1 2.037    C    5 0.274    C    2 0.207    C    3 0.163
     5  C   2.681        C    3 2.037    C    4 0.274    C    2 0.207    C    1 0.164

MOs/occ written to file <molden.input>


molecular dipole:
                 x           y           z       tot (Debye)
 q only:        0.000      -0.000      -0.000
   full:        0.000      -0.001      -0.000       0.004
molecular quadrupole (traceless):
                xx          xy          yy          xz          yz          zz
 q only:       -4.211       0.681       2.070       0.081      -0.009       2.142
Molecule has the following symmetry elements: (i) (Cinf) (C2) 2*(sigma) 
It seems to be the Dinfh point group
  q+dip:       -7.404       1.200       3.638       0.138      -0.015       3.766
   full:      -13.116       2.124       6.446       0.247      -0.027       6.670

           -------------------------------------------------
          |                Geometry Summary                 |
           -------------------------------------------------

      molecular mass/u    :       60.0536795
   center of mass at/Å    :       -0.0000000      -0.0000000       0.0000000
  moments of inertia/u·Å² :        0.5410910E-04   0.1972856E+03   0.1972856E+03
rotational constants/cm⁻¹ :        0.3115489E+06   0.8544786E-01   0.8544785E-01

 * 2 selected distances

     #   Z        #   Z                                     value/Å
     1   6 C      2   6 C                                 1.2858040 (max)
     2   6 C      3   6 C                                 1.2856369 (min)

 * 1 distinct bonds (by element types)

   Z      Z             #   av. dist./Å        max./Å        min./Å
   6 C    6 C           2     1.2857204     1.2858040     1.2856369

           -------------------------------------------------
          |               Frequency Printout                |
           -------------------------------------------------
 vibrational frequencies (cm-1)
eigval :        0.00     0.00     0.00     0.00     0.00   100.96
eigval :      101.19   211.59   211.77   492.01   492.05   821.82
eigval :     1551.67  1994.58  2155.69
 reduced masses (amu)
   1: 12.01   2: 12.01   3: 12.01   4: 12.01   5: 12.01   6: 12.01   7: 12.01   8: 12.01
   9: 12.01  10: 12.01  11: 12.01  12: 12.01  13: 12.01  14: 12.01  15: 12.01
 IR intensities (amu)
   1:  0.05   2:  0.00   3:  0.00   4:  0.00   5:  0.00   6:  0.52   7:  0.51   8:  0.00
   9:  0.00  10:  0.19  11:  0.19  12:  0.00  13:  0.11  14:  0.01  15:  2.77
 Raman intensities (amu)
   1:  0.00   2:  0.00   3:  0.00   4:  0.00   5:  0.00   6:  0.00   7:  0.00   8:  0.00
   9:  0.00  10:  0.00  11:  0.00  12:  0.00  13:  0.00  14:  0.00  15:  0.00
 output can be read by thermo (or use thermo option).
 writing <g98.out> molden fake output.
 recommended (thermochemical) frequency scaling factor: 1.0
           -------------------------------------------------
          |             Thermodynamic Functions             |
           -------------------------------------------------

din symmetry found (for desy threshold:  0.10E+00) used in thermo

          ...................................................
          :                      SETUP                      :
          :.................................................:
          :  # frequencies                          10      :
          :  # imaginary freq.                       0      :
          :  linear?                              true      :
          :  only rotor calc.                    false      :
          :  symmetry                              din      :
          :  rotational number                       2      :
          :  scaling factor                  1.0000000      :
          :  rotor cutoff                   50.0000000 cm⁻¹ :
          :  imag. cutoff                  -20.0000000 cm⁻¹ :
          :.................................................:

    mode    ω/cm⁻¹     T·S(HO)/kcal·mol⁻¹    T·S(FR)/kcal·mol⁻¹   T·S(vib)
   ------------------------------------------------------------------------
       1    100.96    -0.00000 ( 94.33%)     0.00529 (  5.67%)     0.00030
       2    101.19    -0.00000 ( 94.37%)     0.00531 (  5.63%)     0.00030
       3    211.59    -0.00000 ( 99.69%)     0.01264 (  0.31%)     0.00004
       4    211.77    -0.00000 ( 99.69%)     0.01264 (  0.31%)     0.00004
   ------------------------------------------------------------------------

   temp. (K)  partition function   enthalpy   heat capacity  entropy
                                   cal/mol     cal/K/mol   cal/K/mol   J/K/mol
 298.15  VIB   20.3                 1937.653     10.775     12.418
         ROT  0.121E+04              592.502      1.987     16.098
         INT  0.246E+05             2530.154     12.762     28.516
         TR   0.450E+27             1481.254      4.968     38.181
         TOT                        4011.4080    17.7304    66.6965   279.0581

   temp. (K)  partition function   enthalpy   heat capacity  entropy
                                   cal/mol     cal/K/mol   cal/K/mol   J/K/mol
 120.00  VIB   2.40                  356.660      6.298      4.743
         ROT   488.                  238.471      1.987     14.289
         INT  0.117E+04              595.131      8.286     19.032
         TR   0.115E+27              596.178      4.968     33.661
         TOT                        1191.3088    13.2539    52.6934   220.4693

   temp. (K)  partition function   enthalpy   heat capacity  entropy
                                   cal/mol     cal/K/mol   cal/K/mol   J/K/mol
 100.00  VIB   1.88                  238.996      5.446      3.688
         ROT   407.                  198.726      1.987     13.927
         INT   765.                  437.722      7.433     17.614
         TR   0.875E+26              496.815      4.968     32.756
         TOT                         934.5365    12.4011    50.3705   210.7500

   temp. (K)  partition function   enthalpy   heat capacity  entropy
                                   cal/mol     cal/K/mol   cal/K/mol   J/K/mol
  80.00  VIB   1.49                  139.957      4.423      2.602
         ROT   325.                  158.981      1.987     13.483
         INT   485.                  298.938      6.410     16.085
         TR   0.626E+26              397.452      4.968     31.648
         TOT                         696.3896    11.3784    47.7332   199.7157

   temp. (K)  partition function   enthalpy   heat capacity  entropy
                                   cal/mol     cal/K/mol   cal/K/mol   J/K/mol
  60.00  VIB   1.22                   63.809      3.142      1.527
         ROT   244.                  119.236      1.987     12.912
         INT   297.                  183.045      5.129     14.439
         TR   0.406E+26              298.089      4.968     30.219
         TOT                         481.1339    10.0972    44.6584   186.8507

   temp. (K)  partition function   enthalpy   heat capacity  entropy
                                   cal/mol     cal/K/mol   cal/K/mol   J/K/mol
  40.00  VIB   1.06                   16.251      1.575      0.583
         ROT   163.                   79.490      1.987     12.106
         INT   172.                   95.741      3.562     12.689
         TR   0.221E+26              198.726      4.968     28.206
         TOT                         294.4674     8.5305    40.8945   171.1024

   temp. (K)  partition function   enthalpy   heat capacity  entropy
                                   cal/mol     cal/K/mol   cal/K/mol   J/K/mol
  20.00  VIB   1.00                    0.402      0.147      0.036
         ROT   81.3                   39.745      1.987     10.728
         INT   81.5                   40.148      2.134     10.764
         TR   0.782E+25               99.363      4.968     24.764
         TOT                         139.5106     7.1019    35.5281   148.6495

   temp. (K)  partition function   enthalpy   heat capacity  entropy
                                   cal/mol     cal/K/mol   cal/K/mol   J/K/mol
  10.00  VIB   1.00                    0.000      0.000     -0.068
         ROT   40.7                   19.873      1.987      9.351
         INT   40.7                   19.873      1.988      9.283
         TR   0.277E+25               49.681      4.968     21.322
         TOT                          69.5544     6.9558    30.6048   128.0505

       T/K    H(0)-H(T)+PV         H(T)/Eh          T*S/Eh         G(T)/Eh
   ------------------------------------------------------------------------
    298.15    0.639259E-02    0.249217E-01    0.316897E-01   -0.676799E-02
    120.00    0.189847E-02    0.204276E-01    0.100767E-01    0.103509E-01
    100.00    0.148928E-02    0.200184E-01    0.802704E-02    0.119913E-01
     80.00    0.110977E-02    0.196389E-01    0.608541E-02    0.135534E-01
     60.00    0.766736E-03    0.192958E-01    0.427006E-02    0.150258E-01
     40.00    0.469264E-03    0.189983E-01    0.260678E-02    0.163916E-01
     20.00    0.222324E-03    0.187514E-01    0.113235E-02    0.176191E-01
     10.00    0.110842E-03    0.186399E-01    0.487719E-03    0.181522E-01 (used)
   ------------------------------------------------------------------------

         :::::::::::::::::::::::::::::::::::::::::::::::::::::
         ::                  THERMODYNAMIC                  ::
         :::::::::::::::::::::::::::::::::::::::::::::::::::::
         :: total free energy         -10.310582417781 Eh   ::
         ::.................................................::
         :: total energy              -10.328734624125 Eh   ::
         :: zero point energy           0.018529083032 Eh   ::
         :: G(RRHO) w/o ZPVE           -0.000376876688 Eh   ::
         :: G(RRHO) contrib.            0.018152206345 Eh   ::
         :::::::::::::::::::::::::::::::::::::::::::::::::::::

optimized geometry written to: xtbopt.xyz


           -------------------------------------------------
          | TOTAL ENERGY              -10.328734624125 Eh   |
          | TOTAL ENTHALPY            -10.310094699134 Eh   |
          | TOTAL FREE ENERGY         -10.310582417781 Eh   |
          | GRADIENT NORM               0.000284126282 Eh/α |
          | HOMO-LUMO GAP               1.577744616732 eV   |
           -------------------------------------------------

------------------------------------------------------------------------
 * finished run on 2020/05/12 at 11:44:31.231     
------------------------------------------------------------------------
 total:
 * wall-time:     0 d,  0 h,  0 min,  0.276 sec
 *  cpu-time:     0 d,  0 h,  0 min,  0.275 sec
 * ratio c/w:     0.997 speedup
 SCF:
 * wall-time:     0 d,  0 h,  0 min,  0.006 sec
 *  cpu-time:     0 d,  0 h,  0 min,  0.006 sec
 * ratio c/w:     0.997 speedup
 ANC optimizer:
 * wall-time:     0 d,  0 h,  0 min,  0.149 sec
 *  cpu-time:     0 d,  0 h,  0 min,  0.149 sec
 * ratio c/w:     0.999 speedup
 numerical hessian:
 * wall-time:     0 d,  0 h,  0 min,  0.105 sec
 *  cpu-time:     0 d,  0 h,  0 min,  0.104 sec
 * ratio c/w:     0.995 speedup

