 Entering Gaussian System
 *********************************************
 Gaussian 98:
 frequency output generated by the xtb code
 *********************************************
                         Standard orientation:
 --------------------------------------------------------------------
  Center     Atomic     Atomic              Coordinates (Angstroms)
  Number     Number      Type              X           Y           Z
 --------------------------------------------------------------------
    1          6             0       -1.278369    0.136266    0.017371
    2          6             0       -0.000047   -0.001138   -0.000084
    3          6             0        1.278340   -0.136332   -0.017724
    4          6             0       -2.546404    0.273294    0.033085
    5          6             0        2.546481   -0.272090   -0.032648
 --------------------------------------------------------------------
     1 basis functions        1 primitive gaussians
     1 alpha electrons        1 beta electrons

 Harmonic frequencies (cm**-1), IR intensities (KM/Mole),
 Raman scattering activities (A**4/amu), Raman depolarization ratios,
 reduced masses (AMU), force constants (mDyne/A) and normal coordinates:
                      1                      2                      3
                        a                      a                      a 
 Frequencies --   100.9630               101.1865               211.5940
 Red. masses --    12.0107                12.0107                12.0107
 Frc consts  --     0.0000                 0.0000                 0.0000
 IR Inten    --     0.5168                 0.5078                 0.0012
 Raman Activ --     0.0000                 0.0000                 0.0000
 Depolar     --     0.0000                 0.0000                 0.0000
 Atom AN      X      Y      Z        X      Y      Z        X      Y      Z
   1   6     0.03   0.27   0.00    -0.00   0.01  -0.27     0.07   0.63  -0.00
   2   6     0.06   0.53   0.01    -0.01   0.01  -0.53    -0.00   0.00   0.00
   3   6     0.03   0.27   0.01    -0.00   0.01  -0.27    -0.07  -0.63   0.00
   4   6    -0.06  -0.53  -0.01     0.01  -0.01   0.54    -0.03  -0.31   0.00
   5   6    -0.06  -0.53  -0.01     0.01  -0.01   0.53     0.03   0.31  -0.00
                      4                      5                      6
                        a                      a                      a 
 Frequencies --   211.7657               492.0072               492.0539
 Red. masses --    12.0107                12.0107                12.0107
 Frc consts  --     0.0000                 0.0000                 0.0000
 IR Inten    --     0.0018                 0.1899                 0.1889
 Raman Activ --     0.0000                 0.0000                 0.0000
 Depolar     --     0.0000                 0.0000                 0.0000
 Atom AN      X      Y      Z        X      Y      Z        X      Y      Z
   1   6     0.01  -0.00   0.63    -0.05  -0.47   0.01    -0.01  -0.01  -0.48
   2   6     0.00  -0.00   0.00     0.08   0.72  -0.01     0.01   0.01   0.72
   3   6    -0.01   0.00  -0.63    -0.05  -0.47   0.01    -0.01  -0.01  -0.48
   4   6    -0.00   0.00  -0.32     0.01   0.11  -0.00     0.00   0.00   0.12
   5   6     0.00  -0.00   0.32     0.01   0.11  -0.00     0.00   0.00   0.12
                      7                      8                      9
                        a                      a                      a 
 Frequencies --   821.8168              1551.6698              1994.5806
 Red. masses --    12.0107                12.0107                12.0107
 Frc consts  --     0.0000                 0.0000                 0.0000
 IR Inten    --     0.0007                 0.1120                 0.0053
 Raman Activ --     0.0000                 0.0000                 0.0000
 Depolar     --     0.0000                 0.0000                 0.0000
 Atom AN      X      Y      Z        X      Y      Z        X      Y      Z
   1   6    -0.38   0.04   0.01     0.19  -0.02  -0.00    -0.59   0.06   0.01
   2   6     0.00  -0.00   0.00     0.64  -0.07  -0.01     0.00  -0.00   0.00
   3   6     0.38  -0.04  -0.01     0.19  -0.02  -0.00     0.59  -0.06  -0.01
   4   6    -0.59   0.06   0.01    -0.51   0.05   0.01     0.38  -0.04  -0.00
   5   6     0.59  -0.06  -0.01    -0.51   0.05   0.01    -0.38   0.04   0.00
                     10
                        a 
 Frequencies --  2155.6898
 Red. masses --    12.0107
 Frc consts  --     0.0000
 IR Inten    --     2.7740
 Raman Activ --     0.0000
 Depolar     --     0.0000
 Atom AN      X      Y      Z        X      Y      Z        X      Y      Z
   1   6     0.51  -0.05  -0.01
   2   6    -0.62   0.07   0.01
   3   6     0.51  -0.05  -0.01
   4   6    -0.20   0.02   0.00
   5   6    -0.20   0.02   0.00
