[Molden Format]
[Title]
[Atoms] AU
C      1     6 -0.24157676305248E+01  0.25750526206553E+00  0.32827368181012E-01
C      2     6 -0.89229605107871E-04 -0.21506482551741E-02 -0.15893549850427E-03
C      3     6  0.24157121444390E+01 -0.25762985051411E+00 -0.33493023325946E-01
C      4     6 -0.48120058765686E+01  0.51645126334181E+00  0.62520639554218E-01
C      5     6  0.48121505922596E+01 -0.51417602663807E+00 -0.61696048910761E-01
[GTO]
           1 0
 s           4   1.0000000000000000     
   51.049363095579913      -0.16312063210127389     
   8.7911227406887544      -0.19911024581000730     
  0.70640422258929825       0.31882047753655751     
  0.26922813413411617       0.12706504184240380     
 p           4   1.0000000000000000     
   5.8263656140800002       0.73716451545209605     
   1.5106896018720002       0.68216371614850257     
  0.53256483288000001       0.35783053929253711     
  0.21202323690600003        5.3983030275847881E-002

           2 0
 s           4   1.0000000000000000     
   51.049363095579913      -0.16312063210127389     
   8.7911227406887544      -0.19911024581000730     
  0.70640422258929825       0.31882047753655751     
  0.26922813413411617       0.12706504184240380     
 p           4   1.0000000000000000     
   5.8263656140800002       0.73716451545209605     
   1.5106896018720002       0.68216371614850257     
  0.53256483288000001       0.35783053929253711     
  0.21202323690600003        5.3983030275847881E-002

           3 0
 s           4   1.0000000000000000     
   51.049363095579913      -0.16312063210127389     
   8.7911227406887544      -0.19911024581000730     
  0.70640422258929825       0.31882047753655751     
  0.26922813413411617       0.12706504184240380     
 p           4   1.0000000000000000     
   5.8263656140800002       0.73716451545209605     
   1.5106896018720002       0.68216371614850257     
  0.53256483288000001       0.35783053929253711     
  0.21202323690600003        5.3983030275847881E-002

           4 0
 s           4   1.0000000000000000     
   51.049363095579913      -0.16312063210127389     
   8.7911227406887544      -0.19911024581000730     
  0.70640422258929825       0.31882047753655751     
  0.26922813413411617       0.12706504184240380     
 p           4   1.0000000000000000     
   5.8263656140800002       0.73716451545209605     
   1.5106896018720002       0.68216371614850257     
  0.53256483288000001       0.35783053929253711     
  0.21202323690600003        5.3983030275847881E-002

           5 0
 s           4   1.0000000000000000     
   51.049363095579913      -0.16312063210127389     
   8.7911227406887544      -0.19911024581000730     
  0.70640422258929825       0.31882047753655751     
  0.26922813413411617       0.12706504184240380     
 p           4   1.0000000000000000     
   5.8263656140800002       0.73716451545209605     
   1.5106896018720002       0.68216371614850257     
  0.53256483288000001       0.35783053929253711     
  0.21202323690600003        5.3983030275847881E-002

[MO]
Sym=     1a
Ene=  -0.69287237548914149     
Spin= Alpha
Occup=     2.00000000
           1 -0.34214916540245616     
           2 -0.11561916379697082     
           3   1.2343568801783446E-002
           4   1.6599447107326728E-003
           5 -0.54628399214429046     
           6  -2.8397145369089122E-004
           7  -2.4256850343898039E-004
           8   1.9288240027818099E-005
           9 -0.34284559908162276     
          10  0.11559208218000316     
          11  -1.2193983522278651E-002
          12  -1.7145027647291974E-003
          13 -0.12839219856844519     
          14  -7.2544697604630240E-002
          15   7.8164834918082442E-003
          16   9.3354318793634487E-004
          17 -0.12887763068879282     
          18   7.2752659648024756E-002
          19  -7.7616128701658319E-003
          20  -9.0896868216899524E-004
Sym=     2a
Ene=  -0.68018896676207030     
Spin= Alpha
Occup=     2.00000000
           1 -0.37630544482880107     
           2   7.1425350192980325E-002
           3  -7.7294862083744130E-003
           4  -7.8977935323344337E-004
           5  -5.4886035063943803E-004
           6  0.25024961051681360     
           7  -2.6745839529662876E-002
           8  -3.3230470966207483E-003
           9  0.37576697276431331     
          10   7.1773098263146179E-002
          11  -7.8079996074556166E-003
          12  -7.0223024590638822E-004
          13 -0.32251515905174771     
          14 -0.11642465809736365     
          15   1.2574340966774388E-002
          16   1.4680721877629451E-003
          17  0.32248215816990289     
          18 -0.11636072192325196     
          19   1.2428523187539904E-002
          20   1.4057727478030337E-003
Sym=     3a
Ene=  -0.65901687298191580     
Spin= Alpha
Occup=     2.00000000
           1 -0.15400572000495091     
           2  0.26988273722740991     
           3  -2.9090879697726588E-002
           4  -3.4750214525614840E-003
           5  0.26293434824057699     
           6   1.0008886963893208E-004
           7   2.6059082423523355E-005
           8  -3.9533818757882533E-005
           9 -0.15376496951499039     
          10 -0.26996878397285834     
          11   2.8791774166605024E-002
          12   3.3674165254955479E-003
          13 -0.41476541773261155     
          14  -9.5327500969021997E-002
          15   1.0312550104296858E-002
          16   1.1668147818076659E-003
          17 -0.41467542783597611     
          18   9.5280862981678732E-002
          19  -1.0209970363637803E-002
          20  -1.0989874668035249E-003
Sym=     4a
Ene=  -0.61366249601151202     
Spin= Alpha
Occup=     2.00000000
           1 -0.16182164382441383     
           2 -0.30545578077705093     
           3   3.3075980371305512E-002
           4   3.8864062190554997E-003
           5  -1.0547128602044850E-004
           6  0.41971237961588181     
           7  -4.4624295154221921E-002
           8  -5.9821420652532214E-003
           9  0.16175720797804141     
          10 -0.30541974561880841     
          11   3.2443246413751230E-002
          12   3.8187216020908522E-003
          13  0.34672908941208752     
          14  -1.4524040840953058E-003
          15   1.6844557269661147E-004
          16   4.6555925098808068E-005
          17 -0.34667634653443757     
          18  -1.4680163911648140E-003
          19   9.3664243790649794E-005
          20   8.0022295036045237E-005
Sym=     5a
Ene=  -0.53886137326357142     
Spin= Alpha
Occup=     2.00000000
           1   6.2277843105121959E-005
           2   3.8595875406616319E-002
           3  0.33255672734429836     
           4  0.21134641062109677     
           5  -4.3683487595708431E-004
           6   5.5287506964624145E-002
           7  0.47924693014504072     
           8  0.30455279750980757     
           9   3.1545883712767735E-005
          10   3.8096993467834558E-002
          11  0.33279778473173649     
          12  0.21147097141628696     
          13  -1.1927913111863699E-004
          14   1.8089007546186388E-002
          15  0.15566837943300893     
          16   9.8931587809132443E-002
          17  -1.4110814665674960E-004
          18   1.7808736883413459E-002
          19  0.15582105778094196     
          20   9.9012395470503056E-002
Sym=     6a
Ene=  -0.53886131566402862     
Spin= Alpha
Occup=     2.00000000
           1   1.6644275377847349E-004
           2  -1.8495108699348665E-002
           3 -0.21059443366652211     
           4  0.33475170430425916     
           5   3.5343249308748262E-004
           6  -2.5551581017232414E-002
           7 -0.30358315697934118     
           8  0.48235986186394364     
           9  -4.7473247948515428E-004
          10  -1.8296611596981312E-002
          11 -0.21073506167447970     
          12  0.33493539865820493     
          13   3.1956819936102042E-004
          14  -8.7343510943437164E-003
          15  -9.8571645831869475E-002
          16  0.15669931966148862     
          17  -1.2910907911814593E-004
          18  -8.6186520620457740E-003
          19  -9.8662025027405592E-002
          20  0.15681965773953671     
Sym=     7a
Ene=  -0.47090272172178760     
Spin= Alpha
Occup=     2.00000000
           1   1.7825818143559161E-003
           2  -2.1167891830420203E-002
           3 -0.23778121717010228     
           4  0.39979945169742515     
           5  -1.4592455818094399E-003
           6  -1.7101294098008040E-004
           7  -3.7926362263557980E-005
           8   9.5452759721357622E-005
           9   2.3495709336971591E-003
          10   2.1227047170879559E-002
          11  0.23766327990857034     
          12 -0.39961689284325314     
          13  -3.2626742872255456E-003
          14  -1.6275996304233931E-002
          15 -0.22262388530324734     
          16  0.37363346890098931     
          17  -4.1232191766152840E-003
          18   1.5389569935144534E-002
          19  0.22267015114423189     
          20 -0.37355207003238255     
Sym=     8a
Ene=  -0.47090227646071614     
Spin= Alpha
Occup=     2.00000000
           1   2.4806848516276418E-004
           2   4.5832663326657849E-002
           3  0.39721181737663702     
           4  0.23866695067451854     
           5  -3.3793177678523499E-005
           6   1.0596233704940564E-004
           7   8.1168275075459216E-005
           8   5.3146287483278945E-005
           9  -1.5230811061593704E-004
          10  -4.5344136621186262E-002
          11 -0.39707999401583455     
          12 -0.23856431366281777     
          13  -4.2056646090665565E-004
          14   4.3307992631183387E-002
          15  0.37120988687016021     
          16  0.22306821426254661     
          17   2.4972116441118535E-004
          18  -4.2106978834461073E-002
          19 -0.37126562599797558     
          20 -0.22304009575675771     
Sym=     9a
Ene=  -0.46366979952414072     
Spin= Alpha
Occup=     2.00000000
           1  0.19507359023197343     
           2 -0.11754022348700405     
           3   1.4293374785342917E-002
           4  -1.6519744784093300E-003
           5 -0.19203764805399406     
           6  -2.9243526578535300E-005
           7  -8.1087881715315673E-005
           8   1.3191025846193667E-004
           9  0.19506937728321752     
          10  0.11761123447355425     
          11  -1.4525915425880042E-002
          12   1.6980027908978527E-003
          13 -0.45931025088751565     
          14  0.46046765697279163     
          15  -4.8099380479638194E-002
          16  -8.9157397979009543E-003
          17 -0.45945729288476095     
          18 -0.46075237862315743     
          19   4.7338363981897232E-002
          20   8.6144560985703892E-003
Sym=    10a
Ene=  -0.44712247812921935     
Spin= Alpha
Occup=     2.00000000
           1  0.10385049051920810     
           2 -0.20113080383809764     
           3   2.1112646878295657E-002
           4   2.9667334166059564E-003
           5  -4.7532518333693903E-005
           6  0.20218730561014528     
           7  -2.1216921946746726E-002
           8  -3.3728054635420116E-003
           9 -0.10376175549642908     
          10 -0.20101334807768978     
          11   2.1799124676761268E-002
          12   2.4918892387003535E-003
          13 -0.41229550352822680     
          14  0.48886906198292518     
          15  -5.3615231915291689E-002
          16  -5.4493115228608441E-003
          17  0.41210754887865952     
          18  0.48888236611359870     
          19  -5.1986378974969910E-002
          20  -5.5967316294823523E-003
Sym=    11a
Ene=  -0.38914143034965043     
Spin= Alpha
Occup=     0.00000000
           1   7.7402867001072879E-005
           2  -8.7189244334226028E-003
           3  -7.9775617002561000E-002
           4  -2.4660342294026839E-002
           5  -5.0494062332739887E-004
           6   5.9774999245864290E-002
           7  0.53998639719598951     
           8  0.16693817666919100     
           9   6.8591100506028204E-005
          10  -8.9063303492597605E-003
          11  -7.9692798104138887E-002
          12  -2.4639003555417469E-002
          13   1.2533630918831154E-004
          14  -6.2242881627444083E-002
          15 -0.55324073101168048     
          16 -0.17105594509932057     
          17   3.0603194742710840E-005
          18  -6.1192484605265059E-002
          19 -0.55347249438345858     
          20 -0.17110580591877680     
Sym=    12a
Ene=  -0.38914129712644685     
Spin= Alpha
Occup=     0.00000000
           1   6.0827592119054531E-005
           2  -1.3564275291566496E-003
           3  -2.4656441818854208E-002
           4   8.0240079228695402E-002
           5  -2.8470469931337993E-004
           6   9.9227951669699239E-003
           7  0.16684050753770083     
           8 -0.54322408390247912     
           9   2.0369642407265239E-005
          10  -1.4508848630221838E-003
          11  -2.4627163790456409E-002
          12   8.0179281062372321E-002
          13   2.2391233398872385E-004
          14  -1.2166439151317588E-002
          15 -0.17075325160558266     
          16  0.55669099413450374     
          17  -2.0516481769714061E-004
          18  -1.2322824388988974E-002
          19 -0.17077582396672564     
          20  0.55681044124289536     
Sym=    13a
Ene=  -0.24419251134832695     
Spin= Alpha
Occup=     0.00000000
           1  -7.2167516174895794E-004
           2   2.4829459634667466E-002
           3  0.29105815629741555     
           4 -0.48555745545779339     
           5   7.9667282424391835E-004
           6   1.5392780250578285E-004
           7  -1.9547876783732665E-005
           8   3.2278972589394790E-006
           9  -1.2242353425739388E-003
          10  -2.4408397332602642E-002
          11 -0.29100276166280059     
          12  0.48538907725009289     
          13  -5.4973158176061777E-005
          14  -2.5785428166665698E-002
          15 -0.30008281621392635     
          16  0.50064832984289920     
          17  -1.0923120228024769E-004
          18   2.5553318879231523E-002
          19  0.30000171676632326     
          20 -0.50047284354982591     
Sym=    14a
Ene=  -0.24419208315770058     
Spin= Alpha
Occup=     0.00000000
           1   1.9089983647421291E-004
           2   5.5907263992972946E-002
           3  0.48238931681057223     
           4  0.29201713280879499     
           5  -2.1105177921370554E-005
           6   5.7515934268565717E-005
           7  -1.2408714486145539E-005
           8  -5.0535241778837433E-006
           9  -1.3932957399267646E-004
          10  -5.4953660870329393E-002
          11 -0.48232627162647790     
          12 -0.29193077264244871     
          13   1.4363299750043137E-005
          14  -5.7579229977237897E-002
          15 -0.49738514459238276     
          16 -0.30109147640343936     
          17  -9.9873606255749677E-006
          18   5.6710758151517500E-002
          19  0.49730364233310875     
          20  0.30099857221733800     
Sym=    15a
Ene=  -0.11679705146920687     
Spin= Alpha
Occup=     0.00000000
           1  -1.0580877835173960E-003
           2   4.5777496456083713E-002
           3  0.47944011809315579     
           4 -0.43931879500479204     
           5   8.1104602124836619E-004
           6  -4.8321624607080539E-002
           7 -0.50846746664792641     
           8  0.46589306106916450     
           9   6.5603656150165521E-004
          10   4.5802332046220098E-002
          11  0.47961064879875281     
          12 -0.43947607457503829     
          13   1.5947475900223687E-004
          14  -2.7606590692376864E-002
          15 -0.29281006937131449     
          16  0.26826785880387943     
          17  -9.9194029534089041E-005
          18  -2.7730477913404820E-002
          19 -0.29291204319516856     
          20  0.26837430520345595     
Sym=    16a
Ene=  -0.11679661346964246     
Spin= Alpha
Occup=     0.00000000
           1  -2.9250727495831828E-004
           2   5.2938741173452847E-002
           3  0.43619624913773258     
           4  0.48155068992833594     
           5   9.6378936323726096E-004
           6  -5.6166056084865697E-002
           7 -0.46258127283805900     
           8 -0.51068073579889595     
           9  -8.5305265665276881E-004
          10   5.2862001554993432E-002
          11  0.43636448519086490     
          12  0.48172109079557102     
          13   3.9334387140851630E-005
          14  -3.2257208938783311E-002
          15 -0.26637268288414989     
          16 -0.29406186858321526     
          17   1.2397551965711938E-004
          18  -3.2543878538069081E-002
          19 -0.26644872856233687     
          20 -0.29417172646385814     
Sym=    17a
Ene=    8.9306710608392043E-002
Spin= Alpha
Occup=     0.00000000
           1  0.75573080957338867     
           2  0.22133819789862666     
           3  -2.2610124937333498E-002
           4  -3.7072969190546784E-003
           5 -0.89696578749705314     
           6   1.5951557386712905E-004
           7  -1.6486282872317615E-003
           8  -1.3484985945701880E-004
           9  0.75524600115660601     
          10 -0.22109611250932951     
          11   2.3449340068434025E-002
          12   4.3214880393642116E-003
          13 -0.19365715545462636     
          14 -0.41978491158362025     
          15   4.4813235788365491E-002
          16   5.6135804905555423E-003
          17 -0.19356566099834349     
          18  0.41955786507142057     
          19  -4.4812900166443181E-002
          20  -5.6715050694471246E-003
Sym=    18a
Ene=   0.45842704847166765     
Spin= Alpha
Occup=     0.00000000
           1 -0.87402245116102806     
           2  0.22812734558916883     
           3  -2.4839373161796408E-002
           4  -2.0548749358360878E-003
           5  -3.0701597968083819E-004
           6 -0.65620185123858699     
           7   7.0406199284495610E-002
           8   8.2314419106078954E-003
           9  0.87456736240099897     
          10  0.22799652854059413     
          11  -2.5299458148188163E-002
          12  -1.5606327146323823E-003
          13  0.43951571633650516     
          14  0.60477399796462628     
          15  -6.5301756276149855E-002
          16  -7.7254325017476104E-003
          17 -0.43969098111846361     
          18  0.60512711064712088     
          19  -6.4510036063015294E-002
          20  -7.4573869320123535E-003
Sym=    19a
Ene=   0.94797043537837888     
Spin= Alpha
Occup=     0.00000000
           1 -0.26109013175387896     
           2  0.96600503491629086     
           3 -0.10393565672753659     
           4  -1.2519849710045364E-002
           5 -0.83002853493026096     
           6   5.4196352159133535E-004
           7  -9.3659217082652923E-004
           8   1.8013946586665065E-004
           9 -0.26133157778713229     
          10 -0.96508295870822602     
          11  0.10303083313317103     
          12   1.2105780682371475E-002
          13  0.58474106230993372     
          14  0.61662896969566716     
          15  -6.6755690077732355E-002
          16  -7.4944600513509223E-003
          17  0.58430927093600671     
          18 -0.61627530235767369     
          19   6.6050855337894551E-002
          20   7.0527758029777241E-003
Sym=    20a
Ene=    1.4162431441335834     
Spin= Alpha
Occup=     0.00000000
           1 -0.32167209404546876     
           2  -1.0776368657852029     
           3  0.11635828576157901     
           4   1.4154070254671303E-002
           5  -7.8601542906984892E-004
           6  -1.3273540904796397     
           7  0.14134867266498874     
           8   1.8525502390280186E-002
           9  0.32179266470181922     
          10  -1.0790710487092388     
          11  0.11436389097553372     
          12   1.4092119282679956E-002
          13 -0.45549455012063567     
          14 -0.41532503677591481     
          15   4.4896505289649301E-002
          16   4.9721333614782684E-003
          17  0.45609009868865807     
          18 -0.41589894283762624     
          19   4.4781691509032676E-002
          20   4.5888506663930009E-003
