 Entering Gaussian System
 *********************************************
 Gaussian 98:
 frequency output generated by the xtb code
 *********************************************
                         Standard orientation:
 --------------------------------------------------------------------
  Center     Atomic     Atomic              Coordinates (Angstroms)
  Number     Number      Type              X           Y           Z
 --------------------------------------------------------------------
    1          7             0       -0.000238    0.006498    0.007214
    2          6             0       -1.169544    0.260404   -0.204277
    3          6             0        1.169971   -0.224222    0.238522
    4          1             0       -2.094557   -0.133502    0.135532
    5          1             0        2.094369    0.090822   -0.176992
 --------------------------------------------------------------------
     1 basis functions        1 primitive gaussians
     1 alpha electrons        1 beta electrons

 Harmonic frequencies (cm**-1), IR intensities (KM/Mole),
 Raman scattering activities (A**4/amu), Raman depolarization ratios,
 reduced masses (AMU), force constants (mDyne/A) and normal coordinates:
                      1                      2                      3
                        a                      a                      a 
 Frequencies --   118.1939               374.2811               407.0687
 Red. masses --     5.4160                 9.4514                13.0445
 Frc consts  --     0.0000                 0.0000                 0.0000
 IR Inten    --     0.3617                 0.0367                 0.7913
 Raman Activ --     0.0000                 0.0000                 0.0000
 Depolar     --     0.0000                 0.0000                 0.0000
 Atom AN      X      Y      Z        X      Y      Z        X      Y      Z
   1   7     0.01   0.25   0.25    -0.01  -0.51  -0.51     0.16   0.55  -0.56
   2   6    -0.00  -0.25  -0.25     0.01   0.19   0.20    -0.08  -0.28   0.27
   3   6    -0.01  -0.25  -0.25    -0.01   0.20   0.19    -0.08  -0.27   0.29
   4   1    -0.02   0.39   0.40    -0.01   0.29   0.28    -0.01  -0.06   0.09
   5   1     0.04   0.40   0.39     0.03   0.28   0.29    -0.01  -0.09   0.06
                      4                      5                      6
                        a                      a                      a 
 Frequencies --   469.2789               849.7108              1405.2403
 Red. masses --     1.9334                 2.9054                11.3142
 Frc consts  --     0.0000                 0.0000                 0.0000
 IR Inten    --     1.1519                 0.0099                 0.0196
 Raman Activ --     0.0000                 0.0000                 0.0000
 Depolar     --     0.0000                 0.0000                 0.0000
 Atom AN      X      Y      Z        X      Y      Z        X      Y      Z
   1   7    -0.03   0.00   0.00     0.00   0.01   0.01     0.00  -0.01  -0.01
   2   6     0.10  -0.14   0.11    -0.03  -0.21   0.21    -0.66   0.15  -0.13
   3   6     0.10  -0.11   0.14     0.03   0.20  -0.21     0.66  -0.14   0.14
   4   1    -0.30   0.45  -0.40    -0.34   0.38  -0.40    -0.17  -0.03   0.03
   5   1    -0.31   0.40  -0.45     0.33  -0.40   0.37     0.17   0.02  -0.03
                      7                      8                      9
                        a                      a                      a 
 Frequencies --  2037.4518              3215.0388              3216.6512
 Red. masses --    12.7121                 2.0226                 2.0364
 Frc consts  --     0.0000                 0.0000                 0.0000
 IR Inten    --     2.3954                 0.0444                 0.1586
 Raman Activ --     0.0000                 0.0000                 0.0000
 Depolar     --     0.0000                 0.0000                 0.0000
 Atom AN      X      Y      Z        X      Y      Z        X      Y      Z
   1   7    -0.79   0.12  -0.11     0.01  -0.00   0.01     0.05  -0.02   0.02
   2   6     0.38  -0.06   0.05     0.15   0.04  -0.04    -0.24  -0.07   0.06
   3   6     0.38  -0.06   0.06    -0.24  -0.06   0.08    -0.14  -0.03   0.04
   4   1     0.16  -0.02   0.01    -0.43  -0.17   0.15     0.72   0.29  -0.25
   5   1     0.16  -0.02   0.01     0.72   0.23  -0.30     0.43   0.14  -0.18
