      -----------------------------------------------------------      
     |                   =====================                   |     
     |                           x T B                           |     
     |                   =====================                   |     
     |                         S. Grimme                         |     
     |          Mulliken Center for Theoretical Chemistry        |     
     |                    University of Bonn                     |     
      -----------------------------------------------------------      

   * xtb version 6.2.2 (9d81278992624c895f80dd42a50cac0aa55982e2) compiled by '@Darwin' on 04/03/2020

   xtb is free software: you can redistribute it and/or modify it under
   the terms of the GNU Lesser General Public License as published by
   the Free Software Foundation, either version 3 of the License, or
   (at your option) any later version.
   
   xtb is distributed in the hope that it will be useful,
   but WITHOUT ANY WARRANTY; without even the implied warranty of
   MERCHANTABILITY or FITNESS FOR A PARTICULAR PURPOSE.  See the
   GNU Lesser General Public License for more details.
   
   Cite this work as:
   * S. Grimme, C. Bannwarth, P. Shushkov, J. Chem. Theory Comput., 2017,
     13, 1989-2009. DOI: 10.1021/acs.jctc.7b00118
   * C. Bannwarth, S. Ehlert and S. Grimme., J. Chem. Theory Comput., 2019,
     15, 1652-1671. DOI: 10.1021/acs.jctc.8b01176
   * P. Pracht, E. Caldeweyher, S. Ehlert, S. Grimme, ChemRxiv, 2019, preprint.
     DOI: 10.26434/chemrxiv.8326202.v1
   
   for DFT-D4:
   * E. Caldeweyher, C. Bannwarth and S. Grimme, J. Chem. Phys., 2017,
     147, 034112. DOI: 10.1063/1.4993215
   * E. Caldeweyher, S. Ehlert, A. Hansen, H. Neugebauer, S. Spicher,
     C. Bannwarth and S. Grimme, J. Chem. Phys., 2019, 150, 154122.
     DOI: 10.1063/1.5090222
   
   for sTDA-xTB:
   * S. Grimme and C. Bannwarth, J. Chem. Phys., 2016, 145, 054103.
     DOI: 10.1063/1.4959605
   
   in the mass-spec context:
   * V. Asgeirsson, C. Bauer and S. Grimme, Chem. Sci., 2017, 8, 4879.
     DOI: 10.1039/c7sc00601b
   
   for metadynamics refer to:
   * S. Grimme, J. Chem. Theory Comput., 2019, 155, 2847-2862
     DOI: 10.1021/acs.jctc.9b00143
   
   with help from (in alphabetical order)
   C. Bannwarth, F. Bohle, G. Brandenburg, E. Caldeweyher, M. Checinski,
   S. Dohm, S. Ehlert, S. Ehrlich, F. März, H. Neugebauer, J. Pisarek,
   P. Pracht, P. Shushkov, and S. Spicher.
   
 * started run on 2020/05/12 at 11:44:47.593     

           -------------------------------------------------
          |                Calculation Setup                |
           -------------------------------------------------

          program call               : xtb --input H2C2N1_9_S_1.input H2C2N1_9_S_1.xyz --ohess --molden --namespace H2C2N1_9_S_1 output.out
          calculation namespace      : H2C2N1_9_S_1
          coordinate file            : H2C2N1_9_S_1.xyz
          number of atoms            :                     5
          number of electrons        :                    15
          charge                     :                     0
          spin                       :                   0.5
          first test random number   :      0.99218552713708

   ID    Z sym.   atoms
    1    7 N      1
    2    6 C      2, 3
    3    1 H      4, 5

           -------------------------------------------------
          |                 G F N 2 - x T B                 |
           -------------------------------------------------

        Reference                      10.1021/acs.jctc.8b01176
      * Hamiltonian:
        H0-scaling (s, p, d)           1.850000    2.230000    2.230000
        zeta-weighting                 0.500000
      * Dispersion:
        s8                             2.700000
        a1                             0.520000
        a2                             5.000000
        s9                             5.000000
      * Repulsion:
        kExp                           1.500000    1.000000
        rExp                           1.000000
      * Coulomb:
        alpha                          2.000000
        third order                    shell-resolved
        anisotropic                    true
        a3                             3.000000
        a5                             4.000000
        cn-shift                       1.200000
        cn-exp                         4.000000
        max-rad                        5.000000


          ...................................................
          :                      SETUP                      :
          :.................................................:
          :  # basis functions                  14          :
          :  # atomic orbitals                  14          :
          :  # shells                            8          :
          :  # electrons                        15          :
          :  max. iterations                   250          :
          :  Hamiltonian                  GFN2-xTB          :
          :  restarted?                      false          :
          :  GBSA solvation                  false          :
          :  PC potential                    false          :
          :  electronic temp.          300.0000000     K    :
          :  accuracy                    1.0000000          :
          :  -> integral cutoff          0.2500000E+02      :
          :  -> integral neglect         0.1000000E-07      :
          :  -> SCF convergence          0.1000000E-05 Eh   :
          :  -> wf. convergence          0.1000000E-03 e    :
          :  Broyden damping             0.4000000          :
          ...................................................

 iter      E             dE          RMSdq      gap      omega  full diag
   1     -7.8814331 -0.788143E+01  0.681E+00    0.01       0.0  T
   2     -7.8154450  0.659881E-01  0.804E+00    0.28       1.0  T
   3     -7.9446220 -0.129177E+00  0.389E+00    0.01       1.0  T
   4     -7.9392072  0.541472E-02  0.183E+00    0.06       1.0  T
   5     -7.9523425 -0.131352E-01  0.919E-01    0.02       1.0  T
   6     -7.9525780 -0.235543E-03  0.639E-01    0.02       1.0  T
   7     -7.9453603  0.721770E-02  0.102E+00    0.02       1.0  T
   8     -7.9532209 -0.786053E-02  0.253E-01    0.01       1.0  T
   9     -7.9532768 -0.559682E-04  0.690E-02    0.00       1.0  T
  10     -7.9532896 -0.127887E-04  0.215E-02    0.00       2.1  T
  11     -7.9532891  0.510518E-06  0.132E-02    0.00       3.4  T
  12     -7.9532897 -0.589361E-06  0.308E-03    0.00      14.5  T
  13     -7.9532896  0.560328E-07  0.597E-03    0.00       7.5  T
  14     -7.9532897 -0.722087E-07  0.467E-04    0.00      95.7  T
  15     -7.9532897 -0.447526E-10  0.980E-05    0.00     456.2  T

   *** convergence criteria satisfied after 15 iterations ***

         #    Occupation            Energy/Eh            Energy/eV
      -------------------------------------------------------------
         1        2.0000           -0.6571391             -17.8817
         2        2.0000           -0.6101067             -16.6018
         3        2.0000           -0.5577890             -15.1782
         4        2.0000           -0.5305683             -14.4375
         5        2.0000           -0.4804238             -13.0730
         6        2.0000           -0.4751042             -12.9282
         7        2.0000           -0.4184131             -11.3856
         8        0.5059           -0.3482716              -9.4770 (HOMO)
         9        0.4941           -0.3482268              -9.4757 (LUMO)
        10                         -0.3326012              -9.0505
        11                          0.0480362               1.3071
        12                          0.0923248               2.5123
        13                          0.1263167               3.4373
        14                          0.1530183               4.1638
      -------------------------------------------------------------
                  HL-Gap            0.0000448 Eh            0.0012 eV
             Fermi-level           -0.3657958 Eh           -9.9538 eV

 SCC (total)                   0 d,  0 h,  0 min,  0.003 sec
 SCC setup                      ...        0 min,  0.000 sec (  3.040%)
 Dispersion                     ...        0 min,  0.000 sec (  0.505%)
 integral evaluation            ...        0 min,  0.001 sec ( 25.216%)
 zeroth order Hamiltonian       ...        0 min,  0.000 sec (  0.549%)
 iterations                     ...        0 min,  0.001 sec ( 43.176%)
 molecular gradient             ...        0 min,  0.001 sec ( 25.355%)
 printout                       ...        0 min,  0.000 sec (  1.829%)

         :::::::::::::::::::::::::::::::::::::::::::::::::::::
         ::                     SUMMARY                     ::
         :::::::::::::::::::::::::::::::::::::::::::::::::::::
         :: total energy              -7.902921243180 Eh    ::
         :: gradient norm              0.220788876989 Eh/a0 ::
         :: HOMO-LUMO gap              0.001219970864 eV    ::
         ::.................................................::
         :: SCC energy                -7.953289710609 Eh    ::
         :: -> isotropic ES           -0.005414284971 Eh    ::
         :: -> anisotropic ES          0.000007349367 Eh    ::
         :: -> anisotropic XC          0.012193905403 Eh    ::
         :: -> dispersion             -0.001539735430 Eh    ::
         :: repulsion energy           0.050368436195 Eh    ::
         :: add. restraining           0.000000000000 Eh    ::
         :::::::::::::::::::::::::::::::::::::::::::::::::::::

      ----------------------------------------------------------- 
     |                   =====================                   |
     |                        A N C O P T                        |
     |                   =====================                   |
     |               Approximate Normal Coordinate               |
     |                Rational Function Optimizer                |
      ----------------------------------------------------------- 

          ...................................................
          :                      SETUP                      :
          :.................................................:
          :   optimization level            normal          :
          :   max. optcycles                   200          :
          :   ANC micro-cycles                  20          :
          :   degrees of freedom                 9          :
          :.................................................:
          :   RF solver                   davidson          :
          :   write xtbopt.log                true          :
          :   linear?                        false          :
          :   energy convergence         0.5000000E-05 Eh   :
          :   grad. convergence          0.1000000E-02 Eh/α :
          :   maximium RF displ.         1.0000000          :
          :   Hlow (freq-cutoff)         0.1000000E-01      :
          :   Hmax (freq-cutoff)         5.0000000          :
          :   S6 in model hess.         20.0000000          :
          ...................................................

generating ANC from model Hessian ...
Using Lindh-Hessian (1995)
 Shifting diagonal of input Hessian by    4.7473367444974910E-003
 Lowest  eigenvalues of input Hessian
   -0.000000   -0.000000   -0.000000   -0.000000    0.000000    0.000000
    0.010000    0.020345    0.060279    0.127935    0.155534    0.710897
    0.775803    0.997912    1.195158
 Highest eigenvalues
    0.127935    0.155534    0.710897    0.775803    0.997912    1.195158


........................................................................
.............................. CYCLE    1 ..............................
........................................................................
   1     -7.9532897 -0.795329E+01  0.693E-05    0.00       0.0  T
   2     -7.9532897  0.120428E-10  0.684E-05    0.00     654.0  T
   3     -7.9532897 -0.971667E-11  0.517E-05    0.00     865.2  T
     SCC iter.                  ...        0 min,  0.000 sec
     gradient                   ...        0 min,  0.001 sec
 * total energy  :    -7.9029212 Eh     change       -0.1811014E-09 Eh
   gradient norm :     0.2207879 Eh/α   predicted     0.0000000E+00 (-100.00%)
   displ. norm   :     0.2716093 α      lambda       -0.5481693E-01
   maximum displ.:     0.1917504 α      in ANC's #6, #8, #1, ...

........................................................................
.............................. CYCLE    2 ..............................
........................................................................
   1     -8.0123502 -0.801235E+01  0.264E+00    0.23       0.0  T
   2     -8.0026702  0.967999E-02  0.311E+00    0.13       1.0  T
   3     -8.0306712 -0.280010E-01  0.114E+00    0.13       1.0  T
   4     -8.0300550  0.616184E-03  0.529E-01    0.13       1.0  T
   5     -8.0307611 -0.706108E-03  0.162E-01    0.12       1.0  T
   6     -8.0307501  0.110313E-04  0.164E-01    0.12       1.0  T
   7     -8.0308488 -0.987235E-04  0.440E-02    0.12       1.0  T
   8     -8.0308491 -0.305234E-06  0.669E-03    0.12       6.7  T
   9     -8.0308491 -0.630444E-08  0.121E-03    0.12      37.0  T
  10     -8.0308491 -0.520488E-08  0.341E-04    0.12     131.1  T
  11     -8.0308491 -0.353371E-10  0.114E-04    0.12     392.9  T
     SCC iter.                  ...        0 min,  0.001 sec
     gradient                   ...        0 min,  0.001 sec
 * total energy  :    -7.9495553 Eh     change       -0.4663404E-01 Eh
   gradient norm :     0.1695260 Eh/α   predicted    -0.2943043E-01 ( -36.89%)
   displ. norm   :     0.8521376 α      lambda       -0.1406633E+00
   maximum displ.:     0.5232159 α      in ANC's #6, #8, #5, ...

........................................................................
.............................. CYCLE    3 ..............................
........................................................................
   1     -8.2129911 -0.821299E+01  0.456E+00    4.34       0.0  T
   2     -8.2259751 -0.129840E-01  0.221E+00    4.00       1.0  T
   3     -8.2265617 -0.586624E-03  0.104E+00    4.07       1.0  T
   4     -8.2266859 -0.124188E-03  0.117E-01    4.04       1.0  T
   5     -8.2266884 -0.245804E-05  0.381E-02    4.04       1.2  T
   6     -8.2266887 -0.368974E-06  0.201E-02    4.04       2.2  T
   7     -8.2266899 -0.117698E-05  0.119E-02    4.04       3.8  T
   8     -8.2266905 -0.569172E-06  0.179E-03    4.04      25.0  T
   9     -8.2266905 -0.498768E-08  0.365E-04    4.04     122.6  T
  10     -8.2266905 -0.273880E-09  0.283E-05    4.04    1582.8  T
     SCC iter.                  ...        0 min,  0.001 sec
     gradient                   ...        0 min,  0.001 sec
 * total energy  :    -7.9725995 Eh     change       -0.2304418E-01 Eh
   gradient norm :     0.3510660 Eh/α   predicted    -0.1214023E+00 ( 426.82%)
   displ. norm   :     0.4124492 α      lambda       -0.9129079E-01
   maximum displ.:     0.2706969 α      in ANC's #1, #3, #5, ...

........................................................................
.............................. CYCLE    4 ..............................
........................................................................
   1     -8.1737004 -0.817370E+01  0.157E+00    3.36       0.0  T
   2     -8.1785326 -0.483223E-02  0.727E-01    3.56       1.0  T
   3     -8.1791733 -0.640722E-03  0.360E-01    3.50       1.0  T
   4     -8.1791837 -0.103560E-04  0.479E-02    3.51       1.0  T
   5     -8.1791729  0.108264E-04  0.458E-02    3.51       1.0  T
   6     -8.1791856 -0.127474E-04  0.128E-02    3.51       3.5  T
   7     -8.1791860 -0.368343E-06  0.367E-03    3.51      12.2  T
   8     -8.1791860 -0.327891E-07  0.431E-04    3.51     103.7  T
   9     -8.1791860 -0.188578E-10  0.339E-05    3.51    1319.9  T
     SCC iter.                  ...        0 min,  0.001 sec
     gradient                   ...        0 min,  0.001 sec
 * total energy  :    -8.0221798 Eh     change       -0.4958033E-01 Eh
   gradient norm :     0.0385895 Eh/α   predicted    -0.5341034E-01 (   7.72%)
   displ. norm   :     0.8027594 α      lambda       -0.2089718E-01
   maximum displ.:     0.7765619 α      in ANC's #1, #3, #6, ...

........................................................................
.............................. CYCLE    5 ..............................
........................................................................
   1     -8.1928029 -0.819280E+01  0.125E+00    3.25       0.0  T
   2     -8.1929413 -0.138417E-03  0.706E-01    3.23       1.0  T
   3     -8.1929451 -0.377246E-05  0.153E-01    3.25       1.0  T
   4     -8.1929689 -0.238555E-04  0.472E-02    3.24       1.0  T
   5     -8.1929282  0.407309E-04  0.827E-02    3.24       1.0  T
   6     -8.1929733 -0.450473E-04  0.816E-03    3.24       5.5  T
   7     -8.1929733 -0.344474E-07  0.139E-03    3.24      32.2  T
   8     -8.1929733 -0.167826E-08  0.441E-04    3.24     101.5  T
   9     -8.1929733 -0.518892E-10  0.153E-05    3.24    2919.8  T
     SCC iter.                  ...        0 min,  0.001 sec
     gradient                   ...        0 min,  0.001 sec
 * total energy  :    -8.0371544 Eh     change       -0.1497463E-01 Eh
   gradient norm :     0.0285552 Eh/α   predicted    -0.1718187E-01 (  14.74%)
   displ. norm   :     0.5691399 α      lambda       -0.7759605E-02
   maximum displ.:     0.5548241 α      in ANC's #1, #8, #3, ...

........................................................................
.............................. CYCLE    6 ..............................
........................................................................
   1     -8.1842833 -0.818428E+01  0.798E-01    3.10       0.0  T
   2     -8.1843899 -0.106633E-03  0.429E-01    3.07       1.0  T
   3     -8.1843466  0.432960E-04  0.162E-01    3.09       1.0  T
   4     -8.1842523  0.943303E-04  0.151E-01    3.08       1.0  T
   5     -8.1844096 -0.157304E-03  0.142E-02    3.08       3.2  T
   6     -8.1844097 -0.939649E-07  0.187E-03    3.08      24.0  T
   7     -8.1844097 -0.240384E-08  0.363E-04    3.08     123.4  T
   8     -8.1844097 -0.955680E-10  0.144E-04    3.08     310.7  T
     SCC iter.                  ...        0 min,  0.001 sec
     gradient                   ...        0 min,  0.001 sec
 * total energy  :    -8.0401998 Eh     change       -0.3045355E-02 Eh
   gradient norm :     0.0378611 Eh/α   predicted    -0.5136537E-02 (  68.67%)
   displ. norm   :     0.1376623 α      lambda       -0.3012891E-02
   maximum displ.:     0.1280311 α      in ANC's #3, #5, #6, ...

........................................................................
.............................. CYCLE    7 ..............................
........................................................................
   1     -8.1981276 -0.819813E+01  0.234E-01    3.03       0.0  T
   2     -8.1981034  0.241273E-04  0.145E-01    3.01       1.0  T
   3     -8.1979439  0.159502E-03  0.196E-01    3.02       1.0  T
   4     -8.1981638 -0.219828E-03  0.470E-02    3.02       1.0  T
   5     -8.1981690 -0.523643E-05  0.642E-03    3.01       7.0  T
   6     -8.1981690 -0.123279E-07  0.166E-03    3.01      27.0  T
   7     -8.1981690 -0.694214E-09  0.275E-04    3.01     162.7  T
   8     -8.1981690 -0.452278E-10  0.972E-05    3.01     460.1  T
     SCC iter.                  ...        0 min,  0.001 sec
     gradient                   ...        0 min,  0.001 sec
 * total energy  :    -8.0421130 Eh     change       -0.1913257E-02 Eh
   gradient norm :     0.0181690 Eh/α   predicted    -0.1534996E-02 ( -19.77%)
   displ. norm   :     0.2061875 α      lambda       -0.1433607E-02
   maximum displ.:     0.1508482 α      in ANC's #1, #2, #3, ...

........................................................................
.............................. CYCLE    8 ..............................
........................................................................
   1     -8.2002101 -0.820021E+01  0.811E-01    2.98       0.0  T
   2     -8.1927641  0.744596E-02  0.110E+00    2.95       1.0  T
   3     -8.2013139 -0.854981E-02  0.468E-01    2.97       1.0  T
   4     -8.2021773 -0.863387E-03  0.315E-02    2.97       1.4  T
   5     -8.2021791 -0.177366E-05  0.133E-02    2.96       3.4  T
   6     -8.2021793 -0.231608E-06  0.376E-03    2.96      11.9  T
   7     -8.2021794 -0.261991E-07  0.105E-03    2.96      42.7  T
   8     -8.2021794 -0.218124E-08  0.169E-04    2.96     264.6  T
   9     -8.2021794 -0.750511E-11  0.267E-05    2.96    1677.3  T
     SCC iter.                  ...        0 min,  0.001 sec
     gradient                   ...        0 min,  0.001 sec
 * total energy  :    -8.0421351 Eh     change       -0.2207345E-04 Eh
   gradient norm :     0.0551317 Eh/α   predicted    -0.7472751E-03 (3285.40%)
   displ. norm   :     0.4375427 α      lambda       -0.4482384E-02
   maximum displ.:     0.3311897 α      in ANC's #1, #6, #2, ...

........................................................................
.............................. CYCLE    9 ..............................
........................................................................
   1     -8.1926957 -0.819270E+01  0.160E+00    2.92       0.0  T
   2     -8.1650263  0.276693E-01  0.215E+00    2.90       1.0  T
   3     -8.1969688 -0.319425E-01  0.898E-01    2.91       1.0  T
   4     -8.2000142 -0.304538E-02  0.426E-02    2.89       1.0  T
   5     -8.2000161 -0.190199E-05  0.163E-02    2.89       2.7  T
   6     -8.2000164 -0.343827E-06  0.359E-03    2.89      12.5  T
   7     -8.2000165 -0.206927E-07  0.111E-03    2.89      40.4  T
   8     -8.2000165 -0.214244E-08  0.324E-04    2.89     138.0  T
   9     -8.2000165 -0.235012E-10  0.435E-05    2.89    1027.6  T
     SCC iter.                  ...        0 min,  0.001 sec
     gradient                   ...        0 min,  0.001 sec
 * total energy  :    -8.0413407 Eh     change        0.7944096E-03 Eh
   gradient norm :     0.0665603 Eh/α   predicted    -0.2670254E-02 (-436.13%)
   displ. norm   :     0.2298845 α      lambda       -0.4420950E-02
   maximum displ.:     0.1571443 α      in ANC's #1, #5, #2, ...

........................................................................
.............................. CYCLE   10 ..............................
........................................................................
   1     -8.2070899 -0.820709E+01  0.896E-01    3.00       0.0  T
   2     -8.2008423  0.624762E-02  0.104E+00    2.99       1.0  T
   3     -8.2076708 -0.682850E-02  0.566E-01    2.98       1.0  T
   4     -8.2089492 -0.127833E-02  0.439E-02    2.98       1.0  T
   5     -8.2089531 -0.395236E-05  0.158E-02    2.98       2.8  T
   6     -8.2089536 -0.517670E-06  0.353E-03    2.98      12.7  T
   7     -8.2089537 -0.325020E-07  0.778E-04    2.98      57.4  T
   8     -8.2089537 -0.125225E-08  0.138E-04    2.98     323.4  T
     SCC iter.                  ...        0 min,  0.000 sec
     gradient                   ...        0 min,  0.001 sec
 * total energy  :    -8.0433228 Eh     change       -0.1982067E-02 Eh
   gradient norm :     0.0130213 Eh/α   predicted    -0.2327290E-02 (  17.42%)
   displ. norm   :     0.0792837 α      lambda       -0.3072874E-03
   maximum displ.:     0.0608100 α      in ANC's #1, #3, #4, ...

........................................................................
.............................. CYCLE   11 ..............................
........................................................................
   1     -8.2091888 -0.820919E+01  0.160E-01    3.03       0.0  T
   2     -8.2091176  0.712968E-04  0.138E-01    3.03       1.0  T
   3     -8.2091483 -0.307937E-04  0.123E-01    3.03       1.0  T
   4     -8.2092196 -0.712752E-04  0.201E-02    3.03       2.2  T
   5     -8.2092200 -0.424942E-06  0.451E-03    3.03       9.9  T
   6     -8.2092201 -0.145569E-07  0.908E-04    3.03      49.2  T
   7     -8.2092201 -0.489925E-09  0.145E-04    3.03     307.9  T
     SCC iter.                  ...        0 min,  0.000 sec
     gradient                   ...        0 min,  0.001 sec
 * total energy  :    -8.0433291 Eh     change       -0.6384958E-05 Eh
   gradient norm :     0.0114099 Eh/α   predicted    -0.1546077E-03 (2321.44%)
   displ. norm   :     0.0574898 α      lambda       -0.2153993E-03
   maximum displ.:     0.0556434 α      in ANC's #1, #3, #4, ...

........................................................................
.............................. CYCLE   12 ..............................
........................................................................
   1     -8.2081750 -0.820818E+01  0.951E-02    3.03       0.0  T
   2     -8.2081583  0.167482E-04  0.730E-02    3.02       1.0  T
   3     -8.2081538  0.448240E-05  0.764E-02    3.02       1.0  T
   4     -8.2081837 -0.299410E-04  0.138E-02    3.02       3.2  T
   5     -8.2081839 -0.211369E-06  0.168E-03    3.02      26.7  T
   6     -8.2081839 -0.236773E-08  0.353E-04    3.02     126.6  T
   7     -8.2081839 -0.626414E-10  0.730E-05    3.02     612.3  T
     SCC iter.                  ...        0 min,  0.001 sec
     gradient                   ...        0 min,  0.001 sec
 * total energy  :    -8.0434529 Eh     change       -0.1237674E-03 Eh
   gradient norm :     0.0041216 Eh/α   predicted    -0.1080562E-03 ( -12.69%)
   displ. norm   :     0.0170583 α      lambda       -0.4408522E-04
   maximum displ.:     0.0114344 α      in ANC's #1, #4, #8, ...

........................................................................
.............................. CYCLE   13 ..............................
........................................................................
   1     -8.2091580 -0.820916E+01  0.774E-02    3.04       0.0  T
   2     -8.2091266  0.314198E-04  0.782E-02    3.04       1.0  T
   3     -8.2091561 -0.295246E-04  0.538E-02    3.04       1.0  T
   4     -8.2091688 -0.126933E-04  0.101E-02    3.04       4.4  T
   5     -8.2091689 -0.915507E-07  0.152E-03    3.04      29.4  T
   6     -8.2091689 -0.168607E-08  0.352E-04    3.04     127.1  T
   7     -8.2091689 -0.752092E-10  0.779E-05    3.04     574.4  T
     SCC iter.                  ...        0 min,  0.001 sec
     gradient                   ...        0 min,  0.001 sec
 * total energy  :    -8.0434766 Eh     change       -0.2365278E-04 Eh
   gradient norm :     0.0047020 Eh/α   predicted    -0.2204938E-04 (  -6.78%)
   displ. norm   :     0.0292723 α      lambda       -0.3831838E-04
   maximum displ.:     0.0258817 α      in ANC's #1, #8, #5, ...

........................................................................
.............................. CYCLE   14 ..............................
........................................................................
   1     -8.2097874 -0.820979E+01  0.782E-02    3.05       0.0  T
   2     -8.2097891 -0.174407E-05  0.432E-02    3.05       1.0  T
   3     -8.2097823  0.684871E-05  0.385E-02    3.05       1.2  T
   4     -8.2097863 -0.401273E-05  0.248E-02    3.05       1.8  T
   5     -8.2097900 -0.376978E-05  0.161E-03    3.05      27.8  T
   6     -8.2097900 -0.940611E-09  0.332E-04    3.05     134.7  T
   7     -8.2097900 -0.361613E-10  0.475E-05    3.05     942.1  T
     SCC iter.                  ...        0 min,  0.000 sec
     gradient                   ...        0 min,  0.001 sec
 * total energy  :    -8.0434994 Eh     change       -0.2287854E-04 Eh
   gradient norm :     0.0054080 Eh/α   predicted    -0.1917544E-04 ( -16.19%)
   displ. norm   :     0.0188068 α      lambda       -0.2556330E-04
   maximum displ.:     0.0153322 α      in ANC's #1, #8, #6, ...

........................................................................
.............................. CYCLE   15 ..............................
........................................................................
   1     -8.2099286 -0.820993E+01  0.587E-02    3.05       0.0  T
   2     -8.2099180  0.106163E-04  0.519E-02    3.05       1.0  T
   3     -8.2099234 -0.536739E-05  0.438E-02    3.05       1.0  T
   4     -8.2099321 -0.870579E-05  0.368E-03    3.05      12.2  T
   5     -8.2099321 -0.112428E-07  0.135E-03    3.05      33.2  T
   6     -8.2099321 -0.107455E-08  0.339E-04    3.05     132.1  T
   7     -8.2099321 -0.204619E-10  0.409E-05    3.05    1093.8  T
     SCC iter.                  ...        0 min,  0.000 sec
     gradient                   ...        0 min,  0.001 sec
 * total energy  :    -8.0435172 Eh     change       -0.1775918E-04 Eh
   gradient norm :     0.0026948 Eh/α   predicted    -0.1278495E-04 ( -28.01%)
   displ. norm   :     0.0284937 α      lambda       -0.2516684E-04
   maximum displ.:     0.0191863 α      in ANC's #1, #3, #8, ...

........................................................................
.............................. CYCLE   16 ..............................
........................................................................
   1     -8.2104503 -0.821045E+01  0.761E-02    3.03       0.0  T
   2     -8.2104495  0.838208E-06  0.467E-02    3.03       1.0  T
   3     -8.2104242  0.252602E-04  0.635E-02    3.03       1.0  T
   4     -8.2104511 -0.268436E-04  0.563E-03    3.03       7.9  T
   5     -8.2104511 -0.965060E-07  0.184E-03    3.03      24.3  T
   6     -8.2104511 -0.771530E-09  0.319E-04    3.03     140.3  T
   7     -8.2104511 -0.443965E-10  0.361E-05    3.03    1238.7  T
     SCC iter.                  ...        0 min,  0.000 sec
     gradient                   ...        0 min,  0.001 sec
 * total energy  :    -8.0435360 Eh     change       -0.1874695E-04 Eh
   gradient norm :     0.0021463 Eh/α   predicted    -0.1259448E-04 ( -32.82%)
   displ. norm   :     0.0577253 α      lambda       -0.3028342E-04
   maximum displ.:     0.0426237 α      in ANC's #1, #3, #8, ...

........................................................................
.............................. CYCLE   17 ..............................
........................................................................
   1     -8.2101898 -0.821019E+01  0.120E-01    2.99       0.0  T
   2     -8.2101895  0.326912E-06  0.724E-02    2.99       1.0  T
   3     -8.2101621  0.274148E-04  0.634E-02    2.99       1.0  T
   4     -8.2101903 -0.282725E-04  0.385E-03    2.99      11.6  T
   5     -8.2101904 -0.159952E-07  0.178E-03    2.99      25.2  T
   6     -8.2101904 -0.874950E-09  0.213E-04    2.99     210.1  T
   7     -8.2101904 -0.275957E-10  0.519E-05    2.99     861.8  T
     SCC iter.                  ...        0 min,  0.000 sec
     gradient                   ...        0 min,  0.001 sec
 * total energy  :    -8.0435572 Eh     change       -0.2128839E-04 Eh
   gradient norm :     0.0017835 Eh/α   predicted    -0.1519064E-04 ( -28.64%)
   displ. norm   :     0.0691542 α      lambda       -0.1402268E-04
   maximum displ.:     0.0459729 α      in ANC's #1, #3, #8, ...

........................................................................
.............................. CYCLE   18 ..............................
........................................................................
   1     -8.2098823 -0.820988E+01  0.153E-01    2.94       0.0  T
   2     -8.2098759  0.636617E-05  0.961E-02    2.94       1.0  T
   3     -8.2097517  0.124253E-03  0.141E-01    2.94       1.0  T
   4     -8.2098848 -0.133112E-03  0.443E-03    2.94      10.1  T
   5     -8.2098848 -0.224331E-08  0.430E-04    2.94     104.1  T
   6     -8.2098848 -0.757208E-10  0.138E-04    2.94     323.0  T
     SCC iter.                  ...        0 min,  0.000 sec
     gradient                   ...        0 min,  0.001 sec
 * total energy  :    -8.0435660 Eh     change       -0.8793236E-05 Eh
   gradient norm :     0.0012008 Eh/α   predicted    -0.7024508E-05 ( -20.11%)
   displ. norm   :     0.0030026 α      lambda       -0.1448675E-05
   maximum displ.:     0.0021500 α      in ANC's #6, #2, #1, ...

........................................................................
.............................. CYCLE   19 ..............................
........................................................................
   1     -8.2100988 -0.821010E+01  0.100E-02    2.95       0.0  T
   2     -8.2100988  0.377137E-07  0.590E-03    2.95       7.6  T
   3     -8.2100983  0.473286E-06  0.953E-03    2.95       4.7  T
   4     -8.2100989 -0.542485E-06  0.788E-04    2.95      56.7  T
   5     -8.2100989 -0.313815E-09  0.310E-04    2.95     144.1  T
     SCC iter.                  ...        0 min,  0.000 sec
     gradient                   ...        0 min,  0.001 sec
 * total energy  :    -8.0435673 Eh     change       -0.1250630E-05 Eh
   gradient norm :     0.0003464 Eh/α   predicted    -0.7256093E-06 ( -41.98%)
   displ. norm   :     0.0182377 α      lambda       -0.9101601E-06
   maximum displ.:     0.0145640 α      in ANC's #1, #3, #8, ...

   *** GEOMETRY OPTIMIZATION CONVERGED AFTER 19 ITERATIONS ***

------------------------------------------------------------------------
 total energy gain   :        -0.1406460 Eh      -88.2567 kcal/mol
 total RMSD          :         1.0588525 a0        0.5603 Å
 total power (kW/mol):       -19.4350597 (step)-9457.1959 (real)
------------------------------------------------------------------------

 ANCopt (total)                0 d,  0 h,  0 min,  0.039 sec
 optimizer setup                ...        0 min,  0.000 sec (  0.169%)
 model hessian                  ...        0 min,  0.000 sec (  0.241%)
 ANC generation                 ...        0 min,  0.000 sec (  0.131%)
 coordinate transformation      ...        0 min,  0.000 sec (  0.101%)
 single point calculation       ...        0 min,  0.037 sec ( 95.217%)
 optimization log               ...        0 min,  0.001 sec (  1.330%)
 hessian update                 ...        0 min,  0.000 sec (  0.107%)
 rational function              ...        0 min,  0.000 sec (  1.198%)

================
 final structure:
================
5
 xtb: 6.2.2 (9d81278992624c895f80dd42a50cac0aa55982e2)
N        -0.00023835238166    0.00649784536519    0.00721363114037
C        -1.16954512663684    0.26039823652066   -0.20428069335124
C         1.16997095102076   -0.22421637688741    0.23852591357868
H        -2.09455691031029   -0.13351299473407    0.13552432245658
H         2.09436943830803    0.09083328973565   -0.17698417382440

 Bond Distances (Angstroems)
 ---------------------------
N1-C2=1.2151         N1-C3=1.2150         C2-N1=1.2151         C2-H4=1.0613         C3-N1=1.2150         C3-H5=1.0613         
H4-C2=1.0613         H5-C3=1.0613         
 C  H  Rav=1.0613 sigma=0.0000  Rmin=1.0613  Rmax=1.0613     2
 N  C  Rav=1.2150 sigma=0.0001  Rmin=1.2150  Rmax=1.2151     2

 selected bond angles (degree)
 --------------------
C3-N1-C2=178.56                H4-C2-N1=134.87                H5-C3-N1=135.07                

 selected dihedral angles (degree)
 ---------------------------------
H4-C2-N1-C3=260.90            H5-C3-N1-C2=269.31            
           -------------------------------------------------
          |                Final Singlepoint                |
           -------------------------------------------------

          ...................................................
          :                      SETUP                      :
          :.................................................:
          :  # basis functions                  14          :
          :  # atomic orbitals                  14          :
          :  # shells                            8          :
          :  # electrons                        15          :
          :  max. iterations                   250          :
          :  Hamiltonian                  GFN2-xTB          :
          :  restarted?                      false          :
          :  GBSA solvation                  false          :
          :  PC potential                    false          :
          :  electronic temp.          300.0000000     K    :
          :  accuracy                    1.0000000          :
          :  -> integral cutoff          0.2500000E+02      :
          :  -> integral neglect         0.1000000E-07      :
          :  -> SCF convergence          0.1000000E-05 Eh   :
          :  -> wf. convergence          0.1000000E-03 e    :
          :  Broyden damping             0.4000000          :
          ...................................................

 iter      E             dE          RMSdq      gap      omega  full diag
   1     -8.2100989 -0.821010E+01  0.947E-05    2.95       0.0  T
   2     -8.2100989  0.173550E-11  0.685E-05    2.95     653.1  T
   3     -8.2100989  0.414868E-10  0.750E-05    2.95     596.0  T

   *** convergence criteria satisfied after 3 iterations ***

         #    Occupation            Energy/Eh            Energy/eV
      -------------------------------------------------------------
         1        2.0000           -0.6609104             -17.9843
         2        2.0000           -0.6150047             -16.7351
         3        2.0000           -0.5326874             -14.4952
         4        2.0000           -0.5305192             -14.4362
         5        2.0000           -0.5188776             -14.1194
         6        2.0000           -0.4826341             -13.1331
         7        2.0000           -0.3568389              -9.7101
         8        1.0000           -0.3298570              -8.9759 (HOMO)
         9                         -0.2215901              -6.0298 (LUMO)
        10                         -0.1613875              -4.3916
        11                          0.1140309               3.1029
        12                          0.2829452               7.6993
        13                          0.4427809              12.0487
        14                          1.1258413              30.6357
      -------------------------------------------------------------
                  HL-Gap            0.1082669 Eh            2.9461 eV
             Fermi-level           -0.3095358 Eh           -8.4229 eV

 SCC (total)                   0 d,  0 h,  0 min,  0.002 sec
 SCC setup                      ...        0 min,  0.000 sec (  2.193%)
 Dispersion                     ...        0 min,  0.000 sec (  0.386%)
 integral evaluation            ...        0 min,  0.001 sec ( 34.886%)
 zeroth order Hamiltonian       ...        0 min,  0.000 sec (  1.091%)
 iterations                     ...        0 min,  0.001 sec ( 23.977%)
 molecular gradient             ...        0 min,  0.001 sec ( 32.545%)
 printout                       ...        0 min,  0.000 sec (  4.568%)

         :::::::::::::::::::::::::::::::::::::::::::::::::::::
         ::                     SUMMARY                     ::
         :::::::::::::::::::::::::::::::::::::::::::::::::::::
         :: total energy              -8.043567290861 Eh    ::
         :: gradient norm              0.000362901029 Eh/a0 ::
         :: HOMO-LUMO gap              2.946092326138 eV    ::
         ::.................................................::
         :: SCC energy                -8.210098871276 Eh    ::
         :: -> isotropic ES            0.000134234158 Eh    ::
         :: -> anisotropic ES         -0.001094937499 Eh    ::
         :: -> anisotropic XC          0.018996613793 Eh    ::
         :: -> dispersion             -0.001520752470 Eh    ::
         :: repulsion energy           0.166531713028 Eh    ::
         :: add. restraining           0.000000000000 Eh    ::
         :::::::::::::::::::::::::::::::::::::::::::::::::::::

           ------------------------------------------------- 
          |                Numerical Hessian                |
           ------------------------------------------------- 
step length          :   0.00500
SCC accuracy         :   0.30000
Hessian scale factor :   1.00000
frozen atoms in %    :   0.00000    0
RMS gradient         :   0.00036
estimated CPU  time      0.00 min
estimated wall time      0.00 min

writing file <hessian>.

 projected vibrational frequencies (cm-1)
eigval :       -0.00    -0.00    -0.00     0.00     0.00     0.00
eigval :      118.19   374.28   407.07   469.28   849.71  1405.24
eigval :     2037.45  3215.04  3216.65
           -------------------------------------------------
          |                Property Printout                |
           -------------------------------------------------

    * Orbital Energies and Occupations

         #    Occupation            Energy/Eh            Energy/eV
      -------------------------------------------------------------
         1        2.0000           -0.6609104             -17.9843
         2        2.0000           -0.6150046             -16.7351
         3        2.0000           -0.5326874             -14.4952
         4        2.0000           -0.5305192             -14.4362
         5        2.0000           -0.5188776             -14.1194
         6        2.0000           -0.4826340             -13.1331
         7        2.0000           -0.3568389              -9.7101
         8        1.0000           -0.3298570              -8.9759 (HOMO)
         9                         -0.2215901              -6.0298 (LUMO)
        10                         -0.1613875              -4.3916
        11                          0.1140309               3.1029
        12                          0.2829453               7.6993
        13                          0.4427809              12.0487
        14                          1.1258413              30.6357
      -------------------------------------------------------------
                  HL-Gap            0.1082669 Eh            2.9461 eV
             Fermi-level           -0.3095358 Eh           -8.4229 eV

     #   Z        covCN         q      C6AA      α(0)
     1   7 N      1.821     0.075    20.575     6.721
     2   6 C      1.849    -0.111    34.230     9.451
     3   6 C      1.849    -0.110    34.221     9.450
     4   1 H      0.927     0.073     2.056     2.242
     5   1 H      0.927     0.073     2.054     2.241

 Mol. C6AA /au·bohr⁶  :        364.244632
 Mol. C8AA /au·bohr⁸  :       8857.178524
 Mol. α(0) /au        :         30.104762


Wiberg/Mayer (AO) data.
largest (>0.10) Wiberg bond orders for each atom
          total WBO             WBO to atom ...
     1  N   3.731        C    3 1.859    C    2 1.857
     2  C   3.231        N    1 1.857    H    4 0.938    C    3 0.387
     3  C   3.233        N    1 1.859    H    5 0.938    C    2 0.387
     4  H   0.994        C    2 0.938
     5  H   0.994        C    3 0.938

MOs/occ written to file <molden.input>


molecular dipole:
                 x           y           z       tot (Debye)
 q only:        0.001      -0.013      -0.012
   full:        0.001      -0.027      -0.025       0.095
molecular quadrupole (traceless):
                xx          xy          yy          xz          yz          zz
 q only:        1.234       0.519      -0.627      -0.562       0.050      -0.607
  q+dip:        4.074       1.994      -2.078      -2.141       0.112      -1.996
   full:        2.422       1.989      -1.243      -2.070       0.826      -1.180

           -------------------------------------------------
          |                Geometry Summary                 |
           -------------------------------------------------

      molecular mass/u    :       40.0440565
   center of mass at/Å    :        0.0000397       0.0120509       0.0117510
  moments of inertia/u·Å² :        0.9272415E+00   0.4346116E+02   0.4437510E+02
rotational constants/cm⁻¹ :        0.1818041E+02   0.3878781E+00   0.3798895E+00

 * 2 selected distances

     #   Z        #   Z                                     value/Å
     1   7 N      2   6 C                                 1.2151023 (max)
     1   7 N      3   6 C                                 1.2149585 (min)

 * 1 distinct bonds (by element types)

   Z      Z             #   av. dist./Å        max./Å        min./Å
   6 C    7 N           2     1.2150304     1.2151023     1.2149585

           -------------------------------------------------
          |               Frequency Printout                |
           -------------------------------------------------
 projected vibrational frequencies (cm-1)
eigval :       -0.00    -0.00    -0.00     0.00     0.00     0.00
eigval :      118.19   374.28   407.07   469.28   849.71  1405.24
eigval :     2037.45  3215.04  3216.65
 reduced masses (amu)
   1:  1.67   2: 11.81   3: 11.92   4: 11.64   5: 10.24   6: 12.02   7:  5.42   8:  9.45
   9: 13.04  10:  1.93  11:  2.91  12: 11.31  13: 12.71  14:  2.02  15:  2.04
 IR intensities (amu)
   1:  0.04   2:  0.14   3:  0.15   4:  0.29   5:  0.11   6:  0.12   7:  0.36   8:  0.04
   9:  0.79  10:  1.15  11:  0.01  12:  0.02  13:  2.40  14:  0.04  15:  0.16
 Raman intensities (amu)
   1:  0.00   2:  0.00   3:  0.00   4:  0.00   5:  0.00   6:  0.00   7:  0.00   8:  0.00
   9:  0.00  10:  0.00  11:  0.00  12:  0.00  13:  0.00  14:  0.00  15:  0.00
 output can be read by thermo (or use thermo option).
 writing <g98.out> molden fake output.
 recommended (thermochemical) frequency scaling factor: 1.0
Molecule has the following symmetry elements: (C2) 
It seems to be the C2 point group
           -------------------------------------------------
          |             Thermodynamic Functions             |
           -------------------------------------------------

c2  symmetry found (for desy threshold:  0.10E+00) used in thermo

          ...................................................
          :                      SETUP                      :
          :.................................................:
          :  # frequencies                           9      :
          :  # imaginary freq.                       0      :
          :  linear?                             false      :
          :  only rotor calc.                    false      :
          :  symmetry                               c2      :
          :  rotational number                       2      :
          :  scaling factor                  1.0000000      :
          :  rotor cutoff                   50.0000000 cm⁻¹ :
          :  imag. cutoff                  -20.0000000 cm⁻¹ :
          :.................................................:

    mode    ω/cm⁻¹     T·S(HO)/kcal·mol⁻¹    T·S(FR)/kcal·mol⁻¹   T·S(vib)
   ------------------------------------------------------------------------
       1    118.19    -0.00000 ( 96.90%)     0.00689 (  3.10%)     0.00021
   ------------------------------------------------------------------------

   temp. (K)  partition function   enthalpy   heat capacity  entropy
                                   cal/mol     cal/K/mol   cal/K/mol   J/K/mol
 298.15  VIB   3.64                 1041.061      6.919      6.044
         ROT  0.162E+04              888.752      2.981     17.661
         INT  0.588E+04             1929.814      9.900     23.706
         TR   0.245E+27             1481.254      4.968     36.973
         TOT                        3411.0677    14.8681    60.6788   253.8802

   temp. (K)  partition function   enthalpy   heat capacity  entropy
                                   cal/mol     cal/K/mol   cal/K/mol   J/K/mol
 120.00  VIB   1.35                  134.152      2.747      1.725
         ROT   412.                  357.707      2.981     14.948
         INT   557.                  491.859      5.728     16.673
         TR   0.626E+26              596.178      4.968     32.454
         TOT                        1088.0369    10.6960    49.1272   205.5480

   temp. (K)  partition function   enthalpy   heat capacity  entropy
                                   cal/mol     cal/K/mol   cal/K/mol   J/K/mol
 100.00  VIB   1.23                   85.334      2.141      1.285
         ROT   314.                  298.089      2.981     14.405
         INT   387.                  383.423      5.122     15.690
         TR   0.476E+26              496.815      4.968     31.549
         TOT                         880.2384    10.0898    47.2385   197.6458

   temp. (K)  partition function   enthalpy   heat capacity  entropy
                                   cal/mol     cal/K/mol   cal/K/mol   J/K/mol
  80.00  VIB   1.14                   48.139      1.591      0.876
         ROT   224.                  238.471      2.981     13.740
         INT   255.                  286.611      4.572     14.615
         TR   0.341E+26              397.452      4.968     30.440
         TOT                         684.0625     9.5399    45.0558   188.5134

   temp. (K)  partition function   enthalpy   heat capacity  entropy
                                   cal/mol     cal/K/mol   cal/K/mol   J/K/mol
  60.00  VIB   1.06                   21.318      1.093      0.495
         ROT   146.                  178.853      2.981     12.882
         INT   155.                  200.172      4.074     13.377
         TR   0.221E+26              298.089      4.968     29.012
         TOT                         498.2606     9.0423    42.3892   177.3564

   temp. (K)  partition function   enthalpy   heat capacity  entropy
                                   cal/mol     cal/K/mol   cal/K/mol   J/K/mol
  40.00  VIB   1.01                    4.886      0.527      0.167
         ROT   79.4                  119.236      2.981     11.673
         INT   80.5                  124.121      3.508     11.840
         TR   0.120E+26              198.726      4.968     26.999
         TOT                         322.8472     8.4763    38.8389   162.5020

   temp. (K)  partition function   enthalpy   heat capacity  entropy
                                   cal/mol     cal/K/mol   cal/K/mol   J/K/mol
  20.00  VIB   1.00                    0.069      0.029      0.003
         ROT   28.1                   59.618      2.981      9.607
         INT   28.1                   59.686      3.010      9.610
         TR   0.426E+25               99.363      4.968     23.557
         TOT                         159.0494     7.9782    33.1666   138.7692

   temp. (K)  partition function   enthalpy   heat capacity  entropy
                                   cal/mol     cal/K/mol   cal/K/mol   J/K/mol
  10.00  VIB   1.00                    0.000      0.000     -0.023
         ROT   9.92                   29.809      2.981      7.541
         INT   9.92                   29.809      2.981      7.518
         TR   0.151E+25               49.681      4.968     20.115
         TOT                          79.4904     7.9491    27.6329   115.6160

       T/K    H(0)-H(T)+PV         H(T)/Eh          T*S/Eh         G(T)/Eh
   ------------------------------------------------------------------------
    298.15    0.543588E-02    0.329856E-01    0.288305E-01    0.415511E-02
    120.00    0.173390E-02    0.292836E-01    0.939469E-02    0.198889E-01
    100.00    0.140275E-02    0.289524E-01    0.752793E-02    0.214245E-01
     80.00    0.109012E-02    0.286398E-01    0.574408E-02    0.228957E-01
     60.00    0.794029E-03    0.283437E-01    0.405309E-02    0.242906E-01
     40.00    0.514490E-03    0.280642E-01    0.247575E-02    0.255884E-01
     20.00    0.253461E-03    0.278032E-01    0.105709E-02    0.267461E-01
     10.00    0.126676E-03    0.276764E-01    0.440358E-03    0.272360E-01 (used)
   ------------------------------------------------------------------------

         :::::::::::::::::::::::::::::::::::::::::::::::::::::
         ::                  THERMODYNAMIC                  ::
         :::::::::::::::::::::::::::::::::::::::::::::::::::::
         :: total free energy          -8.016331284383 Eh   ::
         ::.................................................::
         :: total energy               -8.043567291031 Eh   ::
         :: zero point energy           0.027549688880 Eh   ::
         :: G(RRHO) w/o ZPVE           -0.000313682232 Eh   ::
         :: G(RRHO) contrib.            0.027236006648 Eh   ::
         :::::::::::::::::::::::::::::::::::::::::::::::::::::

optimized geometry written to: xtbopt.xyz


           -------------------------------------------------
          | TOTAL ENERGY               -8.043567291031 Eh   |
          | TOTAL ENTHALPY             -8.015890926114 Eh   |
          | TOTAL FREE ENERGY          -8.016331284383 Eh   |
          | GRADIENT NORM               0.000361113893 Eh/α |
          | HOMO-LUMO GAP               2.946092101117 eV   |
           -------------------------------------------------

------------------------------------------------------------------------
 * finished run on 2020/05/12 at 11:44:47.707     
------------------------------------------------------------------------
 total:
 * wall-time:     0 d,  0 h,  0 min,  0.113 sec
 *  cpu-time:     0 d,  0 h,  0 min,  0.113 sec
 * ratio c/w:     0.998 speedup
 SCF:
 * wall-time:     0 d,  0 h,  0 min,  0.003 sec
 *  cpu-time:     0 d,  0 h,  0 min,  0.003 sec
 * ratio c/w:     1.000 speedup
 ANC optimizer:
 * wall-time:     0 d,  0 h,  0 min,  0.042 sec
 *  cpu-time:     0 d,  0 h,  0 min,  0.042 sec
 * ratio c/w:     0.998 speedup
 numerical hessian:
 * wall-time:     0 d,  0 h,  0 min,  0.053 sec
 *  cpu-time:     0 d,  0 h,  0 min,  0.053 sec
 * ratio c/w:     0.999 speedup

