      -----------------------------------------------------------      
     |                   =====================                   |     
     |                           x T B                           |     
     |                   =====================                   |     
     |                         S. Grimme                         |     
     |          Mulliken Center for Theoretical Chemistry        |     
     |                    University of Bonn                     |     
      -----------------------------------------------------------      

   * xtb version 6.2.2 (9d81278992624c895f80dd42a50cac0aa55982e2) compiled by '@Darwin' on 04/03/2020

   xtb is free software: you can redistribute it and/or modify it under
   the terms of the GNU Lesser General Public License as published by
   the Free Software Foundation, either version 3 of the License, or
   (at your option) any later version.
   
   xtb is distributed in the hope that it will be useful,
   but WITHOUT ANY WARRANTY; without even the implied warranty of
   MERCHANTABILITY or FITNESS FOR A PARTICULAR PURPOSE.  See the
   GNU Lesser General Public License for more details.
   
   Cite this work as:
   * S. Grimme, C. Bannwarth, P. Shushkov, J. Chem. Theory Comput., 2017,
     13, 1989-2009. DOI: 10.1021/acs.jctc.7b00118
   * C. Bannwarth, S. Ehlert and S. Grimme., J. Chem. Theory Comput., 2019,
     15, 1652-1671. DOI: 10.1021/acs.jctc.8b01176
   * P. Pracht, E. Caldeweyher, S. Ehlert, S. Grimme, ChemRxiv, 2019, preprint.
     DOI: 10.26434/chemrxiv.8326202.v1
   
   for DFT-D4:
   * E. Caldeweyher, C. Bannwarth and S. Grimme, J. Chem. Phys., 2017,
     147, 034112. DOI: 10.1063/1.4993215
   * E. Caldeweyher, S. Ehlert, A. Hansen, H. Neugebauer, S. Spicher,
     C. Bannwarth and S. Grimme, J. Chem. Phys., 2019, 150, 154122.
     DOI: 10.1063/1.5090222
   
   for sTDA-xTB:
   * S. Grimme and C. Bannwarth, J. Chem. Phys., 2016, 145, 054103.
     DOI: 10.1063/1.4959605
   
   in the mass-spec context:
   * V. Asgeirsson, C. Bauer and S. Grimme, Chem. Sci., 2017, 8, 4879.
     DOI: 10.1039/c7sc00601b
   
   for metadynamics refer to:
   * S. Grimme, J. Chem. Theory Comput., 2019, 155, 2847-2862
     DOI: 10.1021/acs.jctc.9b00143
   
   with help from (in alphabetical order)
   C. Bannwarth, F. Bohle, G. Brandenburg, E. Caldeweyher, M. Checinski,
   S. Dohm, S. Ehlert, S. Ehrlich, F. März, H. Neugebauer, J. Pisarek,
   P. Pracht, P. Shushkov, and S. Spicher.
   
 * started run on 2020/05/12 at 11:44:19.540     

           -------------------------------------------------
          |                Calculation Setup                |
           -------------------------------------------------

          program call               : xtb --input C4N1_47_S_1.input C4N1_47_S_1.xyz --ohess --molden --namespace C4N1_47_S_1 output.out
          calculation namespace      : C4N1_47_S_1
          coordinate file            : C4N1_47_S_1.xyz
          number of atoms            :                     5
          number of electrons        :                    21
          charge                     :                     0
          spin                       :                   0.5
          first test random number   :      0.92011158136892

   ID    Z sym.   atoms
    1    7 N      1
    2    6 C      2-5

           -------------------------------------------------
          |                 G F N 2 - x T B                 |
           -------------------------------------------------

        Reference                      10.1021/acs.jctc.8b01176
      * Hamiltonian:
        H0-scaling (s, p, d)           1.850000    2.230000    2.230000
        zeta-weighting                 0.500000
      * Dispersion:
        s8                             2.700000
        a1                             0.520000
        a2                             5.000000
        s9                             5.000000
      * Repulsion:
        kExp                           1.500000    1.000000
        rExp                           1.000000
      * Coulomb:
        alpha                          2.000000
        third order                    shell-resolved
        anisotropic                    true
        a3                             3.000000
        a5                             4.000000
        cn-shift                       1.200000
        cn-exp                         4.000000
        max-rad                        5.000000


          ...................................................
          :                      SETUP                      :
          :.................................................:
          :  # basis functions                  20          :
          :  # atomic orbitals                  20          :
          :  # shells                           10          :
          :  # electrons                        21          :
          :  max. iterations                   250          :
          :  Hamiltonian                  GFN2-xTB          :
          :  restarted?                      false          :
          :  GBSA solvation                  false          :
          :  PC potential                    false          :
          :  electronic temp.          300.0000000     K    :
          :  accuracy                    1.0000000          :
          :  -> integral cutoff          0.2500000E+02      :
          :  -> integral neglect         0.1000000E-07      :
          :  -> SCF convergence          0.1000000E-05 Eh   :
          :  -> wf. convergence          0.1000000E-03 e    :
          :  Broyden damping             0.4000000          :
          ...................................................

 iter      E             dE          RMSdq      gap      omega  full diag
   1    -10.9535371 -0.109535E+02  0.842E+00    0.21       0.0  T
   2     -9.7988231  0.115471E+01  0.120E+01    0.68       1.0  T
   3    -10.6254300 -0.826607E+00  0.830E+00    0.55       1.0  T
   4    -11.0232852 -0.397855E+00  0.424E+00    0.18       1.0  T
   5    -11.0856219 -0.623367E-01  0.186E+00    0.16       1.0  T
   6    -11.0676955  0.179264E-01  0.286E+00    0.13       1.0  T
   7    -11.0603655  0.733003E-02  0.308E+00    0.13       1.0  T
   8    -11.0838593 -0.234938E-01  0.166E+00    0.13       1.0  T
   9    -11.0928513 -0.899203E-02  0.323E-01    0.15       1.0  T
  10    -11.0927802  0.711239E-04  0.342E-01    0.14       1.0  T
  11    -11.0931124 -0.332180E-03  0.798E-02    0.15       1.0  T
  12    -11.0931309 -0.185366E-04  0.426E-02    0.15       1.0  T
  13    -11.0931376 -0.670727E-05  0.202E-02    0.15       2.2  T
  14    -11.0931383 -0.698820E-06  0.110E-02    0.15       4.1  T
  15    -11.0931386 -0.237083E-06  0.422E-03    0.15      10.6  T
  16    -11.0931386 -0.401618E-07  0.220E-03    0.15      20.4  T
  17    -11.0931386 -0.145094E-07  0.597E-04    0.15      74.9  T
  18    -11.0931386 -0.115214E-08  0.138E-04    0.15     323.2  T

   *** convergence criteria satisfied after 18 iterations ***

         #    Occupation            Energy/Eh            Energy/eV
      -------------------------------------------------------------
         1        2.0000           -0.7790632             -21.1994
       ...           ...                  ...                  ...
         5        2.0000           -0.5781335             -15.7318
         6        2.0000           -0.5363910             -14.5959
         7        2.0000           -0.5173928             -14.0790
         8        2.0000           -0.5117461             -13.9253
         9        2.0000           -0.4649342             -12.6515
        10        1.9987           -0.4362989             -11.8723
        11        0.9515           -0.4236483             -11.5281 (HOMO)
        12        0.0498           -0.4180458             -11.3756 (LUMO)
        13                         -0.3448870              -9.3849
        14                         -0.1418896              -3.8610
        15                         -0.0898112              -2.4439
        16                         -0.0735475              -2.0013
       ...                                ...                  ...
        20                          0.3888767              10.5819
      -------------------------------------------------------------
                  HL-Gap            0.0056026 Eh            0.1525 eV
             Fermi-level           -0.4254110 Eh          -11.5760 eV

 SCC (total)                   0 d,  0 h,  0 min,  0.005 sec
 SCC setup                      ...        0 min,  0.000 sec (  1.717%)
 Dispersion                     ...        0 min,  0.000 sec (  0.331%)
 integral evaluation            ...        0 min,  0.001 sec ( 26.674%)
 zeroth order Hamiltonian       ...        0 min,  0.000 sec (  0.414%)
 iterations                     ...        0 min,  0.002 sec ( 40.292%)
 molecular gradient             ...        0 min,  0.001 sec ( 28.850%)
 printout                       ...        0 min,  0.000 sec (  1.549%)

         :::::::::::::::::::::::::::::::::::::::::::::::::::::
         ::                     SUMMARY                     ::
         :::::::::::::::::::::::::::::::::::::::::::::::::::::
         :: total energy             -10.983439869138 Eh    ::
         :: gradient norm              0.235594773573 Eh/a0 ::
         :: HOMO-LUMO gap              0.152453378850 eV    ::
         ::.................................................::
         :: SCC energy               -11.093138612210 Eh    ::
         :: -> isotropic ES           -0.008192786452 Eh    ::
         :: -> anisotropic ES          0.003694007221 Eh    ::
         :: -> anisotropic XC          0.002279902283 Eh    ::
         :: -> dispersion             -0.002739688356 Eh    ::
         :: repulsion energy           0.109698720420 Eh    ::
         :: add. restraining           0.000000000000 Eh    ::
         :::::::::::::::::::::::::::::::::::::::::::::::::::::

      ----------------------------------------------------------- 
     |                   =====================                   |
     |                        A N C O P T                        |
     |                   =====================                   |
     |               Approximate Normal Coordinate               |
     |                Rational Function Optimizer                |
      ----------------------------------------------------------- 

          ...................................................
          :                      SETUP                      :
          :.................................................:
          :   optimization level            normal          :
          :   max. optcycles                   200          :
          :   ANC micro-cycles                  20          :
          :   degrees of freedom                 9          :
          :.................................................:
          :   RF solver                   davidson          :
          :   write xtbopt.log                true          :
          :   linear?                        false          :
          :   energy convergence         0.5000000E-05 Eh   :
          :   grad. convergence          0.1000000E-02 Eh/α :
          :   maximium RF displ.         1.0000000          :
          :   Hlow (freq-cutoff)         0.1000000E-01      :
          :   Hmax (freq-cutoff)         5.0000000          :
          :   S6 in model hess.         20.0000000          :
          ...................................................

generating ANC from model Hessian ...
Using Lindh-Hessian (1995)
 Shifting diagonal of input Hessian by    0.0000000000000000     
 Lowest  eigenvalues of input Hessian
   -0.000000   -0.000000   -0.000000    0.000000    0.000000    0.000000
    0.125428    0.336851    0.766648    0.812782    0.903996    0.921253
    1.042024    1.224644    1.749512
 Highest eigenvalues
    0.812782    0.903996    0.921253    1.042024    1.224644    1.749512


........................................................................
.............................. CYCLE    1 ..............................
........................................................................
   1    -11.0931386 -0.110931E+02  0.490E-05    0.15       0.0  T
   2    -11.0931386  0.188074E-09  0.143E-04    0.15     312.5  T
   3    -11.0931386 -0.185391E-09  0.405E-05    0.15    1105.4  T
     SCC iter.                  ...        0 min,  0.001 sec
     gradient                   ...        0 min,  0.001 sec
 * total energy  :   -10.9834399 Eh     change       -0.3376144E-10 Eh
   gradient norm :     0.2355946 Eh/α   predicted     0.0000000E+00 (-100.00%)
   displ. norm   :     0.2534959 α      lambda       -0.5258521E-01
   maximum displ.:     0.1706640 α      in ANC's #2, #7, #5, ...

........................................................................
.............................. CYCLE    2 ..............................
........................................................................
   1    -11.1339239 -0.111339E+02  0.190E+00    0.87       0.0  T
   2    -11.1143262  0.195977E-01  0.218E+00    0.80       1.0  T
   3    -11.1312046 -0.168784E-01  0.106E+00    0.85       1.0  T
   4    -11.1348196 -0.361504E-02  0.564E-01    0.88       1.0  T
   5    -11.1368498 -0.203013E-02  0.213E-01    0.81       1.0  T
   6    -11.1370024 -0.152588E-03  0.119E-01    0.84       1.0  T
   7    -11.1370385 -0.360854E-04  0.321E-02    0.84       1.4  T
   8    -11.1370448 -0.633886E-05  0.958E-03    0.84       4.7  T
   9    -11.1370450 -0.247140E-06  0.808E-04    0.84      55.4  T
  10    -11.1370450 -0.217206E-09  0.483E-04    0.84      92.5  T
     SCC iter.                  ...        0 min,  0.001 sec
     gradient                   ...        0 min,  0.001 sec
 * total energy  :   -11.0295757 Eh     change       -0.4613579E-01 Eh
   gradient norm :     0.1412474 Eh/α   predicted    -0.2798217E-01 ( -39.35%)
   displ. norm   :     0.5436247 α      lambda       -0.6856426E-01
   maximum displ.:     0.4550732 α      in ANC's #2, #7, #5, ...

........................................................................
.............................. CYCLE    3 ..............................
........................................................................
   1    -11.1826058 -0.111826E+02  0.423E+00    3.04       0.0  T
   2    -11.1334451  0.491607E-01  0.405E+00    3.17       1.0  T
   3    -11.1497512 -0.163061E-01  0.270E+00    2.90       1.0  T
   4    -11.1856055 -0.358544E-01  0.113E+00    3.04       1.0  T
   5    -11.1866815 -0.107592E-02  0.822E-01    3.08       1.0  T
   6    -11.1875174 -0.835991E-03  0.689E-01    3.08       1.0  T
   7    -11.1879044 -0.386907E-03  0.610E-01    3.09       1.0  T
   8    -11.1891245 -0.122018E-02  0.392E-02    3.13       1.1  T
   9    -11.1891274 -0.290814E-05  0.870E-03    3.13       5.1  T
  10    -11.1891276 -0.128575E-06  0.382E-03    3.13      11.7  T
  11    -11.1891276 -0.578829E-07  0.940E-04    3.13      47.6  T
  12    -11.1891276 -0.240330E-08  0.215E-04    3.13     207.9  T
     SCC iter.                  ...        0 min,  0.001 sec
     gradient                   ...        0 min,  0.001 sec
 * total energy  :   -11.0500956 Eh     change       -0.2051998E-01 Eh
   gradient norm :     0.0971004 Eh/α   predicted    -0.4441346E-01 ( 116.44%)
   displ. norm   :     0.1589432 α      lambda       -0.1284542E-01
   maximum displ.:     0.1174016 α      in ANC's #2, #7, #4, ...

........................................................................
.............................. CYCLE    4 ..............................
........................................................................
   1    -11.1714261 -0.111714E+02  0.130E+00    2.50       0.0  T
   2    -11.1635013  0.792482E-02  0.141E+00    2.45       1.0  T
   3    -11.1728806 -0.937933E-02  0.667E-01    2.50       1.0  T
   4    -11.1741801 -0.129948E-02  0.901E-02    2.50       1.0  T
   5    -11.1741992 -0.190613E-04  0.411E-02    2.49       1.1  T
   6    -11.1741997 -0.506868E-06  0.705E-03    2.50       6.3  T
   7    -11.1741996  0.384183E-07  0.551E-03    2.49       8.1  T
   8    -11.1741998 -0.208455E-06  0.181E-03    2.49      24.7  T
   9    -11.1741998 -0.389911E-08  0.252E-04    2.49     177.4  T
  10    -11.1741998 -0.101965E-09  0.167E-04    2.49     267.5  T
     SCC iter.                  ...        0 min,  0.001 sec
     gradient                   ...        0 min,  0.001 sec
 * total energy  :   -11.0562818 Eh     change       -0.6186111E-02 Eh
   gradient norm :     0.0298627 Eh/α   predicted    -0.6584967E-02 (   6.45%)
   displ. norm   :     0.0402257 α      lambda       -0.1168894E-02
   maximum displ.:     0.0319708 α      in ANC's #5, #4, #2, ...

........................................................................
.............................. CYCLE    5 ..............................
........................................................................
   1    -11.1747825 -0.111748E+02  0.428E-01    2.52       0.0  T
   2    -11.1742245  0.558031E-03  0.388E-01    2.54       1.0  T
   3    -11.1746736 -0.449120E-03  0.263E-01    2.53       1.0  T
   4    -11.1749709 -0.297240E-03  0.855E-02    2.51       1.0  T
   5    -11.1750181 -0.472302E-04  0.243E-02    2.53       1.8  T
   6    -11.1750217 -0.365398E-05  0.101E-02    2.53       4.4  T
   7    -11.1750219 -0.130262E-06  0.198E-03    2.53      22.6  T
   8    -11.1750219 -0.212611E-07  0.487E-04    2.53      91.8  T
   9    -11.1750219 -0.102512E-09  0.584E-05    2.53     766.2  T
     SCC iter.                  ...        0 min,  0.001 sec
     gradient                   ...        0 min,  0.001 sec
 * total energy  :   -11.0574107 Eh     change       -0.1128973E-02 Eh
   gradient norm :     0.0276068 Eh/α   predicted    -0.5853918E-03 ( -48.15%)
   displ. norm   :     0.4468594 α      lambda       -0.1202498E-01
   maximum displ.:     0.3520233 α      in ANC's #5, #4, #2, ...

........................................................................
.............................. CYCLE    6 ..............................
........................................................................
   1    -11.1559461 -0.111559E+02  0.406E+00    2.69       0.0  T
   2    -11.1278443  0.281018E-01  0.353E+00    2.62       1.0  T
   3    -11.1692865 -0.414422E-01  0.189E+00    2.69       1.0  T
   4    -11.1802874 -0.110009E-01  0.246E-01    2.76       1.0  T
   5    -11.1804823 -0.194946E-03  0.139E-01    2.72       1.0  T
   6    -11.1805044 -0.221015E-04  0.278E-02    2.73       1.6  T
   7    -11.1805082 -0.379632E-05  0.922E-03    2.73       4.8  T
   8    -11.1805082  0.102869E-07  0.290E-03    2.73      15.4  T
   9    -11.1805082 -0.126007E-07  0.205E-03    2.73      21.8  T
  10    -11.1805082 -0.246572E-07  0.763E-04    2.73      58.6  T
  11    -11.1805082 -0.934829E-09  0.112E-04    2.73     398.5  T
     SCC iter.                  ...        0 min,  0.001 sec
     gradient                   ...        0 min,  0.001 sec
 * total energy  :   -11.0613617 Eh     change       -0.3951026E-02 Eh
   gradient norm :     0.0354934 Eh/α   predicted    -0.7213093E-02 (  82.56%)
   displ. norm   :     0.1262462 α      lambda       -0.3019564E-02
   maximum displ.:     0.1030948 α      in ANC's #5, #4, #8, ...

........................................................................
.............................. CYCLE    7 ..............................
........................................................................
   1    -11.1764333 -0.111764E+02  0.109E+00    3.01       0.0  T
   2    -11.1743770  0.205629E-02  0.948E-01    3.13       1.0  T
   3    -11.1772556 -0.287865E-02  0.528E-01    3.05       1.0  T
   4    -11.1781448 -0.889168E-03  0.123E-01    3.05       1.0  T
   5    -11.1782321 -0.872385E-04  0.424E-02    3.08       1.1  T
   6    -11.1782381 -0.602708E-05  0.245E-02    3.07       1.8  T
   7    -11.1782392 -0.114408E-05  0.287E-03    3.07      15.6  T
   8    -11.1782392  0.227602E-08  0.153E-03    3.07      29.2  T
   9    -11.1782392 -0.344314E-08  0.235E-04    3.07     190.6  T
  10    -11.1782392  0.186489E-09  0.196E-04    3.07     227.8  T
     SCC iter.                  ...        0 min,  0.001 sec
     gradient                   ...        0 min,  0.001 sec
 * total energy  :   -11.0625970 Eh     change       -0.1235262E-02 Eh
   gradient norm :     0.0063184 Eh/α   predicted    -0.1533846E-02 (  24.17%)
   displ. norm   :     0.0318133 α      lambda       -0.1265373E-03
   maximum displ.:     0.0227100 α      in ANC's #5, #4, #2, ...

........................................................................
.............................. CYCLE    8 ..............................
........................................................................
   1    -11.1780253 -0.111780E+02  0.288E-01    3.13       0.0  T
   2    -11.1778846  0.140707E-03  0.249E-01    3.12       1.0  T
   3    -11.1780736 -0.188953E-03  0.139E-01    3.13       1.0  T
   4    -11.1781412 -0.675874E-04  0.118E-02    3.13       3.8  T
   5    -11.1781414 -0.195915E-06  0.653E-03    3.12       6.9  T
   6    -11.1781413  0.858226E-07  0.490E-03    3.13       9.1  T
   7    -11.1781414 -0.159578E-06  0.586E-04    3.12      76.4  T
   8    -11.1781414 -0.117627E-09  0.238E-04    3.12     188.2  T
     SCC iter.                  ...        0 min,  0.001 sec
     gradient                   ...        0 min,  0.001 sec
 * total energy  :   -11.0626756 Eh     change       -0.7861938E-04 Eh
   gradient norm :     0.0034907 Eh/α   predicted    -0.6333160E-04 ( -19.45%)
   displ. norm   :     0.0102974 α      lambda       -0.2033596E-04
   maximum displ.:     0.0071599 α      in ANC's #4, #5, #2, ...

........................................................................
.............................. CYCLE    9 ..............................
........................................................................
   1    -11.1781258 -0.111781E+02  0.882E-02    3.15       0.0  T
   2    -11.1781147  0.111527E-04  0.747E-02    3.15       1.0  T
   3    -11.1781284 -0.137276E-04  0.434E-02    3.15       1.0  T
   4    -11.1781352 -0.683148E-05  0.468E-03    3.15       9.6  T
   5    -11.1781353 -0.851179E-07  0.280E-03    3.15      16.0  T
   6    -11.1781354 -0.256831E-07  0.128E-03    3.15      35.0  T
   7    -11.1781354 -0.385114E-08  0.175E-04    3.15     255.1  T
   8    -11.1781354 -0.155023E-10  0.746E-05    3.15     599.8  T
     SCC iter.                  ...        0 min,  0.001 sec
     gradient                   ...        0 min,  0.001 sec
 * total energy  :   -11.0626888 Eh     change       -0.1314825E-04 Eh
   gradient norm :     0.0017982 Eh/α   predicted    -0.1017043E-04 ( -22.65%)
   displ. norm   :     0.0056461 α      lambda       -0.6064187E-05
   maximum displ.:     0.0037606 α      in ANC's #4, #8, #2, ...

........................................................................
.............................. CYCLE   10 ..............................
........................................................................
   1    -11.1783007 -0.111783E+02  0.432E-02    3.15       0.0  T
   2    -11.1783004  0.350720E-06  0.275E-02    3.15       1.6  T
   3    -11.1782975  0.291167E-05  0.239E-02    3.15       1.9  T
   4    -11.1783014 -0.393722E-05  0.388E-03    3.15      11.5  T
   5    -11.1783015 -0.887835E-07  0.135E-03    3.15      33.1  T
   6    -11.1783015 -0.317015E-08  0.572E-04    3.15      78.2  T
   7    -11.1783015 -0.612985E-09  0.118E-04    3.15     378.8  T
     SCC iter.                  ...        0 min,  0.001 sec
     gradient                   ...        0 min,  0.001 sec
 * total energy  :   -11.0626928 Eh     change       -0.3990533E-05 Eh
   gradient norm :     0.0006403 Eh/α   predicted    -0.3031293E-05 ( -24.04%)
   displ. norm   :     0.0025691 α      lambda       -0.5869647E-06
   maximum displ.:     0.0017482 α      in ANC's #5, #4, #2, ...

   *** GEOMETRY OPTIMIZATION CONVERGED AFTER 10 ITERATIONS ***

------------------------------------------------------------------------
 total energy gain   :        -0.0792529 Eh      -49.7319 kcal/mol
 total RMSD          :         0.4087311 a0        0.2163 Å
 total power (kW/mol):       -20.8078461 (step)-5506.9335 (real)
------------------------------------------------------------------------

 ANCopt (total)                0 d,  0 h,  0 min,  0.038 sec
 optimizer setup                ...        0 min,  0.000 sec (  0.150%)
 model hessian                  ...        0 min,  0.000 sec (  0.244%)
 ANC generation                 ...        0 min,  0.000 sec (  0.122%)
 coordinate transformation      ...        0 min,  0.000 sec (  0.053%)
 single point calculation       ...        0 min,  0.037 sec ( 97.260%)
 optimization log               ...        0 min,  0.000 sec (  0.685%)
 hessian update                 ...        0 min,  0.000 sec (  0.064%)
 rational function              ...        0 min,  0.000 sec (  0.689%)

================
 final structure:
================
5
 xtb: 6.2.2 (9d81278992624c895f80dd42a50cac0aa55982e2)
N         0.02318091059047   -1.00649390131870    0.05376095030350
C        -0.50265497352862   -0.07461749785579   -0.86433215780164
C        -0.02534528264928    1.05658830724318   -0.05643341007719
C        -0.49787831863641    0.01813605776947    0.87010843148376
C         1.00269766422384    0.00638803416184   -0.00310281390843

 Bond Distances (Angstroems)
 ---------------------------
N1-C2=1.4099         N1-C4=1.4099         N1-C5=1.4102         C2-N1=1.4099         C2-C3=1.4697         C2-C4=1.7369         
C2-C5=1.7362         C3-C2=1.4697         C3-C4=1.4697         C3-C5=1.4706         C4-N1=1.4099         C4-C2=1.7369         
C4-C3=1.4697         C4-C5=1.7362         C5-N1=1.4102         C5-C2=1.7362         C5-C3=1.4706         C5-C4=1.7362         
 C  C  Rav=1.6032 sigma=0.1332  Rmin=1.4697  Rmax=1.7369     6
 N  C  Rav=1.4100 sigma=0.0001  Rmin=1.4099  Rmax=1.4102     3

 selected bond angles (degree)
 --------------------
C4-N1-C2= 76.05                C5-N1-C2= 76.00                C5-N1-C4= 76.00                C3-C2-N1= 91.70                
C4-C2-N1= 51.98                C4-C2-C3= 53.78                C5-C2-N1= 52.01                C5-C2-C3= 53.83                
C5-C2-C4= 59.99                C4-C3-C2= 72.44                C5-C3-C2= 72.38                C5-C3-C4= 72.38                
C2-C4-N1= 51.98                C3-C4-N1= 91.70                C3-C4-C2= 53.78                C5-C4-N1= 52.01                
C5-C4-C2= 59.99                C5-C4-C3= 53.83                C2-C5-N1= 51.99                C3-C5-N1= 91.65                
C3-C5-C2= 53.79                C4-C5-N1= 51.99                C4-C5-C2= 60.03                C4-C5-C3= 53.79                

 selected dihedral angles (degree)
 ---------------------------------
C3-C2-N1-C4= 39.32            C3-C2-N1-C5=320.56            C4-C2-N1-C5=281.24            C5-C2-N1-C4= 78.76            
C4-C3-C2-N1=321.78            C4-C3-C2-C5=283.45            C5-C3-C2-N1= 38.32            C5-C3-C2-C4= 76.55            
C2-C4-N1-C5= 78.76            C3-C4-N1-C2=320.68            C3-C4-N1-C5= 39.44            C5-C4-N1-C2=281.24            
N1-C4-C2-C3=231.73            N1-C4-C2-C5=296.79            C3-C4-C2-N1=128.27            C3-C4-C2-C5= 65.06            
C5-C4-C2-N1= 63.21            C5-C4-C2-C3=294.94            N1-C4-C3-C2= 38.22            N1-C4-C3-C5=321.68            
C2-C4-C3-C5=283.45            C5-C4-C3-C2= 76.55            C2-C5-N1-C4=281.18            C3-C5-N1-C2= 39.41            
C3-C5-N1-C4=320.59            C4-C5-N1-C2= 78.82            N1-C5-C2-C3=128.14            N1-C5-C2-C4= 63.16            
C3-C5-C2-N1=231.86            C3-C5-C2-C4=295.02            C4-C5-C2-N1=296.84            C4-C5-C2-C3= 64.98            
N1-C5-C3-C2=321.69            N1-C5-C3-C4= 38.31            C2-C5-C3-C4= 76.63            C4-C5-C3-C2=283.37            
N1-C5-C4-C2=296.84            N1-C5-C4-C3=231.86            C2-C5-C4-N1= 63.16            C2-C5-C4-C3=295.02            
C3-C5-C4-N1=128.14            C3-C5-C4-C2= 64.98            
           -------------------------------------------------
          |                Final Singlepoint                |
           -------------------------------------------------

          ...................................................
          :                      SETUP                      :
          :.................................................:
          :  # basis functions                  20          :
          :  # atomic orbitals                  20          :
          :  # shells                           10          :
          :  # electrons                        21          :
          :  max. iterations                   250          :
          :  Hamiltonian                  GFN2-xTB          :
          :  restarted?                      false          :
          :  GBSA solvation                  false          :
          :  PC potential                    false          :
          :  electronic temp.          300.0000000     K    :
          :  accuracy                    1.0000000          :
          :  -> integral cutoff          0.2500000E+02      :
          :  -> integral neglect         0.1000000E-07      :
          :  -> SCF convergence          0.1000000E-05 Eh   :
          :  -> wf. convergence          0.1000000E-03 e    :
          :  Broyden damping             0.4000000          :
          ...................................................

 iter      E             dE          RMSdq      gap      omega  full diag
   1    -11.1783015 -0.111783E+02  0.192E-05    3.15       0.0  T
   2    -11.1783015  0.131450E-12  0.127E-05    3.15    3524.9  T
   3    -11.1783015  0.223821E-12  0.110E-05    3.15    4062.8  T

   *** convergence criteria satisfied after 3 iterations ***

         #    Occupation            Energy/Eh            Energy/eV
      -------------------------------------------------------------
         1        2.0000           -0.7941576             -21.6101
       ...           ...                  ...                  ...
         5        2.0000           -0.5600164             -15.2388
         6        2.0000           -0.5598198             -15.2335
         7        2.0000           -0.5314289             -14.4609
         8        2.0000           -0.4787135             -13.0265
         9        2.0000           -0.4699317             -12.7875
        10        2.0000           -0.4698929             -12.7864
        11        1.0000           -0.4286887             -11.6652 (HOMO)
        12                         -0.3129070              -8.5146 (LUMO)
        13                         -0.3125099              -8.5038
        14                         -0.2478688              -6.7449
        15                         -0.0020062              -0.0546
        16                         -0.0011529              -0.0314
       ...                                ...                  ...
        20                          0.3667595               9.9800
      -------------------------------------------------------------
                  HL-Gap            0.1157816 Eh            3.1506 eV
             Fermi-level           -0.4098902 Eh          -11.1537 eV

 SCC (total)                   0 d,  0 h,  0 min,  0.003 sec
 SCC setup                      ...        0 min,  0.000 sec (  2.097%)
 Dispersion                     ...        0 min,  0.000 sec (  0.254%)
 integral evaluation            ...        0 min,  0.001 sec ( 40.415%)
 zeroth order Hamiltonian       ...        0 min,  0.000 sec (  0.486%)
 iterations                     ...        0 min,  0.000 sec ( 10.314%)
 molecular gradient             ...        0 min,  0.001 sec ( 44.747%)
 printout                       ...        0 min,  0.000 sec (  1.387%)

         :::::::::::::::::::::::::::::::::::::::::::::::::::::
         ::                     SUMMARY                     ::
         :::::::::::::::::::::::::::::::::::::::::::::::::::::
         :: total energy             -11.062692769381 Eh    ::
         :: gradient norm              0.000643698320 Eh/a0 ::
         :: HOMO-LUMO gap              3.150578284361 eV    ::
         ::.................................................::
         :: SCC energy               -11.178301482304 Eh    ::
         :: -> isotropic ES           -0.010291864792 Eh    ::
         :: -> anisotropic ES          0.007124647731 Eh    ::
         :: -> anisotropic XC          0.001644988981 Eh    ::
         :: -> dispersion             -0.002327273106 Eh    ::
         :: repulsion energy           0.115608699040 Eh    ::
         :: add. restraining           0.000000000000 Eh    ::
         :::::::::::::::::::::::::::::::::::::::::::::::::::::

           ------------------------------------------------- 
          |                Numerical Hessian                |
           ------------------------------------------------- 
step length          :   0.00500
SCC accuracy         :   0.30000
Hessian scale factor :   1.00000
frozen atoms in %    :   0.00000    0
RMS gradient         :   0.00064
estimated CPU  time      0.00 min
estimated wall time      0.00 min

writing file <hessian>.

 projected vibrational frequencies (cm-1)
eigval :       -0.00    -0.00    -0.00     0.00     0.00     0.00
eigval :      404.97   405.34   821.49   848.24   849.70  1038.85
eigval :     1040.15  1278.11  1393.87
           -------------------------------------------------
          |                Property Printout                |
           -------------------------------------------------

    * Orbital Energies and Occupations

         #    Occupation            Energy/Eh            Energy/eV
      -------------------------------------------------------------
         1        2.0000           -0.7941576             -21.6101
         2        2.0000           -0.6760945             -18.3975
         3        2.0000           -0.6646320             -18.0856
         4        2.0000           -0.6645713             -18.0839
         5        2.0000           -0.5600163             -15.2388
         6        2.0000           -0.5598199             -15.2335
         7        2.0000           -0.5314289             -14.4609
         8        2.0000           -0.4787134             -13.0265
         9        2.0000           -0.4699317             -12.7875
        10        2.0000           -0.4698928             -12.7864
        11        1.0000           -0.4286887             -11.6652 (HOMO)
        12                         -0.3129071              -8.5146 (LUMO)
        13                         -0.3125099              -8.5038
        14                         -0.2478688              -6.7449
        15                         -0.0020062              -0.0546
        16                         -0.0011528              -0.0314
        17                          0.0669568               1.8220
        18                          0.0670212               1.8237
        19                          0.0919523               2.5021
        20                          0.3667595               9.9800
      -------------------------------------------------------------
                  HL-Gap            0.1157816 Eh            3.1506 eV
             Fermi-level           -0.4098902 Eh          -11.1537 eV

     #   Z        covCN         q      C6AA      α(0)
     1   7 N      2.961     0.014    21.007     6.807
     2   6 C      3.690    -0.022    21.155     6.582
     3   6 C      3.169     0.052    26.474     8.406
     4   6 C      3.690    -0.022    21.155     6.582
     5   6 C      3.690    -0.022    21.161     6.583

 Mol. C6AA /au·bohr⁶  :        552.628913
 Mol. C8AA /au·bohr⁸  :      15203.795879
 Mol. α(0) /au        :         34.961594


Wiberg/Mayer (AO) data.
largest (>0.10) Wiberg bond orders for each atom
          total WBO             WBO to atom ...
     1  N   3.056        C    2 0.969    C    4 0.969    C    5 0.969    C    3 0.149
     2  C   3.005        N    1 0.969    C    3 0.942    C    5 0.547    C    4 0.547
     3  C   2.973        C    4 0.942    C    2 0.942    C    5 0.940    N    1 0.149
     4  C   3.005        N    1 0.969    C    3 0.942    C    5 0.547    C    2 0.547
     5  C   3.003        N    1 0.969    C    3 0.940    C    4 0.547    C    2 0.547

MOs/occ written to file <molden.input>


molecular dipole:
                 x           y           z       tot (Debye)
 q only:       -0.003       0.080      -0.004
   full:       -0.002       0.024      -0.001       0.061
molecular quadrupole (traceless):
                xx          xy          yy          xz          yz          zz
 q only:       -0.190      -0.013       0.376       0.001      -0.030      -0.186
  q+dip:       -1.007      -0.071       1.998       0.004      -0.160      -0.992
   full:       -0.562      -0.040       1.111       0.002      -0.089      -0.549
Molecule has the following symmetry elements: (C3) 3*(sigma) 
It seems to be the C3v point group

           -------------------------------------------------
          |                Geometry Summary                 |
           -------------------------------------------------

      molecular mass/u    :       62.0496468
   center of mass at/Å    :        0.0007455      -0.0323760       0.0017296
  moments of inertia/u·Å² :        0.3621493E+02   0.4573382E+02   0.4575420E+02
rotational constants/cm⁻¹ :        0.4654884E+00   0.3686032E+00   0.3684390E+00

 * 6 selected distances

     #   Z        #   Z                                     value/Å
     1   7 N      2   6 C                                 1.4098908 (min)
     2   6 C      3   6 C                                 1.4697454
     1   7 N      4   6 C                                 1.4098909
     3   6 C      4   6 C                                 1.4697450
     1   7 N      5   6 C                                 1.4101831
     3   6 C      5   6 C                                 1.4705907 (max)

 * 2 distinct bonds (by element types)

   Z      Z             #   av. dist./Å        max./Å        min./Å
   6 C    6 C           3     1.4700270     1.4705907     1.4697450
   6 C    7 N           3     1.4099883     1.4101831     1.4098908

           -------------------------------------------------
          |               Frequency Printout                |
           -------------------------------------------------
 projected vibrational frequencies (cm-1)
eigval :       -0.00    -0.00    -0.00     0.00     0.00     0.00
eigval :      404.97   405.34   821.49   848.24   849.70  1038.85
eigval :     1040.15  1278.11  1393.87
 reduced masses (amu)
   1: 12.16   2: 12.42   3: 12.64   4: 12.27   5: 12.80   6: 12.29   7: 12.37   8: 12.37
   9: 12.38  10: 12.48  11: 12.48  12: 12.15  13: 12.15  14: 12.65  15: 12.54
 IR intensities (amu)
   1:  0.03   2:  0.02   3:  0.07   4:  0.02   5:  0.02   6:  0.03   7:  0.87   8:  0.87
   9:  0.14  10:  0.16  11:  0.16  12:  1.04  13:  1.04  14:  0.93  15:  0.22
 Raman intensities (amu)
   1:  0.00   2:  0.00   3:  0.00   4:  0.00   5:  0.00   6:  0.00   7:  0.00   8:  0.00
   9:  0.00  10:  0.00  11:  0.00  12:  0.00  13:  0.00  14:  0.00  15:  0.00
 output can be read by thermo (or use thermo option).
 writing <g98.out> molden fake output.
 recommended (thermochemical) frequency scaling factor: 1.0
           -------------------------------------------------
          |             Thermodynamic Functions             |
           -------------------------------------------------

c3v symmetry found (for desy threshold:  0.10E+00) used in thermo

          ...................................................
          :                      SETUP                      :
          :.................................................:
          :  # frequencies                           9      :
          :  # imaginary freq.                       0      :
          :  linear?                             false      :
          :  only rotor calc.                    false      :
          :  symmetry                              c3v      :
          :  rotational number                       3      :
          :  scaling factor                  1.0000000      :
          :  rotor cutoff                   50.0000000 cm⁻¹ :
          :  imag. cutoff                  -20.0000000 cm⁻¹ :
          :.................................................:

    mode    ω/cm⁻¹     T·S(HO)/kcal·mol⁻¹    T·S(FR)/kcal·mol⁻¹   T·S(vib)
   ------------------------------------------------------------------------
   ------------------------------------------------------------------------

   temp. (K)  partition function   enthalpy   heat capacity  entropy
                                   cal/mol     cal/K/mol   cal/K/mol   J/K/mol
 298.15  VIB   1.45                  561.656      5.620      2.628
         ROT  0.701E+04              888.752      2.981     20.578
         INT  0.102E+05             1450.409      8.601     23.207
         TR   0.473E+27             1481.254      4.968     38.278
         TOT                        2931.6626    13.5690    61.4846   257.2517

   temp. (K)  partition function   enthalpy   heat capacity  entropy
                                   cal/mol     cal/K/mol   cal/K/mol   J/K/mol
 120.00  VIB   1.02                   18.471      0.768      0.185
         ROT  0.179E+04              357.707      2.981     17.865
         INT  0.182E+04              376.177      3.749     18.051
         TR   0.121E+27              596.178      4.968     33.759
         TOT                         972.3554     8.7174    51.8094   216.7706

   temp. (K)  partition function   enthalpy   heat capacity  entropy
                                   cal/mol     cal/K/mol   cal/K/mol   J/K/mol
 100.00  VIB   1.01                    6.875      0.405      0.081
         ROT  0.136E+04              298.089      2.981     17.322
         INT  0.137E+04              304.964      3.386     17.402
         TR   0.919E+26              496.815      4.968     32.853
         TOT                         801.7793     8.3537    50.2558   210.2703

   temp. (K)  partition function   enthalpy   heat capacity  entropy
                                   cal/mol     cal/K/mol   cal/K/mol   J/K/mol
  80.00  VIB   1.00                    1.589      0.145      0.023
         ROT   974.                  238.471      2.981     16.657
         INT   976.                  240.061      3.126     16.679
         TR   0.657E+26              397.452      4.968     31.745
         TOT                         637.5126     8.0941    48.4246   202.6084

   temp. (K)  partition function   enthalpy   heat capacity  entropy
                                   cal/mol     cal/K/mol   cal/K/mol   J/K/mol
  60.00  VIB   1.00                    0.140      0.023      0.002
         ROT   633.                  178.853      2.981     15.799
         INT   633.                  178.993      3.004     15.802
         TR   0.427E+26              298.089      4.968     30.317
         TOT                         477.0822     7.9717    46.1183   192.9590

   temp. (K)  partition function   enthalpy   heat capacity  entropy
                                   cal/mol     cal/K/mol   cal/K/mol   J/K/mol
  40.00  VIB   1.00                    0.001      0.000     -0.000
         ROT   344.                  119.236      2.981     14.590
         INT   344.                  119.237      2.981     14.590
         TR   0.232E+26              198.726      4.968     28.303
         TOT                         317.9627     7.9494    42.8935   179.4663

   temp. (K)  partition function   enthalpy   heat capacity  entropy
                                   cal/mol     cal/K/mol   cal/K/mol   J/K/mol
  20.00  VIB   1.00                    0.000      0.000     -0.001
         ROT   122.                   59.618      2.981     12.524
         INT   122.                   59.618      2.981     12.524
         TR   0.822E+25               99.363      4.968     24.861
         TOT                         158.9808     7.9490    37.3849   156.4185

   temp. (K)  partition function   enthalpy   heat capacity  entropy
                                   cal/mol     cal/K/mol   cal/K/mol   J/K/mol
  10.00  VIB   1.00                    0.000      0.000     -0.001
         ROT   43.1                   29.809      2.981     10.458
         INT   43.1                   29.809      2.981     10.457
         TR   0.290E+25               49.681      4.968     21.419
         TOT                          79.4904     7.9490    31.8764   133.3708

       T/K    H(0)-H(T)+PV         H(T)/Eh          T*S/Eh         G(T)/Eh
   ------------------------------------------------------------------------
    298.15    0.467190E-02    0.230811E-01    0.292133E-01   -0.613220E-02
    120.00    0.154955E-02    0.199588E-01    0.990763E-02    0.100512E-01
    100.00    0.127772E-02    0.196869E-01    0.800877E-02    0.116782E-01
     80.00    0.101594E-02    0.194252E-01    0.617356E-02    0.132516E-01
     60.00    0.760279E-03    0.191695E-01    0.440965E-02    0.147599E-01
     40.00    0.506706E-03    0.189159E-01    0.273420E-02    0.161817E-01
     20.00    0.253352E-03    0.186626E-01    0.119153E-02    0.174710E-01
     10.00    0.126676E-03    0.185359E-01    0.507983E-03    0.180279E-01 (used)
   ------------------------------------------------------------------------

         :::::::::::::::::::::::::::::::::::::::::::::::::::::
         ::                  THERMODYNAMIC                  ::
         :::::::::::::::::::::::::::::::::::::::::::::::::::::
         :: total free energy         -11.044664846203 Eh   ::
         ::.................................................::
         :: total energy              -11.062692769379 Eh   ::
         :: zero point energy           0.018409229819 Eh   ::
         :: G(RRHO) w/o ZPVE           -0.000381306643 Eh   ::
         :: G(RRHO) contrib.            0.018027923176 Eh   ::
         :::::::::::::::::::::::::::::::::::::::::::::::::::::

optimized geometry written to: xtbopt.xyz


           -------------------------------------------------
          | TOTAL ENERGY              -11.062692769379 Eh   |
          | TOTAL ENTHALPY            -11.044156863544 Eh   |
          | TOTAL FREE ENERGY         -11.044664846203 Eh   |
          | GRADIENT NORM               0.000643648623 Eh/α |
          | HOMO-LUMO GAP               3.150577802681 eV   |
           -------------------------------------------------

------------------------------------------------------------------------
 * finished run on 2020/05/12 at 11:44:19.702     
------------------------------------------------------------------------
 total:
 * wall-time:     0 d,  0 h,  0 min,  0.161 sec
 *  cpu-time:     0 d,  0 h,  0 min,  0.161 sec
 * ratio c/w:     0.999 speedup
 SCF:
 * wall-time:     0 d,  0 h,  0 min,  0.005 sec
 *  cpu-time:     0 d,  0 h,  0 min,  0.005 sec
 * ratio c/w:     0.998 speedup
 ANC optimizer:
 * wall-time:     0 d,  0 h,  0 min,  0.042 sec
 *  cpu-time:     0 d,  0 h,  0 min,  0.042 sec
 * ratio c/w:     0.999 speedup
 numerical hessian:
 * wall-time:     0 d,  0 h,  0 min,  0.100 sec
 *  cpu-time:     0 d,  0 h,  0 min,  0.100 sec
 * ratio c/w:     1.000 speedup

