$hessian                                                                        
       -0.2163349072  -0.0010535099   0.0000009535   0.1081372209   0.0007029981
       -0.0000002362   0.1082004671   0.0003274291  -0.0000002359
       -0.0010535099   0.0501280860   0.0000000038   0.0005416011  -0.0250526888
       -0.0000000008   0.0005119424  -0.0250748839  -0.0000000011
        0.0000009535   0.0000000038   0.0501315571  -0.0000004766  -0.0000000025
       -0.0250553666  -0.0000004769  -0.0000000012  -0.0250760574
        0.1081372209   0.0005416011  -0.0000004766   0.0106334931  -0.0001088389
       -0.0000000561  -0.1187721468  -0.0004212003   0.0000002921
        0.0007029981  -0.0250526888  -0.0000000025  -0.0001088389   0.0125252768
       -0.0000000001  -0.0005956654   0.0125270752   0.0000000014
       -0.0000002362  -0.0000000008  -0.0250553666  -0.0000000561  -0.0000000001
        0.0125262246   0.0000002923   0.0000000009   0.0125289712
        0.1082004671   0.0005119424  -0.0000004769  -0.1187721468  -0.0005956654
        0.0000002923   0.0105703319   0.0000952438  -0.0000000562
        0.0003274291  -0.0250748839  -0.0000000012  -0.0004212003   0.0125270752
        0.0000000009   0.0000952438   0.0125476322  -0.0000000003
       -0.0000002359  -0.0000000011  -0.0250760574   0.0000002921   0.0000000014
        0.0125289712  -0.0000000562  -0.0000000003   0.0125471239
