      -----------------------------------------------------------      
     |                   =====================                   |     
     |                           x T B                           |     
     |                   =====================                   |     
     |                         S. Grimme                         |     
     |          Mulliken Center for Theoretical Chemistry        |     
     |                    University of Bonn                     |     
      -----------------------------------------------------------      

   * xtb version 6.2.2 (9d81278992624c895f80dd42a50cac0aa55982e2) compiled by '@Darwin' on 04/03/2020

   xtb is free software: you can redistribute it and/or modify it under
   the terms of the GNU Lesser General Public License as published by
   the Free Software Foundation, either version 3 of the License, or
   (at your option) any later version.
   
   xtb is distributed in the hope that it will be useful,
   but WITHOUT ANY WARRANTY; without even the implied warranty of
   MERCHANTABILITY or FITNESS FOR A PARTICULAR PURPOSE.  See the
   GNU Lesser General Public License for more details.
   
   Cite this work as:
   * S. Grimme, C. Bannwarth, P. Shushkov, J. Chem. Theory Comput., 2017,
     13, 1989-2009. DOI: 10.1021/acs.jctc.7b00118
   * C. Bannwarth, S. Ehlert and S. Grimme., J. Chem. Theory Comput., 2019,
     15, 1652-1671. DOI: 10.1021/acs.jctc.8b01176
   * P. Pracht, E. Caldeweyher, S. Ehlert, S. Grimme, ChemRxiv, 2019, preprint.
     DOI: 10.26434/chemrxiv.8326202.v1
   
   for DFT-D4:
   * E. Caldeweyher, C. Bannwarth and S. Grimme, J. Chem. Phys., 2017,
     147, 034112. DOI: 10.1063/1.4993215
   * E. Caldeweyher, S. Ehlert, A. Hansen, H. Neugebauer, S. Spicher,
     C. Bannwarth and S. Grimme, J. Chem. Phys., 2019, 150, 154122.
     DOI: 10.1063/1.5090222
   
   for sTDA-xTB:
   * S. Grimme and C. Bannwarth, J. Chem. Phys., 2016, 145, 054103.
     DOI: 10.1063/1.4959605
   
   in the mass-spec context:
   * V. Asgeirsson, C. Bauer and S. Grimme, Chem. Sci., 2017, 8, 4879.
     DOI: 10.1039/c7sc00601b
   
   for metadynamics refer to:
   * S. Grimme, J. Chem. Theory Comput., 2019, 155, 2847-2862
     DOI: 10.1021/acs.jctc.9b00143
   
   with help from (in alphabetical order)
   C. Bannwarth, F. Bohle, G. Brandenburg, E. Caldeweyher, M. Checinski,
   S. Dohm, S. Ehlert, S. Ehrlich, F. März, H. Neugebauer, J. Pisarek,
   P. Pracht, P. Shushkov, and S. Spicher.
   
 * started run on 2020/05/12 at 11:44:40.637     

           -------------------------------------------------
          |                Calculation Setup                |
           -------------------------------------------------

          program call               : xtb --input H2N1_0_S_3.input H2N1_0_S_3.xyz --ohess --molden --namespace H2N1_0_S_3 output.out
          calculation namespace      : H2N1_0_S_3
          coordinate file            : H2N1_0_S_3.xyz
          number of atoms            :                     3
          number of electrons        :                     7
          charge                     :                     0
          spin                       :                   1.5
          first test random number   :      0.65438613739844

   ID    Z sym.   atoms
    1    7 N      1
    2    1 H      2, 3

           -------------------------------------------------
          |                 G F N 2 - x T B                 |
           -------------------------------------------------

        Reference                      10.1021/acs.jctc.8b01176
      * Hamiltonian:
        H0-scaling (s, p, d)           1.850000    2.230000    2.230000
        zeta-weighting                 0.500000
      * Dispersion:
        s8                             2.700000
        a1                             0.520000
        a2                             5.000000
        s9                             5.000000
      * Repulsion:
        kExp                           1.500000    1.000000
        rExp                           1.000000
      * Coulomb:
        alpha                          2.000000
        third order                    shell-resolved
        anisotropic                    true
        a3                             3.000000
        a5                             4.000000
        cn-shift                       1.200000
        cn-exp                         4.000000
        max-rad                        5.000000


          ...................................................
          :                      SETUP                      :
          :.................................................:
          :  # basis functions                   6          :
          :  # atomic orbitals                   6          :
          :  # shells                            4          :
          :  # electrons                         7          :
          :  max. iterations                   250          :
          :  Hamiltonian                  GFN2-xTB          :
          :  restarted?                      false          :
          :  GBSA solvation                  false          :
          :  PC potential                    false          :
          :  electronic temp.          300.0000000     K    :
          :  accuracy                    1.0000000          :
          :  -> integral cutoff          0.2500000E+02      :
          :  -> integral neglect         0.1000000E-07      :
          :  -> SCF convergence          0.1000000E-05 Eh   :
          :  -> wf. convergence          0.1000000E-03 e    :
          :  Broyden damping             0.4000000          :
          ...................................................

 iter      E             dE          RMSdq      gap      omega  full diag
   1     -3.3058533 -0.330585E+01  0.664E+00    2.75       0.0  T
   2     -3.3325228 -0.266694E-01  0.308E+00    2.60       1.0  T
   3     -3.3358453 -0.332257E-02  0.113E+00    2.54       1.0  T
   4     -3.3358617 -0.163491E-04  0.113E-01    2.58       1.0  T
   5     -3.3358637 -0.201495E-05  0.338E-02    2.58       1.7  T
   6     -3.3358638 -0.101309E-06  0.635E-03    2.58       9.1  T
   7     -3.3358638 -0.531629E-08  0.268E-03    2.58      21.5  T
   8     -3.3358638 -0.728048E-09  0.106E-05    2.58    5447.6  T
   9     -3.3358638 -0.133227E-14  0.103E-05    2.58    5615.8  T

   *** convergence criteria satisfied after 9 iterations ***

         #    Occupation            Energy/Eh            Energy/eV
      -------------------------------------------------------------
         1        2.0000           -0.6498854             -17.6843
         2        2.0000           -0.5503430             -14.9756
         3        1.0000           -0.5201023             -14.1527
         4        1.0000           -0.4800662             -13.0633
         5        1.0000            0.0178897               0.4868 (HOMO)
         6                          0.1126281               3.0648 (LUMO)
      -------------------------------------------------------------
                  HL-Gap            0.0947383 Eh            2.5780 eV
             Fermi-level           -0.2349819 Eh           -6.3942 eV

 SCC (total)                   0 d,  0 h,  0 min,  0.001 sec
 SCC setup                      ...        0 min,  0.000 sec (  7.524%)
 Dispersion                     ...        0 min,  0.000 sec (  0.766%)
 integral evaluation            ...        0 min,  0.000 sec ( 16.051%)
 zeroth order Hamiltonian       ...        0 min,  0.000 sec (  0.924%)
 iterations                     ...        0 min,  0.001 sec ( 56.468%)
 molecular gradient             ...        0 min,  0.000 sec ( 13.173%)
 printout                       ...        0 min,  0.000 sec (  4.118%)

         :::::::::::::::::::::::::::::::::::::::::::::::::::::
         ::                     SUMMARY                     ::
         :::::::::::::::::::::::::::::::::::::::::::::::::::::
         :: total energy              -3.307673847307 Eh    ::
         :: gradient norm              0.553902850670 Eh/a0 ::
         :: HOMO-LUMO gap              2.577960710173 eV    ::
         ::.................................................::
         :: SCC energy                -3.335863812704 Eh    ::
         :: -> isotropic ES            0.000121017488 Eh    ::
         :: -> anisotropic ES         -0.001611795095 Eh    ::
         :: -> anisotropic XC          0.005485464435 Eh    ::
         :: -> dispersion             -0.000277164680 Eh    ::
         :: repulsion energy           0.028189965380 Eh    ::
         :: add. restraining           0.000000000000 Eh    ::
         :::::::::::::::::::::::::::::::::::::::::::::::::::::

      ----------------------------------------------------------- 
     |                   =====================                   |
     |                        A N C O P T                        |
     |                   =====================                   |
     |               Approximate Normal Coordinate               |
     |                Rational Function Optimizer                |
      ----------------------------------------------------------- 

          ...................................................
          :                      SETUP                      :
          :.................................................:
          :   optimization level            normal          :
          :   max. optcycles                   200          :
          :   ANC micro-cycles                  20          :
          :   degrees of freedom                 3          :
          :.................................................:
          :   RF solver                   davidson          :
          :   write xtbopt.log                true          :
          :   linear?                        false          :
          :   energy convergence         0.5000000E-05 Eh   :
          :   grad. convergence          0.1000000E-02 Eh/α :
          :   maximium RF displ.         1.0000000          :
          :   Hlow (freq-cutoff)         0.1000000E-01      :
          :   Hmax (freq-cutoff)         5.0000000          :
          :   S6 in model hess.         20.0000000          :
          ...................................................

generating ANC from model Hessian ...
Using Lindh-Hessian (1995)
 Shifting diagonal of input Hessian by    0.0000000000000000     
 Lowest  eigenvalues of input Hessian
   -0.000000   -0.000000    0.000000    0.000000    0.000000    0.000000
    0.165940    0.907187    1.121329
 Highest eigenvalues
    0.000000    0.000000    0.000000    0.165940    0.907187    1.121329


........................................................................
.............................. CYCLE    1 ..............................
........................................................................
   1     -3.3358638 -0.333586E+01  0.552E-08    2.58       0.0  T
   2     -3.3358638  0.399680E-14  0.274E-08    2.58  100000.0  T
   3     -3.3358638 -0.488498E-14  0.365E-09    2.58  100000.0  T
     SCC iter.                  ...        0 min,  0.000 sec
     gradient                   ...        0 min,  0.000 sec
 * total energy  :    -3.3076738 Eh     change        0.3386358E-10 Eh
   gradient norm :     0.5539028 Eh/α   predicted     0.0000000E+00 (-100.00%)
   displ. norm   :     0.6254289 α      lambda       -0.3151484E+00
   maximum displ.:     0.4689085 α      in ANC's #1, #2, #3, ...

........................................................................
.............................. CYCLE    2 ..............................
........................................................................
   1     -3.4833704 -0.348337E+01  0.204E+00    2.08       0.0  T
   2     -3.4850043 -0.163399E-02  0.103E+00    2.11       1.0  T
   3     -3.4851251 -0.120769E-03  0.358E-01    2.12       1.0  T
   4     -3.4851340 -0.887707E-05  0.430E-02    2.11       1.3  T
   5     -3.4851344 -0.438992E-06  0.958E-03    2.11       6.0  T
   6     -3.4851345 -0.788335E-07  0.739E-04    2.11      78.1  T
   7     -3.4851345 -0.416878E-09  0.191E-04    2.11     302.0  T
     SCC iter.                  ...        0 min,  0.000 sec
     gradient                   ...        0 min,  0.000 sec
 * total energy  :    -3.4816406 Eh     change       -0.1739667E+00 Eh
   gradient norm :     0.1274774 Eh/α   predicted    -0.2192111E+00 (  26.01%)
   displ. norm   :     0.3946519 α      lambda       -0.4301226E-01
   maximum displ.:     0.3914059 α      in ANC's #1, #2, #3, ...

........................................................................
.............................. CYCLE    3 ..............................
........................................................................
   1     -3.5198415 -0.351984E+01  0.536E-01    2.75       0.0  T
   2     -3.5198893 -0.478621E-04  0.294E-01    2.77       1.0  T
   3     -3.5198922 -0.286630E-05  0.619E-02    2.77       1.0  T
   4     -3.5198929 -0.701866E-06  0.557E-03    2.77      10.4  T
   5     -3.5198929 -0.746498E-08  0.361E-04    2.77     159.9  T
   6     -3.5198929 -0.619718E-10  0.720E-05    2.77     802.4  T
     SCC iter.                  ...        0 min,  0.000 sec
     gradient                   ...        0 min,  0.000 sec
 * total energy  :    -3.5180557 Eh     change       -0.3641511E-01 Eh
   gradient norm :     0.0729572 Eh/α   predicted    -0.2485571E-01 ( -31.74%)
   displ. norm   :     0.6508003 α      lambda       -0.4703675E-01
   maximum displ.:     0.6506906 α      in ANC's #1, #2, #3, ...

........................................................................
.............................. CYCLE    4 ..............................
........................................................................
   1     -3.5473045 -0.354730E+01  0.709E-01    3.21       0.0  T
   2     -3.5474043 -0.997939E-04  0.392E-01    3.23       1.0  T
   3     -3.5474106 -0.638347E-05  0.981E-02    3.24       1.0  T
   4     -3.5474118 -0.119767E-05  0.832E-03    3.23       6.9  T
   5     -3.5474119 -0.194269E-07  0.108E-03    3.23      53.6  T
   6     -3.5474119 -0.929012E-10  0.433E-04    3.23     133.3  T
   7     -3.5474119 -0.196421E-10  0.653E-06    3.23    8840.1  T
     SCC iter.                  ...        0 min,  0.000 sec
     gradient                   ...        0 min,  0.000 sec
 * total energy  :    -3.5468154 Eh     change       -0.2875975E-01 Eh
   gradient norm :     0.0380214 Eh/α   predicted    -0.3347941E-01 (  16.41%)
   displ. norm   :     0.1896329 α      lambda       -0.4094266E-02
   maximum displ.:     0.1845045 α      in ANC's #1, #2, #3, ...

........................................................................
.............................. CYCLE    5 ..............................
........................................................................
   1     -3.5499649 -0.354996E+01  0.154E-01    3.26       0.0  T
   2     -3.5499694 -0.442037E-05  0.860E-02    3.26       1.0  T
   3     -3.5499696 -0.202131E-06  0.222E-02    3.26       2.6  T
   4     -3.5499696 -0.536757E-07  0.113E-03    3.26      51.2  T
   5     -3.5499696 -0.148535E-09  0.211E-04    3.26     273.4  T
   6     -3.5499696 -0.119771E-11  0.683E-05    3.26     845.5  T
     SCC iter.                  ...        0 min,  0.000 sec
     gradient                   ...        0 min,  0.000 sec
 * total energy  :    -3.5495272 Eh     change       -0.2711836E-02 Eh
   gradient norm :     0.0360377 Eh/α   predicted    -0.2120750E-02 ( -21.80%)
   displ. norm   :     0.1076767 α      lambda       -0.2134041E-02
   maximum displ.:     0.0876633 α      in ANC's #1, #2, #3, ...

........................................................................
.............................. CYCLE    6 ..............................
........................................................................
   1     -3.5516988 -0.355170E+01  0.522E-02    3.34       0.0  T
   2     -3.5516989 -0.271052E-07  0.312E-02    3.34       1.8  T
   3     -3.5516989 -0.220136E-08  0.143E-03    3.34      40.5  T
   4     -3.5516989 -0.106981E-08  0.289E-04    3.34     199.8  T
   5     -3.5516989 -0.226885E-10  0.265E-05    3.34    2180.4  T
     SCC iter.                  ...        0 min,  0.000 sec
     gradient                   ...        0 min,  0.000 sec
 * total energy  :    -3.5512776 Eh     change       -0.1750389E-02 Eh
   gradient norm :     0.0338782 Eh/α   predicted    -0.1079390E-02 ( -38.33%)
   displ. norm   :     0.2087705 α      lambda       -0.5098790E-02
   maximum displ.:     0.1803445 α      in ANC's #2, #1, #3, ...

........................................................................
.............................. CYCLE    7 ..............................
........................................................................
   1     -3.5554577 -0.355546E+01  0.141E-01    3.60       0.0  T
   2     -3.5554600 -0.225260E-05  0.769E-02    3.60       1.0  T
   3     -3.5554601 -0.156951E-06  0.153E-02    3.60       3.8  T
   4     -3.5554602 -0.361424E-07  0.148E-03    3.60      39.1  T
   5     -3.5554602 -0.910547E-10  0.121E-04    3.60     478.4  T
   6     -3.5554602 -0.409983E-11  0.336E-05    3.60    1716.5  T
     SCC iter.                  ...        0 min,  0.000 sec
     gradient                   ...        0 min,  0.000 sec
 * total energy  :    -3.5549713 Eh     change       -0.3693668E-02 Eh
   gradient norm :     0.0266549 Eh/α   predicted    -0.2660510E-02 ( -27.97%)
   displ. norm   :     0.1914376 α      lambda       -0.4302454E-02
   maximum displ.:     0.1910535 α      in ANC's #2, #1, #3, ...

........................................................................
.............................. CYCLE    8 ..............................
........................................................................
   1     -3.5586433 -0.355864E+01  0.248E-01    3.98       0.0  T
   2     -3.5586538 -0.104523E-04  0.132E-01    3.98       1.0  T
   3     -3.5586547 -0.935368E-06  0.314E-02    3.98       1.8  T
   4     -3.5586548 -0.124861E-06  0.280E-03    3.98      20.6  T
   5     -3.5586548 -0.232255E-09  0.269E-04    3.98     214.7  T
   6     -3.5586548 -0.395071E-10  0.260E-05    3.98    2221.9  T
     SCC iter.                  ...        0 min,  0.000 sec
     gradient                   ...        0 min,  0.000 sec
 * total energy  :    -3.5579089 Eh     change       -0.2937626E-02 Eh
   gradient norm :     0.0150361 Eh/α   predicted    -0.2230064E-02 ( -24.09%)
   displ. norm   :     0.1271050 α      lambda       -0.1849527E-02
   maximum displ.:     0.0937595 α      in ANC's #1, #2, #3, ...

........................................................................
.............................. CYCLE    9 ..............................
........................................................................
   1     -3.5600420 -0.356004E+01  0.260E-01    4.39       0.0  T
   2     -3.5600537 -0.116997E-04  0.138E-01    4.39       1.0  T
   3     -3.5600550 -0.130500E-05  0.322E-02    4.39       1.8  T
   4     -3.5600551 -0.137517E-06  0.287E-03    4.39      20.1  T
   5     -3.5600551 -0.230377E-09  0.343E-04    4.39     168.4  T
   6     -3.5600551 -0.591283E-10  0.142E-05    4.39    4057.3  T
     SCC iter.                  ...        0 min,  0.000 sec
     gradient                   ...        0 min,  0.000 sec
 * total energy  :    -3.5588885 Eh     change       -0.9796049E-03 Eh
   gradient norm :     0.0028051 Eh/α   predicted    -0.9397030E-03 (  -4.07%)
   displ. norm   :     0.0303500 α      lambda       -0.8480290E-04
   maximum displ.:     0.0221244 α      in ANC's #2, #1, #3, ...

........................................................................
.............................. CYCLE   10 ..............................
........................................................................
   1     -3.5601348 -0.356013E+01  0.253E-02    4.42       0.0  T
   2     -3.5601348 -0.492177E-07  0.144E-02    4.42       4.0  T
   3     -3.5601348 -0.538497E-08  0.223E-03    4.42      25.9  T
   4     -3.5601348 -0.119828E-08  0.204E-04    4.42     282.8  T
   5     -3.5601348 -0.556133E-11  0.410E-05    4.42    1407.8  T
     SCC iter.                  ...        0 min,  0.000 sec
     gradient                   ...        0 min,  0.000 sec
 * total energy  :    -3.5589376 Eh     change       -0.4905858E-04 Eh
   gradient norm :     0.0004497 Eh/α   predicted    -0.4244046E-04 ( -13.49%)
   displ. norm   :     0.0090417 α      lambda       -0.2706082E-05
   maximum displ.:     0.0079111 α      in ANC's #2, #1, #3, ...

........................................................................
.............................. CYCLE   11 ..............................
........................................................................
   1     -3.5601349 -0.356013E+01  0.607E-03    4.42       0.0  T
   2     -3.5601349 -0.956535E-09  0.357E-03    4.42      16.2  T
   3     -3.5601349 -0.726610E-10  0.248E-04    4.42     232.7  T
   4     -3.5601349 -0.143761E-10  0.695E-05    4.42     831.3  T
     SCC iter.                  ...        0 min,  0.000 sec
     gradient                   ...        0 min,  0.000 sec
 * total energy  :    -3.5589386 Eh     change       -0.9799028E-06 Eh
   gradient norm :     0.0002385 Eh/α   predicted    -0.1351534E-05 (  37.93%)
   displ. norm   :     0.0030841 α      lambda       -0.4826372E-06
   maximum displ.:     0.0028024 α      in ANC's #2, #1, #3, ...

   *** GEOMETRY OPTIMIZATION CONVERGED AFTER 11 ITERATIONS ***

------------------------------------------------------------------------
 total energy gain   :        -0.2512647 Eh     -157.6710 kcal/mol
 total RMSD          :         1.0156626 a0        0.5375 Å
 total power (kW/mol):       -59.9723139 (step)********** (real)
------------------------------------------------------------------------

 ANCopt (total)                0 d,  0 h,  0 min,  0.005 sec
 optimizer setup                ...        0 min,  0.000 sec (  1.224%)
 model hessian                  ...        0 min,  0.000 sec (  0.805%)
 ANC generation                 ...        0 min,  0.000 sec (  0.654%)
 coordinate transformation      ...        0 min,  0.000 sec (  0.428%)
 single point calculation       ...        0 min,  0.004 sec ( 83.153%)
 optimization log               ...        0 min,  0.000 sec (  3.573%)
 hessian update                 ...        0 min,  0.000 sec (  0.367%)
 rational function              ...        0 min,  0.000 sec (  3.272%)

================
 final structure:
================
3
 xtb: 6.2.2 (9d81278992624c895f80dd42a50cac0aa55982e2)
N         0.00006750677246    0.00132983830374    0.00000000000000
H        -1.38983846002750   -0.00605923608899    0.00000000000000
H         1.38977095325504    0.00472939778525    0.00000000000000

 Bond Distances (Angstroems)
 ---------------------------


 selected bond angles (degree)
 --------------------


 selected dihedral angles (degree)
 ---------------------------------

           -------------------------------------------------
          |                Final Singlepoint                |
           -------------------------------------------------

          ...................................................
          :                      SETUP                      :
          :.................................................:
          :  # basis functions                   6          :
          :  # atomic orbitals                   6          :
          :  # shells                            4          :
          :  # electrons                         7          :
          :  max. iterations                   250          :
          :  Hamiltonian                  GFN2-xTB          :
          :  restarted?                      false          :
          :  GBSA solvation                  false          :
          :  PC potential                    false          :
          :  electronic temp.          300.0000000     K    :
          :  accuracy                    1.0000000          :
          :  -> integral cutoff          0.2500000E+02      :
          :  -> integral neglect         0.1000000E-07      :
          :  -> SCF convergence          0.1000000E-05 Eh   :
          :  -> wf. convergence          0.1000000E-03 e    :
          :  Broyden damping             0.4000000          :
          ...................................................

 iter      E             dE          RMSdq      gap      omega  full diag
   1     -3.5601349 -0.356013E+01  0.272E-05    4.42       0.0  T
   2     -3.5601349 -0.194067E-12  0.118E-05    4.42    4890.3  T
   3     -3.5601349 -0.448530E-13  0.395E-07    4.42  100000.0  T

   *** convergence criteria satisfied after 3 iterations ***

         #    Occupation            Energy/Eh            Energy/eV
      -------------------------------------------------------------
         1        2.0000           -0.5977615             -16.2659
         2        2.0000           -0.4992344             -13.5849
         3        1.0000           -0.4603444             -12.5266
         4        1.0000           -0.4603442             -12.5266
         5        1.0000           -0.3044372              -8.2842 (HOMO)
         6                         -0.1419201              -3.8618 (LUMO)
      -------------------------------------------------------------
                  HL-Gap            0.1625171 Eh            4.4223 eV
             Fermi-level           -0.3516486 Eh           -9.5688 eV

 SCC (total)                   0 d,  0 h,  0 min,  0.000 sec
 SCC setup                      ...        0 min,  0.000 sec (  9.059%)
 Dispersion                     ...        0 min,  0.000 sec (  0.760%)
 integral evaluation            ...        0 min,  0.000 sec ( 31.619%)
 zeroth order Hamiltonian       ...        0 min,  0.000 sec (  0.994%)
 iterations                     ...        0 min,  0.000 sec ( 28.229%)
 molecular gradient             ...        0 min,  0.000 sec ( 21.508%)
 printout                       ...        0 min,  0.000 sec (  6.371%)

         :::::::::::::::::::::::::::::::::::::::::::::::::::::
         ::                     SUMMARY                     ::
         :::::::::::::::::::::::::::::::::::::::::::::::::::::
         :: total energy              -3.558938575595 Eh    ::
         :: gradient norm              0.000239371301 Eh/a0 ::
         :: HOMO-LUMO gap              4.422316180250 eV    ::
         ::.................................................::
         :: SCC energy                -3.560134874153 Eh    ::
         :: -> isotropic ES            0.000802141566 Eh    ::
         :: -> anisotropic ES         -0.000590403186 Eh    ::
         :: -> anisotropic XC          0.014287582274 Eh    ::
         :: -> dispersion             -0.000391760531 Eh    ::
         :: repulsion energy           0.001196304740 Eh    ::
         :: add. restraining           0.000000000000 Eh    ::
         :::::::::::::::::::::::::::::::::::::::::::::::::::::

           ------------------------------------------------- 
          |                Numerical Hessian                |
           ------------------------------------------------- 
step length          :   0.00500
SCC accuracy         :   0.30000
Hessian scale factor :   1.00000
frozen atoms in %    :   0.00000    0
RMS gradient         :   0.00024
estimated CPU  time      0.00 min
estimated wall time      0.00 min

writing file <hessian>.

 vibrational frequencies (cm-1)
eigval :        0.00     0.00     0.00     0.00     0.00    14.30
eigval :      867.01   867.01  1841.68
           -------------------------------------------------
          |                Property Printout                |
           -------------------------------------------------

    * Orbital Energies and Occupations

         #    Occupation            Energy/Eh            Energy/eV
      -------------------------------------------------------------
         1        2.0000           -0.5977615             -16.2659
         2        2.0000           -0.4992344             -13.5849
         3        1.0000           -0.4603444             -12.5266
         4        1.0000           -0.4603442             -12.5266
         5        1.0000           -0.3044372              -8.2842 (HOMO)
         6                         -0.1419201              -3.8618 (LUMO)
      -------------------------------------------------------------
                  HL-Gap            0.1625171 Eh            4.4223 eV
             Fermi-level           -0.3516486 Eh           -9.5688 eV

     #   Z        covCN         q      C6AA      α(0)
     1   7 N      0.775    -0.059    23.049     7.011
Molecule has the following symmetry elements: (i) (Cinf) (C2) 2*(sigma) 
It seems to be the Dinfh point group
     2   1 H      0.387     0.030     5.311     4.114
     3   1 H      0.388     0.030     5.301     4.110

 Mol. C6AA /au·bohr⁶  :         87.363511
 Mol. C8AA /au·bohr⁸  :       1468.731296
 Mol. α(0) /au        :         15.234570


Wiberg/Mayer (AO) data.
largest (>0.10) Wiberg bond orders for each atom
          total WBO             WBO to atom ...
     1  N   1.070        H    3 0.535    H    2 0.535
     2  H   0.555        N    1 0.535
     3  H   0.555        N    1 0.535

MOs/occ written to file <molden.input>


molecular dipole:
                 x           y           z       tot (Debye)
 q only:        0.000      -0.000      -0.000
   full:        0.000      -0.000      -0.000       0.001
molecular quadrupole (traceless):
                xx          xy          yy          xz          yz          zz
 q only:        0.410       0.002      -0.205      -0.000      -0.000      -0.205
  q+dip:        1.334       0.008      -0.667      -0.000      -0.000      -0.667
   full:        0.674       0.004      -0.337      -0.000      -0.000      -0.337

           -------------------------------------------------
          |                Geometry Summary                 |
           -------------------------------------------------

      molecular mass/u    :       16.0225847
   center of mass at/Å    :        0.0000548       0.0010789      -0.0000000
  moments of inertia/u·Å² :        0.7009239E-05   0.3893849E+01   0.3893856E+01
rotational constants/cm⁻¹ :        0.2405059E+07   0.4329298E+01   0.4329290E+01

           -------------------------------------------------
          |               Frequency Printout                |
           -------------------------------------------------
 vibrational frequencies (cm-1)
eigval :        0.00     0.00     0.00     0.00     0.00    14.30
eigval :      867.01   867.01  1841.68
 reduced masses (amu)
   1:  2.64   2: 12.32   3: 12.37   4: 12.37   5:  1.01   6:  1.06   7:  2.64   8:  2.64
   9:  1.01
 IR intensities (amu)
   1:  2.32   2:  1.56   3:  0.06   4:  0.12   5:  0.00   6:  0.10   7:  0.09   8:  0.09
   9:  0.00
 Raman intensities (amu)
   1:  0.00   2:  0.00   3:  0.00   4:  0.00   5:  0.00   6:  0.00   7:  0.00   8:  0.00
   9:  0.00
 output can be read by thermo (or use thermo option).
 writing <g98.out> molden fake output.
 recommended (thermochemical) frequency scaling factor: 1.0
           -------------------------------------------------
          |             Thermodynamic Functions             |
           -------------------------------------------------

din symmetry found (for desy threshold:  0.10E+00) used in thermo

          ...................................................
          :                      SETUP                      :
          :.................................................:
          :  # frequencies                           4      :
          :  # imaginary freq.                       0      :
          :  linear?                              true      :
          :  only rotor calc.                    false      :
          :  symmetry                              din      :
          :  rotational number                       2      :
          :  scaling factor                  1.0000000      :
          :  rotor cutoff                   50.0000000 cm⁻¹ :
          :  imag. cutoff                  -20.0000000 cm⁻¹ :
          :.................................................:

    mode    ω/cm⁻¹     T·S(HO)/kcal·mol⁻¹    T·S(FR)/kcal·mol⁻¹   T·S(vib)
   ------------------------------------------------------------------------
       1     14.30    -0.00871 (  0.66%)    -0.01042 ( 99.34%)    -0.01041
   ------------------------------------------------------------------------

   temp. (K)  partition function   enthalpy   heat capacity  entropy
                                   cal/mol     cal/K/mol   cal/K/mol   J/K/mol
 298.15  VIB   15.5                  649.747      3.101      4.756
         ROT   23.9                  592.502      1.987      8.297
         INT   370.                 1242.248      5.089     13.053
         TR   0.621E+26             1481.254      4.968     34.244
         TOT                        2723.5021    10.0569    47.2974   197.8923

   temp. (K)  partition function   enthalpy   heat capacity  entropy
                                   cal/mol     cal/K/mol   cal/K/mol   J/K/mol
 120.00  VIB   6.35                  218.767      1.996      3.526
         ROT   9.63                  238.471      1.987      6.489
         INT   61.2                  457.239      3.983     10.015
         TR   0.158E+26              596.178      4.968     29.725
         TOT                        1053.4166     8.9509    39.7394   166.2699

   temp. (K)  partition function   enthalpy   heat capacity  entropy
                                   cal/mol     cal/K/mol   cal/K/mol   J/K/mol
 100.00  VIB   5.38                  179.006      1.983      3.342
         ROT   8.03                  198.726      1.987      6.126
         INT   43.2                  377.732      3.970      9.469
         TR   0.121E+26              496.815      4.968     28.819
         TOT                         874.5471     8.9380    38.2882   160.1980

   temp. (K)  partition function   enthalpy   heat capacity  entropy
                                   cal/mol     cal/K/mol   cal/K/mol   J/K/mol
  80.00  VIB   4.41                  139.418      1.977      3.119
         ROT   6.42                  158.981      1.987      5.683
         INT   28.3                  298.398      3.964      8.802
         TR   0.862E+25              397.452      4.968     27.711
         TOT                         695.8503     8.9319    36.5133   152.7718

   temp. (K)  partition function   enthalpy   heat capacity  entropy
                                   cal/mol     cal/K/mol   cal/K/mol   J/K/mol
  60.00  VIB   3.45                   99.962      1.968      2.831
         ROT   4.82                  119.236      1.987      5.111
         INT   16.6                  219.198      3.955      7.943
         TR   0.560E+25              298.089      4.968     26.283
         TOT                         517.2868     8.9233    34.2254   143.1989

   temp. (K)  partition function   enthalpy   heat capacity  entropy
                                   cal/mol     cal/K/mol   cal/K/mol   J/K/mol
  40.00  VIB   2.49                   60.795      1.944      2.426
         ROT   3.21                   79.490      1.987      4.305
         INT   7.99                  140.286      3.931      6.731
         TR   0.305E+25              198.726      4.968     24.269
         TOT                         339.0119     8.8994    31.0007   129.7068

   temp. (K)  partition function   enthalpy   heat capacity  entropy
                                   cal/mol     cal/K/mol   cal/K/mol   J/K/mol
  20.00  VIB   1.56                   22.750      1.821      1.733
         ROT   1.61                   39.745      1.987      2.928
         INT   2.50                   62.495      3.808      4.661
         TR   0.108E+25               99.363      4.968     20.827
         TOT                         161.8577     8.7764    25.4883   106.6432

   temp. (K)  partition function   enthalpy   heat capacity  entropy
                                   cal/mol     cal/K/mol   cal/K/mol   J/K/mol
  10.00  VIB   1.15                    5.992      1.413      1.041
         ROT  0.803                   19.873      1.987      1.551
         INT  0.920                   25.864      3.400      2.592
         TR   0.381E+24               49.681      4.968     17.385
         TOT                          75.5457     8.3685    19.9771    83.5842

       T/K    H(0)-H(T)+PV         H(T)/Eh          T*S/Eh         G(T)/Eh
   ------------------------------------------------------------------------
    298.15    0.434018E-02    0.125188E-01    0.224725E-01   -0.995373E-02
    120.00    0.167873E-02    0.985734E-02    0.759946E-02    0.225788E-02
    100.00    0.139368E-02    0.957229E-02    0.610162E-02    0.347067E-02
     80.00    0.110891E-02    0.928752E-02    0.465502E-02    0.463250E-02
     60.00    0.824349E-03    0.900296E-02    0.327249E-02    0.573047E-02
     40.00    0.540250E-03    0.871886E-02    0.197611E-02    0.674275E-02
     20.00    0.257937E-03    0.843655E-02    0.812365E-03    0.762418E-02
     10.00    0.120390E-03    0.829900E-02    0.318356E-03    0.798065E-02 (used)
   ------------------------------------------------------------------------

         :::::::::::::::::::::::::::::::::::::::::::::::::::::
         ::                  THERMODYNAMIC                  ::
         :::::::::::::::::::::::::::::::::::::::::::::::::::::
         :: total free energy          -3.550957928599 Eh   ::
         ::.................................................::
         :: total energy               -3.558938575602 Eh   ::
         :: zero point energy           0.008178612722 Eh   ::
         :: G(RRHO) w/o ZPVE           -0.000197965720 Eh   ::
         :: G(RRHO) contrib.            0.007980647002 Eh   ::
         :::::::::::::::::::::::::::::::::::::::::::::::::::::

optimized geometry written to: xtbopt.xyz


           -------------------------------------------------
          | TOTAL ENERGY               -3.558938575602 Eh   |
          | TOTAL ENTHALPY             -3.550639573083 Eh   |
          | TOTAL FREE ENERGY          -3.550957928599 Eh   |
          | GRADIENT NORM               0.000239370978 Eh/α |
          | HOMO-LUMO GAP               4.422316142176 eV   |
           -------------------------------------------------

------------------------------------------------------------------------
 * finished run on 2020/05/12 at 11:44:40.666     
------------------------------------------------------------------------
 total:
 * wall-time:     0 d,  0 h,  0 min,  0.028 sec
 *  cpu-time:     0 d,  0 h,  0 min,  0.028 sec
 * ratio c/w:     0.998 speedup
 SCF:
 * wall-time:     0 d,  0 h,  0 min,  0.001 sec
 *  cpu-time:     0 d,  0 h,  0 min,  0.001 sec
 * ratio c/w:     1.000 speedup
 ANC optimizer:
 * wall-time:     0 d,  0 h,  0 min,  0.006 sec
 *  cpu-time:     0 d,  0 h,  0 min,  0.006 sec
 * ratio c/w:     1.000 speedup
 numerical hessian:
 * wall-time:     0 d,  0 h,  0 min,  0.007 sec
 *  cpu-time:     0 d,  0 h,  0 min,  0.007 sec
 * ratio c/w:     0.998 speedup

