 Entering Gaussian System
 *********************************************
 Gaussian 98:
 frequency output generated by the xtb code
 *********************************************
                         Standard orientation:
 --------------------------------------------------------------------
  Center     Atomic     Atomic              Coordinates (Angstroms)
  Number     Number      Type              X           Y           Z
 --------------------------------------------------------------------
    1          7             0        0.000068    0.001330   -0.000000
    2          1             0       -1.389838   -0.006052    0.000005
    3          1             0        1.389771    0.004722   -0.000005
 --------------------------------------------------------------------
     1 basis functions        1 primitive gaussians
     1 alpha electrons        1 beta electrons

 Harmonic frequencies (cm**-1), IR intensities (KM/Mole),
 Raman scattering activities (A**4/amu), Raman depolarization ratios,
 reduced masses (AMU), force constants (mDyne/A) and normal coordinates:
                      1                      2                      3
                        a                      a                      a 
 Frequencies --    14.2969               867.0101               867.0112
 Red. masses --     1.0590                 2.6434                 2.6434
 Frc consts  --     0.0000                 0.0000                 0.0000
 IR Inten    --     0.1040                 0.0912                 0.0911
 Raman Activ --     0.0000                 0.0000                 0.0000
 Depolar     --     0.0000                 0.0000                 0.0000
 Atom AN      X      Y      Z        X      Y      Z        X      Y      Z
   1   7     0.06   0.00  -0.00     0.00  -0.35   0.00    -0.00  -0.00  -0.35
   2   1     0.02  -0.70   0.00    -0.00   0.66  -0.00     0.00   0.00   0.66
   3   1     0.02   0.71  -0.00    -0.00   0.66  -0.00     0.00   0.00   0.66
                      4
                        a 
 Frequencies --  1841.6778
 Red. masses --     1.0079
 Frc consts  --     0.0000
 IR Inten    --     0.0004
 Raman Activ --     0.0000
 Depolar     --     0.0000
 Atom AN      X      Y      Z        X      Y      Z        X      Y      Z
   1   7    -0.00   0.00   0.00
   2   1     0.71   0.00  -0.00
   3   1    -0.71  -0.00   0.00
