[Molden Format]
[Title]
[Atoms] AU
N      1     7  0.12758245784202E-03  0.25130292829518E-02 -0.48313655452123E-08
H      2     1 -0.26264138631468E+01 -0.11436543799591E-01  0.91878982136310E-05
H      3     1  0.26262862806889E+01  0.89235145166396E-02 -0.91830668477046E-05
[GTO]
           1 0
 s           4   1.0000000000000000     
   63.594024466941008      -0.19234388414721629     
   10.951417231523665      -0.23478107924953728     
  0.87999310257376984       0.37593753901700888     
  0.33538715296521110       0.14982889271862770     
 p           4   1.0000000000000000     
   7.2965040481495080       0.97658666315667420     
   1.8918745450712575       0.90372226730345739     
  0.66694432110824120       0.47404958461536373     
  0.26552202674130870        7.1516067715011844E-002

           2 0
 s           3   1.0000000000000000     
   3.3702276975336001       0.27359110588908298     
  0.61389118221497996       0.26460540653860526     
  0.16614291148415999        8.2465947534082318E-002

           3 0
 s           3   1.0000000000000000     
   3.3702276975336001       0.27359110588908298     
  0.61389118221497996       0.26460540653860526     
  0.16614291148415999        8.2465947534082318E-002

[MO]
Sym=     1a
Ene=  -0.59776153088508122     
Spin= Alpha
Occup=     2.00000000
           1  0.90756044618916620     
           2   7.3762043897493648E-005
           3  -1.7932664766743660E-005
           4  -2.3585005519049872E-010
           5  0.15192418430885110     
           6  0.15206313869626939     
Sym=     2a
Ene=  -0.49923436319673997     
Spin= Alpha
Occup=     2.00000000
           1  -2.1144768045926559E-004
           2  0.66702149912778752     
           3   2.5849845876339769E-003
           4  -2.3308636070117854E-006
           5 -0.37547684604756865     
           6  0.37555155435620918     
Sym=     3a
Ene=  -0.46034441492020250     
Spin= Alpha
Occup=     1.00000000
           1   8.3337534654944259E-004
           2  -3.8755003595097506E-003
           3  0.99999089653494488     
           4  -3.7511696868000439E-006
           5  -9.1605430065984058E-004
           6  -9.1565652225647433E-004
Sym=     4a
Ene=  -0.46034419463616605     
Spin= Alpha
Occup=     1.00000000
           1  -1.6952346711204019E-009
           2  -3.4737051197939485E-006
           3  -3.7646598508057557E-006
           4  -1.0000000000363163     
           5   7.3134191421523807E-009
           6  -3.6073012757396315E-009
Sym=     5a
Ene=  -0.30443722305364085     
Spin= Alpha
Occup=     1.00000000
           1  0.54269924881748688     
           2  -6.8794480866051722E-005
           3  -1.8817955940569489E-003
           4   3.5153842570106969E-009
           5 -0.72103776782764983     
           6 -0.72071681549266353     
Sym=     6a
Ene=  -0.14192009523931878     
Spin= Alpha
Occup=     0.00000000
           1  -2.0054528787438614E-004
           2 -0.86576642207991583     
           3  -3.3552101718270465E-003
           4   3.0189454595265913E-006
           5 -0.68885181115558392     
           6  0.68919959862959523     
