3
 energy: -3.307673847274 gnorm: 0.553902787588 xtb: 6.2.2 (9d81278992624c895f80dd42a50cac0aa55982e2)
N        -0.00160500000000    0.41562400000000    0.00000000000000
H        -0.83712600000000   -0.21104800000000    0.00000000000000
H         0.83873100000000   -0.20457600000000    0.00000000000000
3
 energy: -3.481640551716 gnorm: 0.127477388971 xtb: 6.2.2 (9d81278992624c895f80dd42a50cac0aa55982e2)
N        -0.00180461313479    0.46739381929386    0.00000000000000
H        -1.06671570827393   -0.23782006193122    0.00000000000000
H         1.06852032140872   -0.22957375736263    0.00000000000000
3
 energy: -3.518055662859 gnorm: 0.072957194038 xtb: 6.2.2 (9d81278992624c895f80dd42a50cac0aa55982e2)
N        -0.00154617995583    0.40067546776559    0.00000000000000
H        -1.20274346035685   -0.20498600700841    0.00000000000000
H         1.20428964031268   -0.19568946075718    0.00000000000000
3
 energy: -3.546815412917 gnorm: 0.038021399343 xtb: 6.2.2 (9d81278992624c895f80dd42a50cac0aa55982e2)
N        -0.00097740627090    0.25400768605205    0.00000000000000
H        -1.41079534800833   -0.13245538431342    0.00000000000000
H         1.41177275427923   -0.12155230173863    0.00000000000000
3
 energy: -3.549527249416 gnorm: 0.036037691278 xtb: 6.2.2 (9d81278992624c895f80dd42a50cac0aa55982e2)
N        -0.00075704208814    0.19735657666601    0.00000000000000
H        -1.46216873287527   -0.10432839719935    0.00000000000000
H         1.46292577496341   -0.09302817946666    0.00000000000000
3
 energy: -3.551277638205 gnorm: 0.033878169756 xtb: 6.2.2 (9d81278992624c895f80dd42a50cac0aa55982e2)
N        -0.00059066000238    0.15489302238403    0.00000000000000
H        -1.47871318650086   -0.08316108550292    0.00000000000000
H         1.47930384650324   -0.07173193688111    0.00000000000000
3
 energy: -3.554971305959 gnorm: 0.026654898830 xtb: 6.2.2 (9d81278992624c895f80dd42a50cac0aa55982e2)
N        -0.00023373537341    0.06469024278309    0.00000000000000
H        -1.47870354656396   -0.03806216552734    0.00000000000000
H         1.47893728193737   -0.02662807725575    0.00000000000000
3
 energy: -3.557908932033 gnorm: 0.015036112955 xtb: 6.2.2 (9d81278992624c895f80dd42a50cac0aa55982e2)
N         0.00004369155743   -0.00386870287343    0.00000000000000
H        -1.43876773375172   -0.00363264406146    0.00000000000000
H         1.43872404219429    0.00750134693490    0.00000000000000
3
 energy: -3.558888536978 gnorm: 0.002805116324 xtb: 6.2.2 (9d81278992624c895f80dd42a50cac0aa55982e2)
N         0.00010159532302   -0.01536241519769    0.00000000000000
H        -1.39228956190723    0.00228878900382    0.00000000000000
H         1.39218796658421    0.01307362619388    0.00000000000000
3
 energy: -3.558937595554 gnorm: 0.000449948124 xtb: 6.2.2 (9d81278992624c895f80dd42a50cac0aa55982e2)
N         0.00006110886977   -0.00257559387905    0.00000000000000
H        -1.38975093190153   -0.00409820378132    0.00000000000000
H         1.38968982303177    0.00667379766037    0.00000000000000
3
 energy: -3.558938575457 gnorm: 0.000239441293 xtb: 6.2.2 (9d81278992624c895f80dd42a50cac0aa55982e2)
N         0.00006750677246    0.00132983830374    0.00000000000000
H        -1.38983846002750   -0.00605923608899    0.00000000000000
H         1.38977095325504    0.00472939778525    0.00000000000000
