 Entering Gaussian System
 *********************************************
 Gaussian 98:
 frequency output generated by the xtb code
 *********************************************
                         Standard orientation:
 --------------------------------------------------------------------
  Center     Atomic     Atomic              Coordinates (Angstroms)
  Number     Number      Type              X           Y           Z
 --------------------------------------------------------------------
    1          6             0       -0.000000   -0.000000    0.000000
    2          1             0       -0.671839    0.848190   -0.025692
    3          1             0       -0.431417   -0.819079   -0.560753
    4          1             0        0.154222   -0.307129    1.026324
    5          1             0        0.949034    0.278018   -0.439880
 --------------------------------------------------------------------
     1 basis functions        1 primitive gaussians
     1 alpha electrons        1 beta electrons

 Harmonic frequencies (cm**-1), IR intensities (KM/Mole),
 Raman scattering activities (A**4/amu), Raman depolarization ratios,
 reduced masses (AMU), force constants (mDyne/A) and normal coordinates:
                      1                      2                      3
                        a                      a                      a 
 Frequencies --  1385.8729              1385.9927              1386.0519
 Red. masses --     2.8512                 2.8511                 2.8511
 Frc consts  --     0.0000                 0.0000                 0.0000
 IR Inten    --     0.1223                 0.1231                 0.1235
 Raman Activ --     0.0000                 0.0000                 0.0000
 Depolar     --     0.0000                 0.0000                 0.0000
 Atom AN      X      Y      Z        X      Y      Z        X      Y      Z
   1   6     0.05   0.38   0.15     0.41  -0.04  -0.02     0.00  -0.15   0.38
   2   1    -0.31  -0.21  -0.21    -0.29  -0.28   0.04     0.11   0.05  -0.52
   3   1     0.16  -0.09   0.10    -0.48   0.19   0.12     0.05   0.30  -0.45
   4   1    -0.05  -0.53  -0.15    -0.54   0.03   0.10     0.08   0.03   0.05
   5   1     0.04  -0.49  -0.25    -0.09   0.19  -0.19    -0.25   0.13  -0.40
                      4                      5                      6
                        a                      a                      a 
 Frequencies --  1557.3334              1557.3346              3088.8861
 Red. masses --     1.0079                 1.0079                 1.0080
 Frc consts  --     0.0000                 0.0000                 0.0000
 IR Inten    --     0.0011                 0.0006                 0.0014
 Raman Activ --     0.0000                 0.0000                 0.0000
 Depolar     --     0.0000                 0.0000                 0.0000
 Atom AN      X      Y      Z        X      Y      Z        X      Y      Z
   1   6    -0.00   0.00  -0.00     0.00   0.00   0.00     0.00   0.00   0.00
   2   1     0.35   0.27  -0.23    -0.17  -0.15  -0.44     0.31  -0.39   0.01
   3   1    -0.00  -0.28   0.41    -0.46   0.17   0.11     0.20   0.37   0.26
   4   1    -0.18  -0.45  -0.11     0.46  -0.15  -0.12    -0.07   0.14  -0.48
   5   1    -0.17   0.46  -0.08     0.17   0.14   0.45    -0.44  -0.13   0.20
                      7                      8                      9
                        a                      a                      a 
 Frequencies --  3102.2495              3102.3605              3102.6371
 Red. masses --     1.9300                 1.9299                 1.9298
 Frc consts  --     0.0000                 0.0000                 0.0000
 IR Inten    --     0.1743                 0.1737                 0.1724
 Raman Activ --     0.0000                 0.0000                 0.0000
 Depolar     --     0.0000                 0.0000                 0.0000
 Atom AN      X      Y      Z        X      Y      Z        X      Y      Z
   1   6    -0.05  -0.10   0.27    -0.28   0.07  -0.03    -0.05  -0.26  -0.11
   2   1    -0.11   0.11   0.03     0.39  -0.53   0.01    -0.32   0.36  -0.03
   3   1    -0.06  -0.11  -0.03     0.05   0.18   0.11     0.32   0.59   0.42
   4   1    -0.12   0.22  -0.74    -0.00  -0.06   0.24     0.01  -0.07   0.09
   5   1     0.46   0.12  -0.18     0.53   0.18  -0.27     0.17   0.02  -0.10
