[Molden Format]
[Title]
[Atoms] AU
C      1     6 -0.13505834588352E-07 -0.63984423591497E-08  0.12467026337553E-07
H      2     1 -0.12695922932297E+01  0.16028467350168E+01 -0.48550758411830E-01
H      3     1 -0.81525989823291E+00 -0.15478347678616E+01 -0.10596689372050E+01
H      4     1  0.29143738676692E+00 -0.58039052237248E+00  0.19394717231891E+01
H      5     1  0.17934148182015E+01  0.52537856161565E+00 -0.83125204003932E+00
[GTO]
           1 0
 s           4   1.0000000000000000     
   51.049363095579913      -0.16312063210127389     
   8.7911227406887544      -0.19911024581000730     
  0.70640422258929825       0.31882047753655751     
  0.26922813413411617       0.12706504184240380     
 p           4   1.0000000000000000     
   5.8263656140800002       0.73716451545209605     
   1.5106896018720002       0.68216371614850257     
  0.53256483288000001       0.35783053929253711     
  0.21202323690600003        5.3983030275847881E-002

           2 0
 s           3   1.0000000000000000     
   3.3702276975336001       0.27359110588908298     
  0.61389118221497996       0.26460540653860526     
  0.16614291148415999        8.2465947534082318E-002

           3 0
 s           3   1.0000000000000000     
   3.3702276975336001       0.27359110588908298     
  0.61389118221497996       0.26460540653860526     
  0.16614291148415999        8.2465947534082318E-002

           4 0
 s           3   1.0000000000000000     
   3.3702276975336001       0.27359110588908298     
  0.61389118221497996       0.26460540653860526     
  0.16614291148415999        8.2465947534082318E-002

           5 0
 s           3   1.0000000000000000     
   3.3702276975336001       0.27359110588908298     
  0.61389118221497996       0.26460540653860526     
  0.16614291148415999        8.2465947534082318E-002

[MO]
Sym=     1a
Ene=  -0.58180528208212146     
Spin= Alpha
Occup=     2.00000000
           1  0.55344837595851271     
           2   4.3947311218339477E-009
           3   2.0796421742123643E-009
           4  -4.0904652190402733E-009
           5  0.21575449327559101     
           6  0.21575449309968756     
           7  0.21575449070869054     
           8  0.21575449961958759     
Sym=     2a
Ene=  -0.46744500871120942     
Spin= Alpha
Occup=     2.00000000
           1   5.1385927741255437E-009
           2  0.24697780955786974     
           3 -0.19902448728257985     
           4  0.48986334822821770     
           5 -0.28543919878511526     
           6 -0.17934244059525251     
           7  0.49471478278843822     
           8  -2.9933141039594501E-002
Sym=     3a
Ene=  -0.46744500795716393     
Spin= Alpha
Occup=     2.00000000
           1   9.5041085273788665E-010
           2  -2.7333950513473405E-003
           3 -0.54114134321605623     
           4 -0.21847988995750792     
           5 -0.37108567385294072     
           6  0.46591452802362382     
           7  -4.8037308765312356E-002
           8  -4.6791545010922947E-002
Sym=     4a
Ene=  -0.46744500626725111     
Spin= Alpha
Occup=     2.00000000
           1  -1.3344242901153874E-008
           2  0.52874320900708638     
           3   9.0167550358191961E-002
           4 -0.22994635026137134     
           5 -0.22422835256245155     
           6 -0.14219145280060491     
           7 -0.14969358378387954     
           8  0.51611338312441057     
Sym=     5a
Ene=   0.16994579843213115     
Spin= Alpha
Occup=     0.00000000
           1   1.2706707991285697     
           2  -1.2390928046718794E-007
           3  -5.8578933552875557E-008
           4   1.1613265125992106E-007
           5 -0.51719598057902483     
           6 -0.51719598625859886     
           7 -0.51719606571965027     
           8 -0.51719577057622712     
Sym=     6a
Ene=   0.22897305397522108     
Spin= Alpha
Occup=     0.00000000
           1  -2.2011510169187587E-007
           2 -0.95589377266191333     
           3 -0.11085077505513399     
           4  0.47021938009037700     
           5 -0.48178437204325719     
           6 -0.21524004222010160     
           7 -0.33181262716426269     
           8   1.0288374006999177     
Sym=     7a
Ene=   0.22897305904016019     
Spin= Alpha
Occup=     0.00000000
           1   2.4331474655412122E-008
           2   9.5516461325205165E-002
           3  0.97852171969152701     
           4  0.42485165656144930     
           5 -0.67839869676488884     
           6  0.97140833176367025     
           7 -0.13501149250636130     
           8 -0.15799818225041248     
Sym=     8a
Ene=   0.22897306148069035     
Spin= Alpha
Occup=     0.00000000
           1   8.1188935116909237E-008
           2 -0.47357234876270887     
           3  0.42111094816924483     
           4 -0.86343609340795946     
           5 -0.62685472520406738     
           6 -0.30874810215874487     
           7  0.97824332595732644     
           8  -4.2640631057562495E-002
