5
 energy: -4.173398499796 gnorm: 0.034338583940 xtb: 6.2.2 (9d81278992624c895f80dd42a50cac0aa55982e2)
C         0.00000000000000    0.00000000000000    0.00000000000000
H        -0.68864300000000    0.86939500000000   -0.02633500000000
H        -0.44219800000000   -0.83956100000000   -0.57477700000000
H         0.15807600000000   -0.31481000000000    1.05198700000000
H         0.97276500000000    0.28497600000000   -0.45087500000000
5
 energy: -4.175184687099 gnorm: 0.004925559105 xtb: 6.2.2 (9d81278992624c895f80dd42a50cac0aa55982e2)
C        -0.00000006398542   -0.00000003044453    0.00000005720317
H        -0.67398400896345    0.85088867787411   -0.02577469720081
H        -0.43278508587550   -0.82168959996783   -0.56254208229062
H         0.15471139774349   -0.30810887944100    1.02959392668244
H         0.95205776108088    0.27890983197925   -0.44127720439418
5
 energy: -4.175218230617 gnorm: 0.000459211303 xtb: 6.2.2 (9d81278992624c895f80dd42a50cac0aa55982e2)
C         0.00000000459093    0.00000000220828   -0.00000000376542
H        -0.67152978724989    0.84779020516045   -0.02568079647129
H        -0.43120916810757   -0.81869749224726   -0.56049358480608
H         0.15414797315768   -0.30698692581515    1.02584472458959
H         0.94859097760885    0.27789421069368   -0.43967033954680
5
 energy: -4.175218442668 gnorm: 0.000237682599 xtb: 6.2.2 (9d81278992624c895f80dd42a50cac0aa55982e2)
C        -0.00000000714699   -0.00000000338596    0.00000000659724
H        -0.67184372246593    0.84818657052554   -0.02569282211966
H        -0.43141075304262   -0.81908024157065   -0.56075564017384
H         0.15422006336619   -0.30713045012448    1.02632433461833
H         0.94903441928934    0.27802412455555   -0.43987587892206
