$hessian                                                                        
        0.5128585720   0.0000011729   0.0000037923  -0.1414478877   0.1236852133
       -0.0037441246  -0.0838688184  -0.0767005753  -0.0525284384  -0.0486046494
        0.0102951538  -0.0343541830  -0.2389372164  -0.0572809647   0.0906229537
        0.0000011729   0.5128589804   0.0000056314   0.1237104158  -0.1996158232
        0.0047342279  -0.0767233680  -0.1891100072  -0.0997161941   0.0102853505
       -0.0639169577   0.0684191284  -0.0572735712  -0.0602161924   0.0265572064
        0.0000037923   0.0000056314   0.5128642078  -0.0037373658   0.0047272098
       -0.0436059485  -0.0525236139  -0.0997074850  -0.1117285847  -0.0343507875
        0.0684211402  -0.2720733701   0.0906079750   0.0265535037  -0.0854563045
       -0.1414478877   0.1237104158  -0.0037373658   0.1604864540  -0.1439600913
        0.0043597502   0.0077218313  -0.0095954311   0.0002561567  -0.0041061827
        0.0055618851  -0.0014732177  -0.0226542149   0.0242832215   0.0005946766
        0.1236852133  -0.1996158232   0.0047272098  -0.1439600913   0.2281773803
       -0.0055047279   0.0162886022  -0.0244987163  -0.0010267098   0.0077000638
       -0.0097388695   0.0022047785  -0.0037137880   0.0056760287  -0.0004005505
       -0.0037441246   0.0047342279  -0.0436059485   0.0043597502  -0.0055047279
        0.0466124941   0.0105822031  -0.0150532906  -0.0000799477  -0.0208249438
        0.0265561483  -0.0030260367   0.0096271152  -0.0107323576   0.0000994387
       -0.0838688184  -0.0767233680  -0.0525236139   0.0077218313   0.0162886022
        0.0105822031   0.0934751336   0.0892821985   0.0611283168  -0.0023536787
       -0.0042578079  -0.0040850785  -0.0149744678  -0.0245896248  -0.0151018274
       -0.0767005753  -0.1891100072  -0.0997074850  -0.0095954311  -0.0244987163
       -0.0150532906   0.0892821985   0.2159463306   0.1160468730   0.0030463426
        0.0062385957   0.0036069320  -0.0060325347  -0.0085762028  -0.0048930295
       -0.0525284384  -0.0997161941  -0.1117285847   0.0002561567  -0.0010267098
       -0.0000799477   0.0611283168   0.1160468730   0.1258971224  -0.0141447166
       -0.0249892492  -0.0207635197   0.0052886815   0.0096852801   0.0066749296
       -0.0486046494   0.0102853505  -0.0343507875  -0.0041061827   0.0077000638
       -0.0208249438  -0.0023536787   0.0030463426  -0.0141447166   0.0524489594
       -0.0119662035   0.0399796676   0.0026155514  -0.0090655534   0.0293407804
        0.0102951538  -0.0639169577   0.0684211402   0.0055618851  -0.0097388695
        0.0265561483  -0.0042578079   0.0062385957  -0.0249892492  -0.0119662035
        0.0702688832  -0.0796210428   0.0003669724  -0.0028516517   0.0096330036
       -0.0343541830   0.0684191284  -0.2720733701  -0.0014732177   0.0022047785
       -0.0030260367  -0.0040850785   0.0036069320  -0.0207635197   0.0399796676
       -0.0796210428   0.3125072367  -0.0000671884   0.0053902039  -0.0166443101
       -0.2389372164  -0.0572735712   0.0906079750  -0.0226542149  -0.0037137880
        0.0096271152  -0.0149744678  -0.0060325347   0.0052886815   0.0026155514
        0.0003669724  -0.0000671884   0.2739503477   0.0666529214  -0.1054565833
       -0.0572809647  -0.0602161924   0.0265535037   0.0242832215   0.0056760287
       -0.0107323576  -0.0245896248  -0.0085762028   0.0096852801  -0.0090655534
       -0.0028516517   0.0053902039   0.0666529214   0.0659680182  -0.0308966300
        0.0906229537   0.0265572064  -0.0854563045   0.0005946766  -0.0004005505
        0.0000994387  -0.0151018274  -0.0048930295   0.0066749296   0.0293407804
        0.0096330036  -0.0166443101  -0.1054565833  -0.0308966300   0.0953262463
