      -----------------------------------------------------------      
     |                   =====================                   |     
     |                           x T B                           |     
     |                   =====================                   |     
     |                         S. Grimme                         |     
     |          Mulliken Center for Theoretical Chemistry        |     
     |                    University of Bonn                     |     
      -----------------------------------------------------------      

   * xtb version 6.2.2 (9d81278992624c895f80dd42a50cac0aa55982e2) compiled by '@Darwin' on 04/03/2020

   xtb is free software: you can redistribute it and/or modify it under
   the terms of the GNU Lesser General Public License as published by
   the Free Software Foundation, either version 3 of the License, or
   (at your option) any later version.
   
   xtb is distributed in the hope that it will be useful,
   but WITHOUT ANY WARRANTY; without even the implied warranty of
   MERCHANTABILITY or FITNESS FOR A PARTICULAR PURPOSE.  See the
   GNU Lesser General Public License for more details.
   
   Cite this work as:
   * S. Grimme, C. Bannwarth, P. Shushkov, J. Chem. Theory Comput., 2017,
     13, 1989-2009. DOI: 10.1021/acs.jctc.7b00118
   * C. Bannwarth, S. Ehlert and S. Grimme., J. Chem. Theory Comput., 2019,
     15, 1652-1671. DOI: 10.1021/acs.jctc.8b01176
   * P. Pracht, E. Caldeweyher, S. Ehlert, S. Grimme, ChemRxiv, 2019, preprint.
     DOI: 10.26434/chemrxiv.8326202.v1
   
   for DFT-D4:
   * E. Caldeweyher, C. Bannwarth and S. Grimme, J. Chem. Phys., 2017,
     147, 034112. DOI: 10.1063/1.4993215
   * E. Caldeweyher, S. Ehlert, A. Hansen, H. Neugebauer, S. Spicher,
     C. Bannwarth and S. Grimme, J. Chem. Phys., 2019, 150, 154122.
     DOI: 10.1063/1.5090222
   
   for sTDA-xTB:
   * S. Grimme and C. Bannwarth, J. Chem. Phys., 2016, 145, 054103.
     DOI: 10.1063/1.4959605
   
   in the mass-spec context:
   * V. Asgeirsson, C. Bauer and S. Grimme, Chem. Sci., 2017, 8, 4879.
     DOI: 10.1039/c7sc00601b
   
   for metadynamics refer to:
   * S. Grimme, J. Chem. Theory Comput., 2019, 155, 2847-2862
     DOI: 10.1021/acs.jctc.9b00143
   
   with help from (in alphabetical order)
   C. Bannwarth, F. Bohle, G. Brandenburg, E. Caldeweyher, M. Checinski,
   S. Dohm, S. Ehlert, S. Ehrlich, F. März, H. Neugebauer, J. Pisarek,
   P. Pracht, P. Shushkov, and S. Spicher.
   
 * started run on 2020/05/12 at 11:45:06.808     

           -------------------------------------------------
          |                Calculation Setup                |
           -------------------------------------------------

          program call               : xtb --input C3N1_10_S_1.input C3N1_10_S_1.xyz --ohess --molden --namespace C3N1_10_S_1 output.out
          calculation namespace      : C3N1_10_S_1
          coordinate file            : C3N1_10_S_1.xyz
          number of atoms            :                     4
          number of electrons        :                    17
          charge                     :                     0
          spin                       :                   0.5
          first test random number   :      0.03616142928940

   ID    Z sym.   atoms
    1    6 C      1-3
    2    7 N      4

           -------------------------------------------------
          |                 G F N 2 - x T B                 |
           -------------------------------------------------

        Reference                      10.1021/acs.jctc.8b01176
      * Hamiltonian:
        H0-scaling (s, p, d)           1.850000    2.230000    2.230000
        zeta-weighting                 0.500000
      * Dispersion:
        s8                             2.700000
        a1                             0.520000
        a2                             5.000000
        s9                             5.000000
      * Repulsion:
        kExp                           1.500000    1.000000
        rExp                           1.000000
      * Coulomb:
        alpha                          2.000000
        third order                    shell-resolved
        anisotropic                    true
        a3                             3.000000
        a5                             4.000000
        cn-shift                       1.200000
        cn-exp                         4.000000
        max-rad                        5.000000


          ...................................................
          :                      SETUP                      :
          :.................................................:
          :  # basis functions                  16          :
          :  # atomic orbitals                  16          :
          :  # shells                            8          :
          :  # electrons                        17          :
          :  max. iterations                   250          :
          :  Hamiltonian                  GFN2-xTB          :
          :  restarted?                      false          :
          :  GBSA solvation                  false          :
          :  PC potential                    false          :
          :  electronic temp.          300.0000000     K    :
          :  accuracy                    1.0000000          :
          :  -> integral cutoff          0.2500000E+02      :
          :  -> integral neglect         0.1000000E-07      :
          :  -> SCF convergence          0.1000000E-05 Eh   :
          :  -> wf. convergence          0.1000000E-03 e    :
          :  Broyden damping             0.4000000          :
          ...................................................

 iter      E             dE          RMSdq      gap      omega  full diag
   1     -8.9437914 -0.894379E+01  0.530E+00    0.10       0.0  T
   2     -8.9442431 -0.451783E-03  0.308E+00    0.10       1.0  T
   3     -8.9439804  0.262734E-03  0.530E-01    0.08       1.0  T
   4     -8.9367135  0.726686E-02  0.142E+00    0.09       1.0  T
   5     -8.9436505 -0.693694E-02  0.523E-01    0.08       1.0  T
   6     -8.9410224  0.262804E-02  0.933E-01    0.08       1.0  T
   7     -8.9436654 -0.264296E-02  0.467E-01    0.08       1.0  T
   8     -8.9444325 -0.767052E-03  0.493E-02    0.08       1.0  T
   9     -8.9444409 -0.840596E-05  0.152E-02    0.08       3.3  T
  10     -8.9444413 -0.395621E-06  0.993E-03    0.08       5.0  T
  11     -8.9444416 -0.300564E-06  0.354E-03    0.08      14.1  T
  12     -8.9444416 -0.289258E-07  0.120E-03    0.08      41.8  T
  13     -8.9444416 -0.306131E-08  0.349E-04    0.08     143.5  T
  14     -8.9444416 -0.279718E-09  0.211E-04    0.08     236.8  T

   *** convergence criteria satisfied after 14 iterations ***

         #    Occupation            Energy/Eh            Energy/eV
      -------------------------------------------------------------
         1        2.0000           -0.7660826             -20.8462
       ...           ...                  ...                  ...
         3        2.0000           -0.6196572             -16.8617
         4        2.0000           -0.6196567             -16.8617
         5        2.0000           -0.4686773             -12.7534
         6        2.0000           -0.4653749             -12.6635
         7        2.0000           -0.4653747             -12.6635
         8        1.3624           -0.4532532             -12.3336
         9        1.3622           -0.4532527             -12.3336 (HOMO)
        10        0.2754           -0.4502439             -12.2518 (LUMO)
        11                         -0.1470606              -4.0017
        12                         -0.1470603              -4.0017
        13                         -0.1043057              -2.8383
        14                          0.0158735               0.4319
       ...                                ...                  ...
        16                          0.2437909               6.6339
      -------------------------------------------------------------
                  HL-Gap            0.0030088 Eh            0.0819 eV
             Fermi-level           -0.4523373 Eh          -12.3087 eV

 SCC (total)                   0 d,  0 h,  0 min,  0.004 sec
 SCC setup                      ...        0 min,  0.000 sec (  2.379%)
 Dispersion                     ...        0 min,  0.000 sec (  0.372%)
 integral evaluation            ...        0 min,  0.001 sec ( 27.154%)
 zeroth order Hamiltonian       ...        0 min,  0.000 sec (  0.473%)
 iterations                     ...        0 min,  0.001 sec ( 37.305%)
 molecular gradient             ...        0 min,  0.001 sec ( 30.303%)
 printout                       ...        0 min,  0.000 sec (  1.703%)

         :::::::::::::::::::::::::::::::::::::::::::::::::::::
         ::                     SUMMARY                     ::
         :::::::::::::::::::::::::::::::::::::::::::::::::::::
         :: total energy              -8.854600367308 Eh    ::
         :: gradient norm              0.036156550613 Eh/a0 ::
         :: HOMO-LUMO gap              0.081874070580 eV    ::
         ::.................................................::
         :: SCC energy                -8.944441590228 Eh    ::
         :: -> isotropic ES            0.008225725975 Eh    ::
         :: -> anisotropic ES          0.001402832447 Eh    ::
         :: -> anisotropic XC          0.005263781767 Eh    ::
         :: -> dispersion             -0.001672601945 Eh    ::
         :: repulsion energy           0.089841217695 Eh    ::
         :: add. restraining           0.000000000000 Eh    ::
         :::::::::::::::::::::::::::::::::::::::::::::::::::::

      ----------------------------------------------------------- 
     |                   =====================                   |
     |                        A N C O P T                        |
     |                   =====================                   |
     |               Approximate Normal Coordinate               |
     |                Rational Function Optimizer                |
      ----------------------------------------------------------- 

          ...................................................
          :                      SETUP                      :
          :.................................................:
          :   optimization level            normal          :
          :   max. optcycles                   200          :
          :   ANC micro-cycles                  20          :
          :   degrees of freedom                 6          :
          :.................................................:
          :   RF solver                   davidson          :
          :   write xtbopt.log                true          :
          :   linear?                        false          :
          :   energy convergence         0.5000000E-05 Eh   :
          :   grad. convergence          0.1000000E-02 Eh/α :
          :   maximium RF displ.         1.0000000          :
          :   Hlow (freq-cutoff)         0.1000000E-01      :
          :   Hmax (freq-cutoff)         5.0000000          :
          :   S6 in model hess.         20.0000000          :
          ...................................................

generating ANC from model Hessian ...
Using Lindh-Hessian (1995)
 Shifting diagonal of input Hessian by    0.0000000000000000     
 Lowest  eigenvalues of input Hessian
   -0.000000   -0.000000   -0.000000    0.000000    0.000000    0.000000
    0.613065    0.613068    1.098332    1.100761    1.100765    1.837418
 Highest eigenvalues
    0.613065    0.613068    1.098332    1.100761    1.100765    1.837418


........................................................................
.............................. CYCLE    1 ..............................
........................................................................
   1     -8.9444416 -0.894444E+01  0.414E-05    0.08       0.0  T
   2     -8.9444416  0.149361E-08  0.598E-04    0.08      83.6  T
   3     -8.9444416 -0.149551E-08  0.344E-05    0.08    1455.6  T
     SCC iter.                  ...        0 min,  0.000 sec
     gradient                   ...        0 min,  0.001 sec
 * total energy  :    -8.8546004 Eh     change       -0.2484590E-09 Eh
   gradient norm :     0.0361568 Eh/α   predicted     0.0000000E+00 (-100.00%)
   displ. norm   :     0.0328556 α      lambda       -0.1187693E-02
   maximum displ.:     0.0328397 α      in ANC's #3, #6, #4, ...

........................................................................
.............................. CYCLE    2 ..............................
........................................................................
   1     -8.9438740 -0.894387E+01  0.548E-01    0.07       0.0  T
   2     -8.9439676 -0.935979E-04  0.220E-01    0.07       1.0  T
   3     -8.9438380  0.129525E-03  0.248E-01    0.07       1.0  T
   4     -8.9351683  0.866972E-02  0.148E+00    0.08       1.0  T
   5     -8.9440133 -0.884495E-02  0.798E-02    0.07       1.0  T
   6     -8.9437963  0.216986E-03  0.241E-01    0.07       1.0  T
   7     -8.9440324 -0.236160E-03  0.232E-02    0.07       2.2  T
   8     -8.9440341 -0.162374E-05  0.443E-03    0.07      11.3  T
   9     -8.9440341 -0.631270E-07  0.151E-03    0.07      33.1  T
  10     -8.9440341 -0.487770E-08  0.912E-04    0.07      54.8  T
  11     -8.9440341 -0.234600E-08  0.497E-04    0.07     100.6  T
     SCC iter.                  ...        0 min,  0.001 sec
     gradient                   ...        0 min,  0.001 sec
 * total energy  :    -8.8554596 Eh     change       -0.8592386E-03 Eh
   gradient norm :     0.0162177 Eh/α   predicted    -0.5944884E-03 ( -30.81%)
   displ. norm   :     0.0266994 α      lambda       -0.4328919E-03
   maximum displ.:     0.0266837 α      in ANC's #3, #6, #1, ...

........................................................................
.............................. CYCLE    3 ..............................
........................................................................
   1     -8.9434024 -0.894340E+01  0.495E-01    0.06       0.0  T
   2     -8.9434143 -0.119187E-04  0.215E-01    0.06       1.0  T
   3     -8.9308888  0.125255E-01  0.176E+00    0.07       1.0  T
   4     -8.9433972 -0.125084E-01  0.188E-01    0.06       1.0  T
   5     -8.9412139  0.218329E-02  0.746E-01    0.07       1.0  T
   6     -8.9434997 -0.228579E-02  0.566E-02    0.07       1.0  T
   7     -8.9435043 -0.462487E-05  0.353E-02    0.07       1.4  T
   8     -8.9435092 -0.495260E-05  0.463E-03    0.07      10.8  T
   9     -8.9435093 -0.382019E-07  0.277E-03    0.07      18.1  T
  10     -8.9435093 -0.262027E-07  0.464E-04    0.07     107.7  T
  11     -8.9435093 -0.371291E-09  0.105E-04    0.07     476.0  T
     SCC iter.                  ...        0 min,  0.001 sec
     gradient                   ...        0 min,  0.001 sec
 * total energy  :    -8.8556799 Eh     change       -0.2203261E-03 Eh
   gradient norm :     0.0014562 Eh/α   predicted    -0.2165990E-03 (  -1.69%)
   displ. norm   :     0.0020168 α      lambda       -0.1679350E-05
   maximum displ.:     0.0012427 α      in ANC's #1, #3, #6, ...

........................................................................
.............................. CYCLE    4 ..............................
........................................................................
   1     -8.9431792 -0.894318E+01  0.200E-01    0.06       0.0  T
   2     -8.9393275  0.385168E-02  0.967E-01    0.07       1.0  T
   3     -8.9409078 -0.158028E-02  0.758E-01    0.07       1.0  T
   4     -8.9431234 -0.221567E-02  0.138E-01    0.06       1.0  T
   5     -8.9431119  0.114962E-04  0.148E-01    0.06       1.0  T
   6     -8.9431748 -0.629170E-04  0.787E-02    0.06       1.0  T
   7     -8.9431855 -0.106152E-04  0.572E-02    0.06       1.0  T
   8     -8.9431972 -0.117267E-04  0.959E-03    0.06       5.2  T
   9     -8.9431975 -0.314822E-06  0.213E-03    0.06      23.5  T
  10     -8.9431975 -0.116781E-07  0.110E-03    0.06      45.5  T
  11     -8.9431975 -0.354537E-08  0.435E-04    0.06     115.1  T
  12     -8.9431975 -0.644112E-09  0.808E-05    0.06     619.1  T
     SCC iter.                  ...        0 min,  0.001 sec
     gradient                   ...        0 min,  0.001 sec
 * total energy  :    -8.8556838 Eh     change       -0.3872600E-05 Eh
   gradient norm :     0.0039501 Eh/α   predicted    -0.8378716E-06 ( -78.36%)
   displ. norm   :     0.0063016 α      lambda       -0.2472250E-04
   maximum displ.:     0.0059776 α      in ANC's #1, #2, #4, ...

........................................................................
.............................. CYCLE    5 ..............................
........................................................................
   1     -8.9428541 -0.894285E+01  0.921E-01    0.06       0.0  T
   2     -8.8903671  0.524870E-01  0.357E+00    0.10       1.0  T
   3     -8.9029700 -0.126029E-01  0.314E+00    0.09       1.0  T
   4     -8.9364163 -0.334464E-01  0.133E+00    0.07       1.0  T
   5     -8.9343961  0.202022E-02  0.145E+00    0.06       1.0  T
   6     -8.9427684 -0.837226E-02  0.391E-01    0.06       1.0  T
   7     -8.9429768 -0.208417E-03  0.296E-01    0.06       1.0  T
   8     -8.9432225 -0.245655E-03  0.849E-02    0.06       1.0  T
   9     -8.9432379 -0.154763E-04  0.469E-02    0.06       1.1  T
  10     -8.9432368  0.111326E-05  0.487E-02    0.06       1.0  T
  11     -8.9432424 -0.552818E-05  0.158E-02    0.06       3.2  T
  12     -8.9432432 -0.799868E-06  0.716E-03    0.06       7.0  T
  13     -8.9432434 -0.194687E-06  0.139E-03    0.06      36.1  T
  14     -8.9432434 -0.661140E-08  0.187E-04    0.06     267.7  T
  15     -8.9432434 -0.859632E-10  0.948E-05    0.06     527.3  T
     SCC iter.                  ...        0 min,  0.001 sec
     gradient                   ...        0 min,  0.001 sec
 * total energy  :    -8.8557601 Eh     change       -0.7631063E-04 Eh
   gradient norm :     0.0204170 Eh/α   predicted    -0.1236331E-04 ( -83.80%)
   displ. norm   :     0.0327040 α      lambda       -0.6639182E-03
   maximum displ.:     0.0311213 α      in ANC's #1, #2, #4, ...

........................................................................
.............................. CYCLE    6 ..............................
........................................................................
   1     -8.9417772 -0.894178E+01  0.352E+00    0.09       0.0  T
   2     -8.7802987  0.161478E+00  0.601E+00    0.15       1.0  T
   3     -8.7418775  0.384212E-01  0.658E+00    0.36       1.0  T
   4     -8.9372060 -0.195329E+00  0.212E+00    0.09       1.0  T
   5     -8.9075068  0.296992E-01  0.305E+00    0.16       1.0  T
   6     -8.9319921 -0.244853E-01  0.201E+00    0.10       1.0  T
   7     -8.9373455 -0.535345E-02  0.157E+00    0.09       1.0  T
   8     -8.9446773 -0.733178E-02  0.538E-01    0.06       1.0  T
   9     -8.9447014 -0.240489E-04  0.534E-01    0.06       1.0  T
  10     -8.9446881  0.132715E-04  0.400E-01    0.06       1.0  T
  11     -8.9450849 -0.396783E-03  0.231E-01    0.06       1.0  T
  12     -8.9452146 -0.129707E-03  0.128E-01    0.06       1.0  T
  13     -8.9452713 -0.567196E-04  0.253E-02    0.06       2.0  T
  14     -8.9452734 -0.213565E-05  0.469E-03    0.06      10.7  T
  15     -8.9452734  0.392067E-07  0.518E-03    0.06       9.6  T
  16     -8.9452735 -0.975334E-07  0.105E-03    0.06      47.5  T
  17     -8.9452735 -0.182734E-08  0.350E-04    0.06     142.9  T
  18     -8.9452735 -0.448443E-09  0.110E-04    0.06     455.9  T
     SCC iter.                  ...        0 min,  0.002 sec
     gradient                   ...        0 min,  0.001 sec
 * total energy  :    -8.8577490 Eh     change       -0.1988911E-02 Eh
   gradient norm :     0.0984364 Eh/α   predicted    -0.3323147E-03 ( -83.29%)
   displ. norm   :     0.1542774 α      lambda       -0.1509732E-01
   maximum displ.:     0.1486480 α      in ANC's #1, #2, #4, ...

........................................................................
.............................. CYCLE    7 ..............................
........................................................................
   1     -8.9562457 -0.895625E+01  0.455E+00    0.62       0.0  T
   2     -8.8609764  0.952692E-01  0.484E+00    0.72       1.0  T
   3     -8.7982625  0.627139E-01  0.592E+00    0.26       1.0  T
   4     -8.8958201 -0.975575E-01  0.436E+00    0.51       1.0  T
   5     -8.9497084 -0.538883E-01  0.252E+00    0.61       1.0  T
   6     -8.9679521 -0.182437E-01  0.133E+00    0.56       1.0  T
   7     -8.9669896  0.962447E-03  0.138E+00    0.57       1.0  T
   8     -8.9688093 -0.181967E-02  0.913E-01    0.56       1.0  T
   9     -8.9709024 -0.209310E-02  0.151E-01    0.57       1.0  T
  10     -8.9709052 -0.278553E-05  0.144E-01    0.57       1.0  T
  11     -8.9709147 -0.948081E-05  0.540E-02    0.57       1.0  T
  12     -8.9709194 -0.468684E-05  0.154E-02    0.57       3.3  T
  13     -8.9709196 -0.220618E-06  0.419E-03    0.57      11.9  T
  14     -8.9709196  0.101543E-07  0.328E-03    0.57      15.2  T
  15     -8.9709196 -0.175487E-07  0.547E-04    0.57      91.4  T
  16     -8.9709196 -0.762073E-09  0.202E-04    0.57     247.2  T
     SCC iter.                  ...        0 min,  0.001 sec
     gradient                   ...        0 min,  0.001 sec
 * total energy  :    -8.8820391 Eh     change       -0.2429010E-01 Eh
   gradient norm :     0.1699440 Eh/α   predicted    -0.7728326E-02 ( -68.18%)
   displ. norm   :     0.2586679 α      lambda       -0.4385235E-01
   maximum displ.:     0.2521209 α      in ANC's #1, #2, #3, ...

........................................................................
.............................. CYCLE    8 ..............................
........................................................................
   1     -9.0053943 -0.900539E+01  0.319E+00    1.53       0.0  T
   2     -8.9469994  0.583949E-01  0.372E+00    1.54       1.0  T
   3     -8.9882211 -0.412217E-01  0.291E+00    1.41       1.0  T
   4     -8.9856792  0.254190E-02  0.286E+00    1.50       1.0  T
   5     -9.0049097 -0.192305E-01  0.167E+00    1.46       1.0  T
   6     -9.0173320 -0.124223E-01  0.474E-01    1.50       1.0  T
   7     -9.0171241  0.207930E-03  0.491E-01    1.50       1.0  T
   8     -9.0174525 -0.328351E-03  0.965E-02    1.50       1.0  T
   9     -9.0174469  0.552692E-05  0.100E-01    1.50       1.0  T
  10     -9.0174740 -0.270395E-04  0.460E-02    1.51       1.1  T
  11     -9.0174776 -0.361637E-05  0.917E-03    1.51       5.5  T
  12     -9.0174776 -0.197834E-07  0.370E-03    1.51      13.5  T
  13     -9.0174776  0.291406E-07  0.358E-03    1.51      14.0  T
  14     -9.0174776 -0.245765E-07  0.160E-03    1.51      31.3  T
  15     -9.0174776 -0.707596E-08  0.231E-04    1.51     216.4  T
  16     -9.0174776 -0.145056E-09  0.121E-05    1.51    4145.2  T
     SCC iter.                  ...        0 min,  0.001 sec
     gradient                   ...        0 min,  0.001 sec
 * total energy  :    -8.9232401 Eh     change       -0.4120097E-01 Eh
   gradient norm :     0.1431190 Eh/α   predicted    -0.2339324E-01 ( -43.22%)
   displ. norm   :     0.7072144 α      lambda       -0.1009696E+00
   maximum displ.:     0.6967785 α      in ANC's #1, #2, #3, ...

........................................................................
.............................. CYCLE    9 ..............................
........................................................................
   1     -9.0743811 -0.907438E+01  0.531E+00    3.23       0.0  T
   2     -9.0341141  0.402670E-01  0.433E+00    3.15       1.0  T
   3     -9.0298730  0.424109E-02  0.382E+00    2.92       1.0  T
   4     -9.0872883 -0.574152E-01  0.694E-01    3.18       1.0  T
   5     -9.0870362  0.252082E-03  0.588E-01    3.18       1.0  T
   6     -9.0873987 -0.362519E-03  0.544E-01    3.17       1.0  T
   7     -9.0877367 -0.337983E-03  0.261E-01    3.21       1.0  T
   8     -9.0879454 -0.208705E-03  0.407E-02    3.18       1.2  T
   9     -9.0879472 -0.184287E-05  0.187E-02    3.18       2.7  T
  10     -9.0879477 -0.493390E-06  0.852E-03    3.18       5.9  T
  11     -9.0879478 -0.107283E-06  0.136E-03    3.18      36.9  T
  12     -9.0879478 -0.264105E-08  0.289E-04    3.18     173.1  T
  13     -9.0879478 -0.134181E-09  0.365E-05    3.18    1368.6  T
     SCC iter.                  ...        0 min,  0.001 sec
     gradient                   ...        0 min,  0.001 sec
 * total energy  :    -8.9800966 Eh     change       -0.5685648E-01 Eh
   gradient norm :     0.0324110 Eh/α   predicted    -0.7573492E-01 (  33.20%)
   displ. norm   :     0.1195939 α      lambda       -0.2952915E-02
   maximum displ.:     0.1172682 α      in ANC's #1, #3, #6, ...

........................................................................
.............................. CYCLE   10 ..............................
........................................................................
   1     -9.0900555 -0.909006E+01  0.817E-01    2.70       0.0  T
   2     -9.0894968  0.558771E-03  0.556E-01    2.73       1.0  T
   3     -9.0876128  0.188398E-02  0.696E-01    2.69       1.0  T
   4     -9.0900883 -0.247557E-02  0.210E-01    2.69       1.0  T
   5     -9.0902797 -0.191369E-03  0.525E-02    2.71       1.0  T
   6     -9.0902893 -0.962498E-05  0.361E-02    2.70       1.4  T
   7     -9.0902936 -0.427283E-05  0.713E-03    2.71       7.0  T
   8     -9.0902937 -0.862942E-07  0.116E-03    2.71      43.2  T
   9     -9.0902937 -0.137604E-08  0.321E-04    2.71     155.9  T
  10     -9.0902937 -0.224317E-09  0.737E-05    2.71     678.7  T
     SCC iter.                  ...        0 min,  0.001 sec
     gradient                   ...        0 min,  0.001 sec
 * total energy  :    -8.9818929 Eh     change       -0.1796369E-02 Eh
   gradient norm :     0.0235788 Eh/α   predicted    -0.1497575E-02 ( -16.63%)
   displ. norm   :     0.0400488 α      lambda       -0.6010238E-03
   maximum displ.:     0.0308495 α      in ANC's #1, #6, #3, ...

........................................................................
.............................. CYCLE   11 ..............................
........................................................................
   1     -9.0938708 -0.909387E+01  0.314E-01    2.53       0.0  T
   2     -9.0937247  0.146125E-03  0.231E-01    2.54       1.0  T
   3     -9.0935914  0.133326E-03  0.251E-01    2.53       1.0  T
   4     -9.0938893 -0.297932E-03  0.978E-02    2.53       1.0  T
   5     -9.0939232 -0.339157E-04  0.321E-02    2.54       1.6  T
   6     -9.0939277 -0.449070E-05  0.112E-02    2.53       4.5  T
   7     -9.0939280 -0.265036E-06  0.211E-03    2.53      23.7  T
   8     -9.0939280 -0.384734E-08  0.823E-04    2.53      60.8  T
   9     -9.0939280 -0.108470E-09  0.152E-04    2.53     328.1  T
     SCC iter.                  ...        0 min,  0.001 sec
     gradient                   ...        0 min,  0.001 sec
 * total energy  :    -8.9823306 Eh     change       -0.4376243E-03 Eh
   gradient norm :     0.0146033 Eh/α   predicted    -0.3009930E-03 ( -31.22%)
   displ. norm   :     0.0372117 α      lambda       -0.4519142E-03
   maximum displ.:     0.0213688 α      in ANC's #3, #6, #4, ...

........................................................................
.............................. CYCLE   12 ..............................
........................................................................
   1     -9.0978869 -0.909789E+01  0.361E-01    2.39       0.0  T
   2     -9.0977541  0.132836E-03  0.238E-01    2.41       1.0  T
   3     -9.0975355  0.218619E-03  0.290E-01    2.39       1.0  T
   4     -9.0979004 -0.364958E-03  0.109E-01    2.39       1.0  T
   5     -9.0979434 -0.430066E-04  0.419E-02    2.40       1.2  T
   6     -9.0979515 -0.810694E-05  0.123E-02    2.40       4.0  T
   7     -9.0979517 -0.151798E-06  0.235E-03    2.40      21.2  T
   8     -9.0979517 -0.558676E-08  0.107E-03    2.40      46.6  T
   9     -9.0979517 -0.500277E-09  0.125E-04    2.40     399.8  T
  10     -9.0979517 -0.740208E-11  0.182E-05    2.40    2742.2  T
     SCC iter.                  ...        0 min,  0.001 sec
     gradient                   ...        0 min,  0.001 sec
 * total energy  :    -8.9826284 Eh     change       -0.2978340E-03 Eh
   gradient norm :     0.0104081 Eh/α   predicted    -0.2262717E-03 ( -24.03%)
   displ. norm   :     0.0302755 α      lambda       -0.2287566E-03
   maximum displ.:     0.0182980 α      in ANC's #4, #3, #2, ...

........................................................................
.............................. CYCLE   13 ..............................
........................................................................
   1     -9.0991606 -0.909916E+01  0.384E-01    2.31       0.0  T
   2     -9.0991180  0.425580E-04  0.207E-01    2.34       1.0  T
   3     -9.0988834  0.234608E-03  0.279E-01    2.30       1.0  T
   4     -9.0991762 -0.292846E-03  0.694E-02    2.32       1.0  T
   5     -9.0991951 -0.189091E-04  0.260E-02    2.32       1.9  T
   6     -9.0991981 -0.297075E-05  0.124E-02    2.32       4.0  T
   7     -9.0991986 -0.432945E-06  0.219E-03    2.32      22.8  T
   8     -9.0991986 -0.791875E-08  0.980E-04    2.32      51.0  T
   9     -9.0991986 -0.887884E-09  0.120E-04    2.32     417.4  T
     SCC iter.                  ...        0 min,  0.001 sec
     gradient                   ...        0 min,  0.001 sec
 * total energy  :    -8.9828111 Eh     change       -0.1826835E-03 Eh
   gradient norm :     0.0124885 Eh/α   predicted    -0.1144837E-03 ( -37.33%)
   displ. norm   :     0.0670739 α      lambda       -0.4525515E-03
   maximum displ.:     0.0445442 α      in ANC's #4, #2, #3, ...

........................................................................
.............................. CYCLE   14 ..............................
........................................................................
   1     -9.0991900 -0.909919E+01  0.868E-01    2.14       0.0  T
   2     -9.0991924 -0.246345E-05  0.464E-01    2.18       1.0  T
   3     -9.0985521  0.640315E-03  0.368E-01    2.11       1.0  T
   4     -9.0992382 -0.686071E-03  0.784E-02    2.16       1.0  T
   5     -9.0992573 -0.191186E-04  0.305E-02    2.16       1.6  T
   6     -9.0992489  0.845607E-05  0.425E-02    2.16       1.2  T
   7     -9.0992596 -0.107378E-04  0.376E-03    2.16      13.3  T
   8     -9.0992596 -0.135391E-07  0.168E-03    2.16      29.8  T
   9     -9.0992596 -0.279588E-08  0.222E-04    2.16     225.2  T
  10     -9.0992596 -0.283222E-10  0.319E-05    2.16    1568.1  T
     SCC iter.                  ...        0 min,  0.001 sec
     gradient                   ...        0 min,  0.001 sec
 * total energy  :    -8.9831287 Eh     change       -0.3176454E-03 Eh
   gradient norm :     0.0144540 Eh/α   predicted    -0.2272928E-03 ( -28.44%)
   displ. norm   :     0.0555196 α      lambda       -0.3123133E-03
   maximum displ.:     0.0380248 α      in ANC's #4, #2, #3, ...

........................................................................
.............................. CYCLE   15 ..............................
........................................................................
   1     -9.0971860 -0.909719E+01  0.749E-01    2.03       0.0  T
   2     -9.0971293  0.566535E-04  0.416E-01    2.03       1.0  T
   3     -9.0952178  0.191151E-02  0.550E-01    2.02       1.0  T
   4     -9.0972242 -0.200639E-02  0.461E-02    2.03       1.1  T
   5     -9.0972289 -0.463886E-05  0.299E-02    2.03       1.7  T
   6     -9.0972301 -0.120874E-05  0.151E-02    2.03       3.3  T
   7     -9.0972312 -0.113040E-05  0.261E-03    2.03      19.1  T
   8     -9.0972312 -0.661288E-08  0.122E-03    2.03      41.0  T
   9     -9.0972312 -0.172997E-08  0.129E-04    2.03     388.7  T
  10     -9.0972312 -0.368949E-11  0.155E-05    2.03    3223.0  T
     SCC iter.                  ...        0 min,  0.001 sec
     gradient                   ...        0 min,  0.001 sec
 * total energy  :    -8.9833141 Eh     change       -0.1853802E-03 Eh
   gradient norm :     0.0105685 Eh/α   predicted    -0.1566370E-03 ( -15.51%)
   displ. norm   :     0.0161554 α      lambda       -0.1508718E-03
   maximum displ.:     0.0093562 α      in ANC's #2, #3, #6, ...

........................................................................
.............................. CYCLE   16 ..............................
........................................................................
   1     -9.0949096 -0.909491E+01  0.207E-01    2.06       0.0  T
   2     -9.0947720  0.137625E-03  0.189E-01    2.07       1.0  T
   3     -9.0948492 -0.772243E-04  0.147E-01    2.06       1.0  T
   4     -9.0949364 -0.871961E-04  0.526E-02    2.06       1.0  T
   5     -9.0949532 -0.168330E-04  0.119E-02    2.07       4.2  T
   6     -9.0949535 -0.210981E-06  0.607E-03    2.07       8.2  T
   7     -9.0949535 -0.293752E-07  0.947E-04    2.07      52.8  T
   8     -9.0949535 -0.666191E-09  0.401E-04    2.07     124.8  T
     SCC iter.                  ...        0 min,  0.001 sec
     gradient                   ...        0 min,  0.001 sec
 * total energy  :    -8.9834059 Eh     change       -0.9173529E-04 Eh
   gradient norm :     0.0040808 Eh/α   predicted    -0.7545469E-04 ( -17.75%)
   displ. norm   :     0.0102698 α      lambda       -0.3252684E-04
   maximum displ.:     0.0089676 α      in ANC's #2, #5, #1, ...

........................................................................
.............................. CYCLE   17 ..............................
........................................................................
   1     -9.0942614 -0.909426E+01  0.168E-01    2.05       0.0  T
   2     -9.0942107  0.506801E-04  0.127E-01    2.05       1.0  T
   3     -9.0941535  0.571746E-04  0.146E-01    2.05       1.0  T
   4     -9.0942758 -0.122324E-03  0.897E-03    2.05       5.6  T
   5     -9.0942760 -0.151468E-06  0.454E-03    2.05      11.0  T
   6     -9.0942760 -0.924294E-08  0.345E-03    2.05      14.5  T
   7     -9.0942761 -0.450079E-07  0.443E-04    2.05     112.8  T
   8     -9.0942761 -0.833751E-10  0.209E-04    2.05     239.2  T
     SCC iter.                  ...        0 min,  0.001 sec
     gradient                   ...        0 min,  0.001 sec
 * total energy  :    -8.9834278 Eh     change       -0.2191517E-04 Eh
   gradient norm :     0.0028276 Eh/α   predicted    -0.1626531E-04 ( -25.78%)
   displ. norm   :     0.0077758 α      lambda       -0.1504346E-04
   maximum displ.:     0.0070213 α      in ANC's #2, #5, #1, ...

........................................................................
.............................. CYCLE   18 ..............................
........................................................................
   1     -9.0943534 -0.909435E+01  0.128E-01    2.05       0.0  T
   2     -9.0943313  0.221133E-04  0.898E-02    2.06       1.0  T
   3     -9.0942801  0.511737E-04  0.116E-01    2.05       1.0  T
   4     -9.0943603 -0.802141E-04  0.786E-03    2.05       6.4  T
   5     -9.0943605 -0.162132E-06  0.302E-03    2.05      16.6  T
   6     -9.0943605  0.277412E-08  0.280E-03    2.05      17.8  T
   7     -9.0943605 -0.289415E-07  0.244E-04    2.05     204.8  T
   8     -9.0943605 -0.315534E-10  0.121E-04    2.05     414.8  T
     SCC iter.                  ...        0 min,  0.001 sec
     gradient                   ...        0 min,  0.001 sec
 * total energy  :    -8.9834381 Eh     change       -0.1030549E-04 Eh
   gradient norm :     0.0020261 Eh/α   predicted    -0.7522337E-05 ( -27.01%)
   displ. norm   :     0.0077171 α      lambda       -0.7869370E-05
   maximum displ.:     0.0075364 α      in ANC's #2, #6, #3, ...

........................................................................
.............................. CYCLE   19 ..............................
........................................................................
   1     -9.0946947 -0.909469E+01  0.135E-01    2.05       0.0  T
   2     -9.0946885  0.621288E-05  0.777E-02    2.05       1.0  T
   3     -9.0945934  0.951641E-04  0.126E-01    2.05       1.0  T
   4     -9.0946973 -0.103934E-03  0.546E-03    2.05       9.2  T
   5     -9.0946973 -0.142773E-07  0.374E-03    2.05      13.4  T
   6     -9.0946973 -0.191615E-07  0.263E-03    2.05      19.0  T
   7     -9.0946974 -0.268751E-07  0.341E-04    2.05     146.4  T
   8     -9.0946974 -0.177513E-09  0.165E-04    2.05     303.2  T
     SCC iter.                  ...        0 min,  0.001 sec
     gradient                   ...        0 min,  0.001 sec
 * total energy  :    -8.9834434 Eh     change       -0.5281400E-05 Eh
   gradient norm :     0.0014955 Eh/α   predicted    -0.3933348E-05 ( -25.52%)
   displ. norm   :     0.0075730 α      lambda       -0.4420403E-05
   maximum displ.:     0.0067988 α      in ANC's #2, #4, #5, ...

........................................................................
.............................. CYCLE   20 ..............................
........................................................................
   1     -9.0950911 -0.909509E+01  0.123E-01    2.06       0.0  T
   2     -9.0950916 -0.575738E-06  0.660E-02    2.07       1.0  T
   3     -9.0950840  0.765929E-05  0.384E-02    2.06       1.3  T
   4     -9.0950920 -0.800202E-05  0.102E-02    2.07       4.9  T
   5     -9.0950922 -0.219255E-06  0.607E-03    2.07       8.2  T
   6     -9.0950923 -0.812755E-07  0.505E-03    2.07       9.9  T
   7     -9.0950924 -0.105114E-06  0.530E-04    2.07      94.4  T
   8     -9.0950924 -0.464048E-09  0.860E-05    2.07     581.6  T
     SCC iter.                  ...        0 min,  0.001 sec
     gradient                   ...        0 min,  0.001 sec
 * total energy  :    -8.9834469 Eh     change       -0.3547991E-05 Eh
   gradient norm :     0.0014733 Eh/α   predicted    -0.2209295E-05 ( -37.73%)
   displ. norm   :     0.0056524 α      lambda       -0.2253551E-05
   maximum displ.:     0.0047327 α      in ANC's #2, #5, #4, ...
 * RMSD in coord.:     0.6404398 α      energy gain  -0.1288465E+00 Eh

generating ANC from model Hessian ...
Using Lindh-Hessian (1995)
 Shifting diagonal of input Hessian by    0.0000000000000000     
 Lowest  eigenvalues of input Hessian
   -0.000000   -0.000000   -0.000000    0.000000    0.000000    0.000000
    0.188734    0.645835    1.073980    1.378890    1.411014    1.636110
 Highest eigenvalues
    0.188734    0.645835    1.073980    1.378890    1.411014    1.636110


........................................................................
.............................. CYCLE   21 ..............................
........................................................................
   1     -9.0949978 -0.909500E+01  0.902E-02    2.06       0.0  T
   2     -9.0949967  0.109922E-05  0.522E-02    2.06       1.0  T
   3     -9.0949612  0.354480E-04  0.751E-02    2.06       1.0  T
   4     -9.0949985 -0.372977E-04  0.632E-03    2.06       7.9  T
   5     -9.0949985 -0.560871E-08  0.487E-03    2.06      10.3  T
   6     -9.0949986 -0.413957E-07  0.326E-03    2.06      15.3  T
   7     -9.0949986 -0.342118E-07  0.464E-04    2.06     107.7  T
   8     -9.0949986 -0.395179E-09  0.103E-04    2.06     483.5  T
     SCC iter.                  ...        0 min,  0.001 sec
     gradient                   ...        0 min,  0.001 sec
 * total energy  :    -8.9834488 Eh     change       -0.1855570E-05 Eh
   gradient norm :     0.0009260 Eh/α   predicted     0.0000000E+00 (-100.00%)
   displ. norm   :     0.0010928 α      lambda       -0.6336318E-06
   maximum displ.:     0.0006573 α      in ANC's #2, #6, #5, ...

   *** GEOMETRY OPTIMIZATION CONVERGED AFTER 21 ITERATIONS ***

------------------------------------------------------------------------
 total energy gain   :        -0.1288484 Eh      -80.8536 kcal/mol
 total RMSD          :         0.6404398 a0        0.3389 Å
 total power (kW/mol):       -16.1091142 (step)-5645.4412 (real)
------------------------------------------------------------------------

 ANCopt (total)                0 d,  0 h,  0 min,  0.060 sec
 optimizer setup                ...        0 min,  0.000 sec (  0.112%)
 model hessian                  ...        0 min,  0.000 sec (  0.185%)
 ANC generation                 ...        0 min,  0.000 sec (  0.158%)
 coordinate transformation      ...        0 min,  0.000 sec (  0.074%)
 single point calculation       ...        0 min,  0.058 sec ( 96.784%)
 optimization log               ...        0 min,  0.000 sec (  0.740%)
 hessian update                 ...        0 min,  0.000 sec (  0.074%)
 rational function              ...        0 min,  0.000 sec (  0.709%)

================
 final structure:
================
4
 xtb: 6.2.2 (9d81278992624c895f80dd42a50cac0aa55982e2)
C         0.68968074559789    0.30285076463582   -0.65495483459401
C         0.21515906016287    0.62219911863369    0.63151709193890
C        -0.57395571712079   -0.31563363695835   -0.63429604793830
N        -0.33088408863997   -0.60941624631116    0.65773479059341

 Bond Distances (Angstroems)
 ---------------------------
C1-C2=1.4079         C1-C3=1.4070         C1-N4=1.8966         C2-C1=1.4079         C2-C3=1.7620         C2-N4=1.3475         
C3-C1=1.4070         C3-C2=1.7620         C3-N4=1.3471         N4-C1=1.8966         N4-C2=1.3475         N4-C3=1.3471         
 C  C  Rav=1.5256 sigma=0.1671  Rmin=1.4070  Rmax=1.7620     3
 N  C  Rav=1.5304 sigma=0.2589  Rmin=1.3471  Rmax=1.8966     3

 selected bond angles (degree)
 --------------------
C3-C1-C2= 77.50                N4-C1-C2= 45.19                N4-C1-C3= 45.18                C3-C2-C1= 51.23                
N4-C2-C1= 86.96                N4-C2-C3= 49.16                C2-C3-C1= 51.27                N4-C3-C1= 87.01                
N4-C3-C2= 49.17                C2-N4-C1= 47.84                C3-N4-C1= 47.81                C3-N4-C2= 81.67                

 selected dihedral angles (degree)
 ---------------------------------
C3-C2-C1-N4=322.89            N4-C2-C1-C3= 37.11            C2-C3-C1-N4= 37.12            N4-C3-C1-C2=322.88            
C1-C3-C2-N4=232.80            N4-C3-C2-C1=127.20            C1-N4-C2-C3= 38.45            C3-N4-C2-C1=321.55            
C1-N4-C3-C2=321.52            C2-N4-C3-C1= 38.48            
           -------------------------------------------------
          |                Final Singlepoint                |
           -------------------------------------------------

          ...................................................
          :                      SETUP                      :
          :.................................................:
          :  # basis functions                  16          :
          :  # atomic orbitals                  16          :
          :  # shells                            8          :
          :  # electrons                        17          :
          :  max. iterations                   250          :
          :  Hamiltonian                  GFN2-xTB          :
          :  restarted?                      false          :
          :  GBSA solvation                  false          :
          :  PC potential                    false          :
          :  electronic temp.          300.0000000     K    :
          :  accuracy                    1.0000000          :
          :  -> integral cutoff          0.2500000E+02      :
          :  -> integral neglect         0.1000000E-07      :
          :  -> SCF convergence          0.1000000E-05 Eh   :
          :  -> wf. convergence          0.1000000E-03 e    :
          :  Broyden damping             0.4000000          :
          ...................................................

 iter      E             dE          RMSdq      gap      omega  full diag
   1     -9.0949986 -0.909500E+01  0.168E-05    2.06       0.0  T
   2     -9.0949986  0.639488E-13  0.881E-06    2.06    5673.8  T
   3     -9.0949986  0.144595E-11  0.171E-05    2.06    2928.4  T

   *** convergence criteria satisfied after 3 iterations ***

         #    Occupation            Energy/Eh            Energy/eV
      -------------------------------------------------------------
         1        2.0000           -0.7677624             -20.8919
       ...           ...                  ...                  ...
         3        2.0000           -0.6451424             -17.5552
         4        2.0000           -0.5911600             -16.0863
         5        2.0000           -0.5540658             -15.0769
         6        2.0000           -0.5112957             -13.9131
         7        2.0000           -0.4792658             -13.0415
         8        1.9999           -0.4498471             -12.2410
         9        1.0001           -0.4324483             -11.7675 (HOMO)
        10                         -0.3567098              -9.7066 (LUMO)
        11                         -0.2936550              -7.9908
        12                         -0.2799112              -7.6168
        13                          0.0761673               2.0726
        14                          0.1310993               3.5674
       ...                                ...                  ...
        16                          0.4901207              13.3369
      -------------------------------------------------------------
                  HL-Gap            0.0757385 Eh            2.0609 eV
             Fermi-level           -0.4178634 Eh          -11.3706 eV

 SCC (total)                   0 d,  0 h,  0 min,  0.002 sec
 SCC setup                      ...        0 min,  0.000 sec (  2.000%)
 Dispersion                     ...        0 min,  0.000 sec (  0.402%)
 integral evaluation            ...        0 min,  0.001 sec ( 37.447%)
 zeroth order Hamiltonian       ...        0 min,  0.000 sec (  0.478%)
 iterations                     ...        0 min,  0.000 sec ( 17.308%)
 molecular gradient             ...        0 min,  0.001 sec ( 39.189%)
 printout                       ...        0 min,  0.000 sec (  2.851%)

         :::::::::::::::::::::::::::::::::::::::::::::::::::::
         ::                     SUMMARY                     ::
         :::::::::::::::::::::::::::::::::::::::::::::::::::::
         :: total energy              -8.983448756090 Eh    ::
         :: gradient norm              0.000925837046 Eh/a0 ::
         :: HOMO-LUMO gap              2.060949755388 eV    ::
         ::.................................................::
         :: SCC energy                -9.094998611110 Eh    ::
         :: -> isotropic ES           -0.004994589380 Eh    ::
         :: -> anisotropic ES          0.002634725781 Eh    ::
         :: -> anisotropic XC          0.009075506596 Eh    ::
         :: -> dispersion             -0.001671664781 Eh    ::
         :: repulsion energy           0.111549850020 Eh    ::
         :: add. restraining           0.000000000000 Eh    ::
         :::::::::::::::::::::::::::::::::::::::::::::::::::::

           ------------------------------------------------- 
          |                Numerical Hessian                |
           ------------------------------------------------- 
step length          :   0.00500
SCC accuracy         :   0.30000
Hessian scale factor :   1.00000
frozen atoms in %    :   0.00000    0
RMS gradient         :   0.00093
estimated CPU  time      0.00 min
estimated wall time      0.00 min

writing file <hessian>.

 projected vibrational frequencies (cm-1)
eigval :       -0.00    -0.00     0.00     0.00     0.00     0.00
eigval :      314.42   593.41   724.03  1005.26  1264.12  1507.89
           -------------------------------------------------
          |                Property Printout                |
           -------------------------------------------------

    * Orbital Energies and Occupations

         #    Occupation            Energy/Eh            Energy/eV
      -------------------------------------------------------------
         1        2.0000           -0.7677624             -20.8919
         2        2.0000           -0.6566926             -17.8695
         3        2.0000           -0.6451424             -17.5552
         4        2.0000           -0.5911600             -16.0863
         5        2.0000           -0.5540658             -15.0769
         6        2.0000           -0.5112957             -13.9131
         7        2.0000           -0.4792658             -13.0415
         8        1.9999           -0.4498472             -12.2410
         9        1.0001           -0.4324483             -11.7675 (HOMO)
        10                         -0.3567099              -9.7066 (LUMO)
        11                         -0.2936550              -7.9908
        12                         -0.2799113              -7.6168
        13                          0.0761672               2.0726
        14                          0.1310993               3.5674
        15                          0.1751905               4.7672
        16                          0.4901207              13.3369
      -------------------------------------------------------------
                  HL-Gap            0.0757385 Eh            2.0609 eV
             Fermi-level           -0.4178634 Eh          -11.3706 eV

     #   Z        covCN         q      C6AA      α(0)
Molecule has the following symmetry elements: (sigma) 
It seems to be the Cs point group
     1   6 C      2.513    -0.028    28.833     8.772
     2   6 C      2.769     0.049    26.893     8.493
     3   6 C      2.769     0.049    26.881     8.491
     4   7 N      2.373    -0.070    22.737     7.080

 Mol. C6AA /au·bohr⁶  :        419.957778
 Mol. C8AA /au·bohr⁸  :      11442.508515
 Mol. α(0) /au        :         32.836754


Wiberg/Mayer (AO) data.
largest (>0.10) Wiberg bond orders for each atom
          total WBO             WBO to atom ...
     1  C   2.947        C    3 1.166    C    2 1.164    N    4 0.617
     2  C   2.931        N    4 1.219    C    1 1.164    C    3 0.548
     3  C   2.934        N    4 1.219    C    1 1.166    C    2 0.548
     4  N   3.055        C    3 1.219    C    2 1.219    C    1 0.617

MOs/occ written to file <molden.input>


molecular dipole:
                 x           y           z       tot (Debye)
 q only:       -0.026       0.092      -0.053
   full:       -0.294       0.239       0.004       0.963
molecular quadrupole (traceless):
                xx          xy          yy          xz          yz          zz
 q only:        0.005      -0.024      -0.007       0.280       0.334       0.002
  q+dip:        0.381      -0.891       0.204       0.248       0.191      -0.585
   full:        0.387      -1.587       0.629       0.494      -0.007      -1.017

           -------------------------------------------------
          |                Geometry Summary                 |
           -------------------------------------------------

      molecular mass/u    :       50.0389109
   center of mass at/Å    :       -0.0131984      -0.0243085       0.0262363
  moments of inertia/u·Å² :        0.2140029E+02   0.2602659E+02   0.4191381E+02
rotational constants/cm⁻¹ :        0.7877290E+00   0.6477080E+00   0.4021976E+00

 * 2 selected distances

     #   Z        #   Z                                     value/Å
     2   6 C      4   7 N                                 1.3474891 (max)
     3   6 C      4   7 N                                 1.3471213 (min)

 * 1 distinct bonds (by element types)

   Z      Z             #   av. dist./Å        max./Å        min./Å
   6 C    7 N           2     1.3473052     1.3474891     1.3471213

           -------------------------------------------------
          |               Frequency Printout                |
           -------------------------------------------------
 projected vibrational frequencies (cm-1)
eigval :       -0.00    -0.00     0.00     0.00     0.00     0.00
eigval :      314.42   593.41   724.03  1005.26  1264.12  1507.89
 reduced masses (amu)
   1: 12.83   2: 12.32   3: 12.20   4: 12.67   5: 12.66   6: 12.55   7: 12.37   8: 12.60
   9: 12.33  10: 12.50  11: 12.47  12: 12.60
 IR intensities (amu)
   1:  0.04   2:  0.05   3:  0.03   4:  0.14   5:  0.13   6:  0.06   7:  0.47   8:  0.38
   9:  0.10  10:  2.16  11:  1.25  12:  0.36
 Raman intensities (amu)
   1:  0.00   2:  0.00   3:  0.00   4:  0.00   5:  0.00   6:  0.00   7:  0.00   8:  0.00
   9:  0.00  10:  0.00  11:  0.00  12:  0.00
 output can be read by thermo (or use thermo option).
 writing <g98.out> molden fake output.
 recommended (thermochemical) frequency scaling factor: 1.0
           -------------------------------------------------
          |             Thermodynamic Functions             |
           -------------------------------------------------

cs  symmetry found (for desy threshold:  0.10E+00) used in thermo

          ...................................................
          :                      SETUP                      :
          :.................................................:
          :  # frequencies                           6      :
          :  # imaginary freq.                       0      :
          :  linear?                             false      :
          :  only rotor calc.                    false      :
          :  symmetry                               cs      :
          :  rotational number                       1      :
          :  scaling factor                  1.0000000      :
          :  rotor cutoff                   50.0000000 cm⁻¹ :
          :  imag. cutoff                  -20.0000000 cm⁻¹ :
          :.................................................:

    mode    ω/cm⁻¹     T·S(HO)/kcal·mol⁻¹    T·S(FR)/kcal·mol⁻¹   T·S(vib)
   ------------------------------------------------------------------------
   ------------------------------------------------------------------------

   temp. (K)  partition function   enthalpy   heat capacity  entropy
                                   cal/mol     cal/K/mol   cal/K/mol   J/K/mol
 298.15  VIB   1.42                  453.840      4.087      2.214
         ROT  0.117E+05              888.752      2.981     21.591
         INT  0.165E+05             1342.592      7.068     23.805
         TR   0.342E+27             1481.254      4.968     37.637
         TOT                        2823.8462    12.0360    61.4425   257.0756

   temp. (K)  partition function   enthalpy   heat capacity  entropy
                                   cal/mol     cal/K/mol   cal/K/mol   J/K/mol
 120.00  VIB   1.02                   22.966      0.791      0.240
         ROT  0.298E+04              357.707      2.981     18.879
         INT  0.305E+04              380.673      3.772     19.119
         TR   0.874E+26              596.178      4.968     33.118
         TOT                         976.8511     8.7405    52.2364   218.5571

   temp. (K)  partition function   enthalpy   heat capacity  entropy
                                   cal/mol     cal/K/mol   cal/K/mol   J/K/mol
 100.00  VIB   1.01                   10.255      0.486      0.125
         ROT  0.227E+04              298.089      2.981     18.335
         INT  0.229E+04              308.344      3.467     18.460
         TR   0.665E+26              496.815      4.968     32.212
         TOT                         805.1591     8.4350    50.6725   212.0136

   temp. (K)  partition function   enthalpy   heat capacity  entropy
                                   cal/mol     cal/K/mol   cal/K/mol   J/K/mol
  80.00  VIB   1.00                    3.202      0.230      0.047
         ROT  0.162E+04              238.471      2.981     17.670
         INT  0.163E+04              241.674      3.211     17.717
         TR   0.476E+26              397.452      4.968     31.104
         TOT                         639.1255     8.1791    48.8215   204.2691

   temp. (K)  partition function   enthalpy   heat capacity  entropy
                                   cal/mol     cal/K/mol   cal/K/mol   J/K/mol
  60.00  VIB   1.00                    0.479      0.060      0.009
         ROT  0.105E+04              178.853      2.981     16.812
         INT  0.105E+04              179.333      3.041     16.821
         TR   0.309E+26              298.089      4.968     29.676
         TOT                         477.4217     8.0094    46.4972   194.5443

   temp. (K)  partition function   enthalpy   heat capacity  entropy
                                   cal/mol     cal/K/mol   cal/K/mol   J/K/mol
  40.00  VIB   1.00                    0.011      0.003      0.000
         ROT   574.                  119.236      2.981     15.604
         INT   574.                  119.247      2.984     15.604
         TR   0.168E+26              198.726      4.968     27.662
         TOT                         317.9726     7.9522    43.2661   181.0253

   temp. (K)  partition function   enthalpy   heat capacity  entropy
                                   cal/mol     cal/K/mol   cal/K/mol   J/K/mol
  20.00  VIB   1.00                    0.000      0.000     -0.001
         ROT   203.                   59.618      2.981     13.537
         INT   203.                   59.618      2.981     13.537
         TR   0.595E+25               99.363      4.968     24.220
         TOT                         158.9808     7.9490    37.7571   157.9758

   temp. (K)  partition function   enthalpy   heat capacity  entropy
                                   cal/mol     cal/K/mol   cal/K/mol   J/K/mol
  10.00  VIB   1.00                    0.000      0.000     -0.001
         ROT   71.7                   29.809      2.981     11.471
         INT   71.7                   29.809      2.981     11.470
         TR   0.210E+25               49.681      4.968     20.778
         TOT                          79.4904     7.9490    32.2485   134.9275

       T/K    H(0)-H(T)+PV         H(T)/Eh          T*S/Eh         G(T)/Eh
   ------------------------------------------------------------------------
    298.15    0.450009E-02    0.168230E-01    0.291933E-01   -0.123704E-01
    120.00    0.155671E-02    0.138796E-01    0.998928E-02    0.389032E-02
    100.00    0.128310E-02    0.136060E-01    0.807517E-02    0.553082E-02
     80.00    0.101851E-02    0.133414E-01    0.622416E-02    0.711724E-02
     60.00    0.760820E-03    0.130837E-01    0.444588E-02    0.863782E-02
     40.00    0.506722E-03    0.128296E-01    0.275796E-02    0.100716E-01
     20.00    0.253352E-03    0.125762E-01    0.120340E-02    0.113728E-01
     10.00    0.126676E-03    0.124496E-01    0.513912E-03    0.119356E-01 (used)
   ------------------------------------------------------------------------

         :::::::::::::::::::::::::::::::::::::::::::::::::::::
         ::                  THERMODYNAMIC                  ::
         :::::::::::::::::::::::::::::::::::::::::::::::::::::
         :: total free energy          -8.971513107313 Eh   ::
         ::.................................................::
         :: total energy               -8.983448756086 Eh   ::
         :: zero point energy           0.012322884641 Eh   ::
         :: G(RRHO) w/o ZPVE           -0.000387235869 Eh   ::
         :: G(RRHO) contrib.            0.011935648773 Eh   ::
         :::::::::::::::::::::::::::::::::::::::::::::::::::::

optimized geometry written to: xtbopt.xyz


           -------------------------------------------------
          | TOTAL ENERGY               -8.983448756086 Eh   |
          | TOTAL ENTHALPY             -8.970999195429 Eh   |
          | TOTAL FREE ENERGY          -8.971513107313 Eh   |
          | GRADIENT NORM               0.000925935217 Eh/α |
          | HOMO-LUMO GAP               2.060948231963 eV   |
           -------------------------------------------------

------------------------------------------------------------------------
 * finished run on 2020/05/12 at 11:45:06.952     
------------------------------------------------------------------------
 total:
 * wall-time:     0 d,  0 h,  0 min,  0.144 sec
 *  cpu-time:     0 d,  0 h,  0 min,  0.143 sec
 * ratio c/w:     0.999 speedup
 SCF:
 * wall-time:     0 d,  0 h,  0 min,  0.004 sec
 *  cpu-time:     0 d,  0 h,  0 min,  0.004 sec
 * ratio c/w:     1.000 speedup
 ANC optimizer:
 * wall-time:     0 d,  0 h,  0 min,  0.063 sec
 *  cpu-time:     0 d,  0 h,  0 min,  0.063 sec
 * ratio c/w:     0.999 speedup
 numerical hessian:
 * wall-time:     0 d,  0 h,  0 min,  0.061 sec
 *  cpu-time:     0 d,  0 h,  0 min,  0.061 sec
 * ratio c/w:     0.999 speedup

