5
 energy: -9.400172059645 gnorm: 0.341409668150 xtb: 6.2.2 (9d81278992624c895f80dd42a50cac0aa55982e2)
C        -0.92983500000000    0.39367200000000    0.76246500000000
N        -0.26914200000000   -0.42505200000000   -0.23890300000000
C         1.04045000000000   -0.76802800000000    0.28745200000000
C         2.09570300000000    0.11723300000000   -0.34615800000000
H        -1.93717600000000    0.68217600000000    0.39816300000000
5
 energy: -9.505483122438 gnorm: 0.201832141287 xtb: 6.2.2 (9d81278992624c895f80dd42a50cac0aa55982e2)
C        -0.93982042159938    0.36680465723944    0.71475781056776
N        -0.24835078111235   -0.39549122712394   -0.12448582786821
C         1.06951519621310   -0.69820907288751    0.18317700140352
C         2.05570551872772    0.05032486728834   -0.30217759240786
H        -1.93704951222909    0.67657177548368    0.39174760830480
5
 energy: -9.507486604916 gnorm: 0.393639633119 xtb: 6.2.2 (9d81278992624c895f80dd42a50cac0aa55982e2)
C        -0.93884420145605    0.27810043854388    0.66175499190277
N        -0.23771846160354   -0.33337944972596   -0.03589664136883
C         1.07338180988547   -0.54420822525541    0.11522010739164
C         2.01596638456223   -0.06572551912029   -0.26976771925326
H        -1.91278553138811    0.66521375555778    0.39170826132768
5
 energy: -9.539376379442 gnorm: 0.105441973695 xtb: 6.2.2 (9d81278992624c895f80dd42a50cac0aa55982e2)
C        -1.01189035515191    0.28053207139015    0.70042877975587
N        -0.24220885571578   -0.31008405601826   -0.04539902572855
C         1.04057808345943   -0.50630977912072    0.12364692167388
C         2.18079392636204   -0.10878519530501   -0.31712900708074
H        -1.96727279895378    0.64464795905384    0.40147133137955
5
 energy: -9.541961116119 gnorm: 0.096588806432 xtb: 6.2.2 (9d81278992624c895f80dd42a50cac0aa55982e2)
C        -1.08417805187252    0.29488859200490    0.73405399580254
N        -0.17766298510808   -0.23747755031528   -0.01202451691374
C         1.10044165323805   -0.53340270460780    0.10312226449936
C         2.19607620169714   -0.15861538882392   -0.34536792215329
H        -2.03467681795458    0.63460805174210    0.38323517876513
5
 energy: -9.547409374929 gnorm: 0.042400581040 xtb: 6.2.2 (9d81278992624c895f80dd42a50cac0aa55982e2)
C        -1.04981535990237    0.36883223129283    0.69674196441520
N        -0.18942047339565   -0.17461845003121   -0.00217206784112
C         1.07948342094602   -0.49579889258734    0.06774608699057
C         2.24373127281233   -0.22921802896738   -0.31726217560959
H        -2.08397886046031    0.53080414029310    0.41796519204494
5
 energy: -9.548756067187 gnorm: 0.062809703982 xtb: 6.2.2 (9d81278992624c895f80dd42a50cac0aa55982e2)
C        -1.07762548903114    0.27863615606583    0.74580505134281
N        -0.18567676496214   -0.14802701793061    0.00931001032462
C         1.06470335634576   -0.42456534773663    0.08328698358809
C         2.23883185630732   -0.26331869722496   -0.34753433460229
H        -2.04023295865979    0.55727590682638    0.37215128934678
5
 energy: -9.547720979465 gnorm: 0.061157383937 xtb: 6.2.2 (9d81278992624c895f80dd42a50cac0aa55982e2)
C        -1.05490625835305    0.27986705880232    0.76483744479808
N        -0.19409261497194   -0.17488726405993    0.03288318242743
C         1.06548160398960   -0.45201578980555    0.06153875394476
C         2.18210827926859   -0.22389731592429   -0.33215137039336
H        -1.99859100993319    0.57093431098745    0.33591098922310
5
 energy: -9.550512178406 gnorm: 0.020202928421 xtb: 6.2.2 (9d81278992624c895f80dd42a50cac0aa55982e2)
C        -1.08731933608770    0.30715605325295    0.75968963138488
N        -0.16458781071962   -0.09290863159548    0.03207172911246
C         1.08179231099382   -0.42958742049646    0.06102483845194
C         2.23899336453021   -0.30079614945306   -0.34868591346727
H        -2.06887852871671    0.51613714829206    0.35891871451799
5
 energy: -9.550838649738 gnorm: 0.019911241602 xtb: 6.2.2 (9d81278992624c895f80dd42a50cac0aa55982e2)
C        -1.08422608561434    0.30454498111008    0.75645363151377
N        -0.16606713025074   -0.08058152695488    0.03109509154017
C         1.07685522107486   -0.40849798386321    0.05973014016675
C         2.24374427053474   -0.31951898223677   -0.34674594952024
H        -2.07030627574451    0.50405451194479    0.36248608629955
5
 energy: -9.551097438294 gnorm: 0.015536046600 xtb: 6.2.2 (9d81278992624c895f80dd42a50cac0aa55982e2)
C        -1.08892476182413    0.29481169399451    0.76230178492587
N        -0.16250288356367   -0.06121735717034    0.03445742861581
C         1.07880968222236   -0.39004228756427    0.05916749361071
C         2.24278962203975   -0.33993501946297   -0.35004692611786
H        -2.07017165887429    0.49638397020309    0.35713921896548
5
 energy: -9.551409657671 gnorm: 0.007489397616 xtb: 6.2.2 (9d81278992624c895f80dd42a50cac0aa55982e2)
C        -1.09691487343332    0.27902480890979    0.76401954196184
N        -0.15734971669448   -0.03174527354462    0.03426293220403
C         1.08617794635147   -0.35921695264771    0.06222621401929
C         2.24215893078839   -0.37434560124058   -0.35427559205829
H        -2.07407228701206    0.48628401852313    0.35678590387314
5
 energy: -9.551635740625 gnorm: 0.012196474322 xtb: 6.2.2 (9d81278992624c895f80dd42a50cac0aa55982e2)
C        -1.10207199569224    0.26092220764410    0.75900544406901
N        -0.15023652533281    0.00165228885004    0.02345770250380
C         1.09386892841481   -0.32272140856686    0.07471012704141
C         2.23963699137191   -0.41457980446025   -0.35910655605725
H        -2.08119739876166    0.47472771653298    0.36495228244303
5
 energy: -9.551825385442 gnorm: 0.009538163158 xtb: 6.2.2 (9d81278992624c895f80dd42a50cac0aa55982e2)
C        -1.10450883021663    0.22631575148130    0.74440934924304
N        -0.15109120466720    0.02793297906201    0.00188647692931
C         1.11006054964699   -0.27031049588584    0.09596443326966
C         2.22869937723607   -0.45938386202787   -0.36074244536419
H        -2.08315989199922    0.47544662737042    0.38150118592219
5
 energy: -9.551778597578 gnorm: 0.013549881953 xtb: 6.2.2 (9d81278992624c895f80dd42a50cac0aa55982e2)
C        -1.10964436951251    0.21548104799375    0.74477815547226
N        -0.14550843709245    0.05025814329497   -0.00136979104410
C         1.11526119877415   -0.24940272902418    0.10129557117272
C         2.23025756794051   -0.48460219022584   -0.36520008581060
H        -2.09036596010969    0.46826672796132    0.38351515020973
5
 energy: -9.551852143679 gnorm: 0.003855816742 xtb: 6.2.2 (9d81278992624c895f80dd42a50cac0aa55982e2)
C        -1.10447231710781    0.23012358506556    0.74542421330241
N        -0.14503686181162    0.03434266010626    0.00319187273931
C         1.10907513899500   -0.27224730744674    0.09511528277693
C         2.22923203182045   -0.46294117120073   -0.36193325484971
H        -2.08879799189601    0.47072323347565    0.38122088603107
5
 energy: -9.551860178102 gnorm: 0.003128799477 xtb: 6.2.2 (9d81278992624c895f80dd42a50cac0aa55982e2)
C        -1.10634778776346    0.22573798883461    0.74612154808694
N        -0.14835301463409    0.03285329676947    0.00465821234243
C         1.11089009576511   -0.26734189448979    0.09366907229984
C         2.23071894794819   -0.46466788999560   -0.36161596102304
H        -2.08690824131574    0.47341949888132    0.38018612829384
5
 energy: -9.551865479186 gnorm: 0.000794242006 xtb: 6.2.2 (9d81278992624c895f80dd42a50cac0aa55982e2)
C        -1.10619223495347    0.22398032313534    0.74540621785263
N        -0.14670850899996    0.03651126399363    0.00306079727956
C         1.11132398479928   -0.26394421240877    0.09547552294587
C         2.22922163090505   -0.46865936125090   -0.36209163919174
H        -2.08764487175090    0.47211298653070    0.38116810111369
5
 energy: -9.551867565042 gnorm: 0.001044136192 xtb: 6.2.2 (9d81278992624c895f80dd42a50cac0aa55982e2)
C        -1.10660580721205    0.22244856250574    0.74523887055656
N        -0.14559907778389    0.04008386538047    0.00317606728739
C         1.11210509358190   -0.25994096054732    0.09538312886052
C         2.22858550858229   -0.47317694593611   -0.36214594969993
H        -2.08848571716823    0.47058647859722    0.38136688299547
5
 energy: -9.551869588230 gnorm: 0.000689801809 xtb: 6.2.2 (9d81278992624c895f80dd42a50cac0aa55982e2)
C        -1.10761292716034    0.21854519376606    0.74586654559843
N        -0.14486224582061    0.04391503808100    0.00401805915045
C         1.11338119924217   -0.25362930547357    0.09490833381169
C         2.22714860684858   -0.47883453695475   -0.36227763254460
H        -2.08805463310979    0.47000461058127    0.38050369398403
