$hessian                                                                        
        0.7992102622  -0.1666247562  -0.2713523448  -0.4770495179   0.0896181069
        0.3492136393  -0.0736416097   0.0139755003   0.0226090522   0.0020532369
       -0.0004355777   0.0014339099  -0.2505723714   0.0634667266  -0.1019042566
       -0.1666247562   0.0400233224   0.0397230337   0.0897305581  -0.0090466693
       -0.0603487846   0.0163323752  -0.0100889188  -0.0070437450  -0.0015619697
        0.0009192794   0.0006275115   0.0621237925  -0.0218070138   0.0270419844
       -0.2713523448   0.0397230337   0.3570710344   0.3446537463  -0.0593876554
       -0.3063638910  -0.0087749831   0.0003208318   0.0188461172   0.0159129290
       -0.0027676035  -0.0123547933  -0.0804393474   0.0221113933  -0.0571984673
       -0.4770495179   0.0897305581   0.3446537463   0.9307164262  -0.1880461891
       -0.3501637394  -0.3324418491   0.0766625366  -0.0337082840  -0.0912852074
        0.0191358742   0.0205060706  -0.0299398518   0.0025172202   0.0187122065
        0.0896181069  -0.0090466693  -0.0593876554  -0.1880461891   0.0598861578
        0.0612005912   0.0751261261  -0.0306081957   0.0092400711   0.0195305465
       -0.0057509420  -0.0052610697   0.0037714096  -0.0144803508  -0.0057919372
        0.3492136393  -0.0603487846  -0.3063638910  -0.3501637394   0.0612005912
        0.3252366644  -0.0141823393   0.0046320065  -0.0329792005   0.0162005224
       -0.0042416664   0.0058851496  -0.0010680830  -0.0012421468   0.0082212775
       -0.0736416097   0.0163323752  -0.0087749831  -0.3324418491   0.0751261261
       -0.0141823393   1.0621972870  -0.2274191966  -0.2303724828  -0.6549056319
        0.1341762860   0.2444920759  -0.0012081963   0.0017844093   0.0088377293
        0.0139755003  -0.0100889188   0.0003208318   0.0766625366  -0.0306081957
        0.0046320065  -0.2274191966   0.0612351358   0.0448515659   0.1342460151
       -0.0291203824  -0.0489957960   0.0025351445   0.0085823611  -0.0008086083
        0.0226090522  -0.0070437450   0.0188461172  -0.0337082840   0.0092400711
       -0.0329792005  -0.2303724828   0.0448515659   0.1342566387   0.2436697939
       -0.0487719730  -0.1108769628  -0.0021980793   0.0017240811  -0.0092465926
        0.0020532369  -0.0015619697   0.0159129290  -0.0912852074   0.0195305465
        0.0162005224  -0.6549056319   0.1342460151   0.2436697939   0.7469191233
       -0.1535549945  -0.2687755786  -0.0027815207   0.0013404026  -0.0070076668
       -0.0004355777   0.0009192794  -0.0027676035   0.0191358742  -0.0057509420
       -0.0042416664   0.1341762860  -0.0291203824  -0.0487719730  -0.1535549945
        0.0333848875   0.0545677891   0.0006784120   0.0005671574   0.0012134538
        0.0014339099   0.0006275115  -0.0123547933   0.0205060706  -0.0052610697
        0.0058851496   0.2444920759  -0.0489957960  -0.1108769628  -0.2687755786
        0.0545677891   0.1108321778   0.0023435221  -0.0009384350   0.0065144287
       -0.2505723714   0.0621237925  -0.0804393474  -0.0299398518   0.0037714096
       -0.0010680830  -0.0012081963   0.0025351445  -0.0021980793  -0.0027815207
        0.0006784120   0.0023435221   0.2845019403  -0.0691087587   0.0813619876
        0.0634667266  -0.0218070138   0.0221113933   0.0025172202  -0.0144803508
       -0.0012421468   0.0017844093   0.0085823611   0.0017240811   0.0013404026
        0.0005671574  -0.0009384350  -0.0691087587   0.0271378460  -0.0216548927
       -0.1019042566   0.0270419844  -0.0571984673   0.0187122065  -0.0057919372
        0.0082212775   0.0088377293  -0.0008086083  -0.0092465926  -0.0070076668
        0.0012134538   0.0065144287   0.0813619876  -0.0216548927   0.0517093537
