[Molden Format]
[Title]
[Atoms] AU
C      1     6 -0.20930778077417E+01  0.41300394310126E+00  0.14094899513594E+01
N      2     7 -0.27374948397008E+00  0.82988833628342E-01  0.75938413696255E-02
C      3     6  0.21039834601267E+01 -0.47930058346702E+00  0.17934423343146E+00
C      4     6  0.42086933876275E+01 -0.90488928144309E+00 -0.68461855491134E+00
H      5     1 -0.39458438632095E+01  0.88820182428073E+00  0.71905992777165E+00
[GTO]
           1 0
 s           4   1.0000000000000000     
   51.049363095579913      -0.16312063210127389     
   8.7911227406887544      -0.19911024581000730     
  0.70640422258929825       0.31882047753655751     
  0.26922813413411617       0.12706504184240380     
 p           4   1.0000000000000000     
   5.8263656140800002       0.73716451545209605     
   1.5106896018720002       0.68216371614850257     
  0.53256483288000001       0.35783053929253711     
  0.21202323690600003        5.3983030275847881E-002

           2 0
 s           4   1.0000000000000000     
   63.594024466941008      -0.19234388414721629     
   10.951417231523665      -0.23478107924953728     
  0.87999310257376984       0.37593753901700888     
  0.33538715296521110       0.14982889271862770     
 p           4   1.0000000000000000     
   7.2965040481495080       0.97658666315667420     
   1.8918745450712575       0.90372226730345739     
  0.66694432110824120       0.47404958461536373     
  0.26552202674130870        7.1516067715011844E-002

           3 0
 s           4   1.0000000000000000     
   51.049363095579913      -0.16312063210127389     
   8.7911227406887544      -0.19911024581000730     
  0.70640422258929825       0.31882047753655751     
  0.26922813413411617       0.12706504184240380     
 p           4   1.0000000000000000     
   5.8263656140800002       0.73716451545209605     
   1.5106896018720002       0.68216371614850257     
  0.53256483288000001       0.35783053929253711     
  0.21202323690600003        5.3983030275847881E-002

           4 0
 s           4   1.0000000000000000     
   51.049363095579913      -0.16312063210127389     
   8.7911227406887544      -0.19911024581000730     
  0.70640422258929825       0.31882047753655751     
  0.26922813413411617       0.12706504184240380     
 p           4   1.0000000000000000     
   5.8263656140800002       0.73716451545209605     
   1.5106896018720002       0.68216371614850257     
  0.53256483288000001       0.35783053929253711     
  0.21202323690600003        5.3983030275847881E-002

           5 0
 s           3   1.0000000000000000     
   3.3702276975336001       0.27359110588908298     
  0.61389118221497996       0.26460540653860526     
  0.16614291148415999        8.2465947534082318E-002

[MO]
Sym=     1a
Ene=  -0.67881260186567061     
Spin= Alpha
Occup=     2.00000000
           1  0.28799836630623499     
           2  0.15767964421953121     
           3  -3.0673924288184728E-002
           4  -8.9968935570793870E-002
           5  0.58901656088268572     
           6   3.3468335009366107E-002
           7  -1.5644668620009978E-002
           8  0.12051362682812888     
           9  0.28346298393986435     
          10 -0.14815626761077802     
          11   3.4228783756455501E-002
          12   2.7128253870729482E-003
          13   5.8270392636771848E-002
          14  -5.4284483196680021E-002
          15   1.1583402933929543E-002
          16   1.4066635356247121E-002
          17   3.9811492862161693E-002
Sym=     2a
Ene=  -0.64788774795604087     
Spin= Alpha
Occup=     2.00000000
           1  0.30403945789408376     
           2   5.1217029452229938E-002
           3  -6.6560831552182776E-003
           4  -8.0500902841304470E-002
           5   5.9415327610873502E-002
           6 -0.32394317451270843     
           7   6.8330879382239446E-002
           8  0.10067417128821694     
           9 -0.45715299083889499     
          10  -6.3665203713975868E-002
          11   9.1268825440599336E-003
          12   8.0333727628911722E-002
          13 -0.32660056162353895     
          14  0.15131332622958305     
          15  -3.1659132586598360E-002
          16  -4.7002109957817610E-002
          17   8.4577630880331017E-002
Sym=     3a
Ene=  -0.60513798654093232     
Spin= Alpha
Occup=     2.00000000
           1  0.32797625761069288     
           2  -5.0588931006882915E-002
           3   1.5856960587407612E-002
           4  -6.1719067914876455E-002
           5 -0.14979490849176136     
           6 -0.31923277382286497     
           7   7.0349794452965714E-002
           8   6.0327920391095149E-002
           9   7.3676486691282586E-002
          10  0.37122639968631060     
          11  -8.2014244946113812E-002
          12  -5.1973200088509627E-002
          13  0.43766231330306177     
          14  -8.5150699294787066E-002
          15   1.5817294009158912E-002
          16   5.5188022926791112E-002
          17  0.16301298826445765     
Sym=     4a
Ene=  -0.53659838426693340     
Spin= Alpha
Occup=     2.00000000
           1  -5.4386796940265932E-003
           2  0.33991160648232616     
           3  -9.0357416571065413E-002
           4  0.18374811771015934     
           5 -0.18127118827149355     
           6  -8.3111656028154787E-003
           7  -3.3612356670124861E-002
           8  0.55844980872748429     
           9   3.6394201178681411E-002
          10  0.10702208986927965     
          11  -4.3485661404283303E-002
          12  0.29545935385511485     
          13   4.9625977287009460E-002
          14   3.9776890097108830E-002
          15  -1.7057459886180040E-002
          16  0.12332527679372798     
          17 -0.28593383019555935     
Sym=     5a
Ene=  -0.53505442652897461     
Spin= Alpha
Occup=     2.00000000
           1  -2.9172229272776044E-004
           2   7.8429368379539580E-002
           3  0.33966343558707474     
           4   2.1859581994366748E-002
           5   4.6846683823016335E-004
           6  0.15380826187835303     
           7  0.66380385211823190     
           8   4.2516769723743630E-002
           9  -7.2086200282367517E-004
          10   8.3714389429809036E-002
          11  0.36408036247910147     
          12   2.3412456368345054E-002
          13  -1.8718703087247865E-004
          14   3.4295250342558273E-002
          15  0.14927053574366600     
          16   9.5739146922922715E-003
          17   1.7829883444715858E-004
Sym=     6a
Ene=  -0.52395528297729499     
Spin= Alpha
Occup=     2.00000000
           1  0.32471608586055223     
           2 -0.30964126810658466     
           3   5.4877158207051698E-002
           4  0.26296413512455424     
           5 -0.27321830858279050     
           6  0.31330098687795216     
           7  -8.8425611100315424E-002
           8  0.24806135001072163     
           9  0.17856932946144780     
          10 -0.12712729305829884     
          11   1.7543830833964928E-002
          12  0.18159309225870721     
          13 -0.18540561624608040     
          14  -3.2069129375489058E-002
          15   2.8365096517054674E-003
          16   7.1046999234395988E-002
          17  0.37201544910969808     
Sym=     7a
Ene=  -0.43829477227668606     
Spin= Alpha
Occup=     2.00000000
           1  0.22352838212762904     
           2   9.6748446505805760E-002
           3  -4.6649962112264423E-002
           4  0.35171707192728641     
           5  -7.6911920409017898E-002
           6  0.11748876335836526     
           7  -4.0300125209151508E-002
           8  0.18617950713580519     
           9 -0.19233917530976125     
          10 -0.12808661557450826     
          11   6.0223052934938376E-002
          12 -0.44514300948831348     
          13  0.29799473635073098     
          14   7.7121979257518264E-002
          15   1.9433742550076370E-002
          16 -0.53928038263950462     
          17  -6.0030116474806335E-002
Sym=     8a
Ene=  -0.42836453302137928     
Spin= Alpha
Occup=     1.99998665
           1   8.8828358228526896E-004
           2   9.4167445050029844E-002
           3  0.40282241124476831     
           4   2.7508046644169941E-002
           5  -4.8422121539397751E-004
           6   6.0882183838688389E-002
           7  0.26306770239735433     
           8   1.7881151864217279E-002
           9   3.7133322338472446E-004
          10 -0.11459171602938387     
          11 -0.49681731760176262     
          12  -3.4668998621710086E-002
          13  -9.5695487568535451E-004
          14 -0.13390182575110310     
          15 -0.57663658417470065     
          16  -3.9878100948149114E-002
          17  -4.9756290911605197E-004
Sym=     9a
Ene=  -0.40703819022844967     
Spin= Alpha
Occup=     1.00001335
           1 -0.10391694972843603     
           2 -0.11100519666504048     
           3   3.1459976965836293E-002
           4  -6.5775189469987963E-002
           5  0.14360696313339447     
           6  0.15151827545385085     
           7  -3.1403934002479469E-002
           8  -4.8112156980052091E-002
           9 -0.10467915806856705     
          10 -0.11981361076463358     
          11   9.1324181767061426E-003
          12  0.25946322174781877     
          13  0.56484367014760140     
          14  0.67725556462776804     
          15 -0.16135650374502672     
          16   6.1684263867689257E-002
          17  0.10363444065502454     
Sym=    10a
Ene=  -0.32463271804714644     
Spin= Alpha
Occup=     1.00000000
           1 -0.36000667443439216     
           2  -7.5432288607355583E-002
           3   6.1774052827064635E-002
           4 -0.67185624672417821     
           5 -0.20475687535447473     
           6   5.3130273151154171E-002
           7  -4.5887433471365230E-002
           8  0.51025916941410221     
           9   8.4875518577076731E-002
          10  -7.2155297312898173E-002
          11   1.1299248638647105E-002
          12   7.8961923418381166E-002
          13   4.2226527796392715E-002
          14 -0.10315289229564520     
          15   5.3092659337761000E-002
          16 -0.44047822653494967     
          17  0.20993128876535300     
Sym=    11a
Ene=  -0.28041029228500286     
Spin= Alpha
Occup=     0.00000000
           1   2.3047136649751053E-004
           2  0.17989142056596216     
           3  0.77491496229164603     
           4   5.1095102648555810E-002
           5  -1.3441405730395728E-004
           6 -0.11283142874053767     
           7 -0.48504336803888487     
           8  -3.2139742186829960E-002
           9   3.2477335428994389E-004
          10  -5.1264568160464957E-002
          11 -0.22225639802527433     
          12  -1.4598707624472915E-002
          13   1.1505887567434434E-004
          14  0.11714187027434526     
          15  0.51093871565135995     
          16   3.3772531052652759E-002
          17  -1.8910542959557416E-004
Sym=    12a
Ene=  -0.17189332628532242     
Spin= Alpha
Occup=     0.00000000
           1   8.8465803505213311E-002
           2  -5.1954071364382313E-002
           3  -3.5164240316122898E-003
           4  0.22080532326525817     
           5   8.3561375930293447E-002
           6 -0.19060068370141614     
           7   7.2248196767004016E-002
           8 -0.40510416801323867     
           9  0.23173979143849943     
          10   8.4226946783535137E-002
          11  -7.1654261511823483E-002
          12  0.76774435031351895     
          13   1.8411735610065774E-002
          14 -0.13399088938401568     
          15   7.8107913984083802E-002
          16 -0.69464696831969142     
          17 -0.12303784511229715     
Sym=    13a
Ene=  -0.13274481268371249     
Spin= Alpha
Occup=     0.00000000
           1  -3.5884216057971137E-004
           2   7.9619298084300169E-002
           3  0.34474204862883395     
           4   2.3300945194933777E-002
           5   1.0284021238021323E-003
           6 -0.12559379503547949     
           7 -0.54224629427246296     
           8  -3.6250681419095987E-002
           9  -1.0505346085475150E-003
          10  0.18374898774596765     
          11  0.79376298827666292     
          12   5.4523893476446324E-002
          13   5.0894809390065127E-005
          14 -0.14668732426111444     
          15 -0.63328168129795315     
          16  -4.3519212639380862E-002
          17   1.8420633481061716E-004
Sym=    14a
Ene=   0.11559708288427639     
Spin= Alpha
Occup=     0.00000000
           1 -0.70655801432994725     
           2  0.23115683139924031     
           3  -8.0865210572262050E-002
           4  0.41084076503771799     
           5  0.67608259475726251     
           6  0.17409386610065017     
           7  -4.9079644018608370E-002
           8  0.14276048867389621     
           9 -0.62092308415420472     
          10  0.36365832576720070     
          11  -9.5526253456562099E-002
          12  0.15016189501349225     
          13  0.10930588506737529     
          14 -0.31424854207998815     
          15   7.4014209879360263E-002
          16  -1.3684799379727046E-002
          17  0.78365153401068721     
Sym=    15a
Ene=   0.29778995406055614     
Spin= Alpha
Occup=     0.00000000
           1  0.32136360082746851     
           2 -0.87038547919271037     
           3  0.21159086080404230     
           4 -0.14908403700113596     
           5  0.60761049990386884     
           6  0.33548775534959996     
           7  -9.6839581483336643E-002
           8  0.29632464290179045     
           9 -0.63233420902531867     
          10  0.22622767878932973     
          11  -6.2767153102464279E-002
          12  0.14074525256068840     
          13  0.17924215458905282     
          14 -0.32509494731043265     
          15   7.2558427144484711E-002
          16   3.9678697735960444E-002
          17 -0.83823856781206774     
Sym=    16a
Ene=   0.69609447712225236     
Spin= Alpha
Occup=     0.00000000
           1  0.68711809946722702     
           2  0.74408441604649422     
           3 -0.13648161047606644     
           4 -0.55137275716540490     
           5 -0.50369169649592826     
           6  0.95165137701570113     
           7 -0.18527416195485774     
           8 -0.53658835183477116     
           9 -0.61901572370791647     
          10   8.8396557157862959E-002
          11  -3.9748900411879812E-002
          12  0.28142183128522225     
          13  0.23504263601826478     
          14 -0.31579814893514452     
          15   7.0198830569508583E-002
          16   3.7219613893428365E-002
          17  0.11123737861606740     
Sym=    17a
Ene=    1.0950362100007032     
Spin= Alpha
Occup=     0.00000000
           1 -0.17958790618224169     
           2  -7.3158230827583659E-002
           3   7.2673179827940767E-003
           4  0.14670668533903305     
           5 -0.35969647806337779     
           6 -0.57253748210674116     
           7  0.13549110666082070     
           8  -3.5324412519698339E-002
           9 -0.47401981883505268     
          10  -1.3063057981810635     
          11  0.28083349723470025     
          12  0.29980674494543458     
          13  0.92005345770123559     
          14 -0.82426025569519457     
          15  0.16199835203449817     
          16  0.40455630444999902     
          17   2.4519825373205059E-002
